                               Psi4 1.3.2 release

  ==> Input File <==

--------------------------------------------------------------------------
#psi4
#
memory 32 gb

molecule  {
0 1
  S        1.0039920    -1.8370330     0.0416350
  C       -0.5487086     0.0572575    -0.3063370
  C        0.8344880    -0.0270290     0.3757450
  C       -0.7993060    -1.5368490    -0.1403280
  C       -1.6389980     0.8445570     0.4478430
  C        1.8965050     0.8563820    -0.2511320
  C       -3.0139260     0.6977340    -0.2008490
  C        1.6197410     2.3450710    -0.0456480
  H       -0.4989150     0.2672930    -1.2933800
  H        0.7896660     0.1408860     1.4600880
  H       -1.3425120    -1.8245460     0.7655480
  H       -1.2523250    -2.0240820    -1.0064780
  H       -1.3288740     1.8959250     0.4270340
  H       -1.6941720     0.5567670     1.5060070
  H        2.8729810     0.5983550     0.1779310
  H        1.9538560     0.6259360    -1.3212150
  H       -2.9803430     0.9928380    -1.2542670
  H       -3.7577360     1.3235000     0.3006380
  H       -3.3631330    -0.3381970    -0.1530850
  H        0.6957430     2.6486760    -0.5454840
  H        2.4328210     2.9512940    -0.4556920
  H        1.5246440     2.5856330     1.0178510
units angstrom
no_reorient  #important for SAPT in psi4, default
symmetry c1  #important for SAPT in psi4, default
}

set PROPERTIES_ORIGIN ["COM"]
properties('MP2/aug-cc-pvtz', properties = ['dipole'])
--------------------------------------------------------------------------

    Molecular point group: c1
  Charge       = 0
  Multiplicity = 1
  Basis Set: AUG-CC-PVTZ
    Blend: AUG-CC-PVTZ
  Basis Set: (AUG-CC-PVTZ AUX)
    Blend: AUG-CC-PVTZ-JKFIT

    Orbital Energies [Eh]
    ---------------------

    Doubly Occupied:

       1A    -91.934223     2A    -11.257900     3A    -11.254199
       4A    -11.237140     5A    -11.227905     6A    -11.223966
       7A    -11.219797     8A    -11.219528     9A     -8.934560
      10A     -6.615388    11A     -6.615014    12A     -6.613810
      13A     -1.140833    14A     -1.048348    15A     -1.022898
      16A     -0.916182    17A     -0.909713    18A     -0.829898
      19A     -0.808253    20A     -0.756154    21A     -0.643940
      22A     -0.633655    23A     -0.598934    24A     -0.594736
      25A     -0.570512    26A     -0.553241    27A     -0.547352
      28A     -0.530334    29A     -0.517271    30A     -0.497593
      31A     -0.491194    32A     -0.483269    33A     -0.453663
      34A     -0.427976    35A     -0.388148    36A     -0.330602

  @DF-RHF Final Energy:  -670.84158268415615

   => Energetics <=

    Nuclear Repulsion Energy =            467.4655624567237737
    One-Electron Energy =               -1846.5180338941734135
    Two-Electron Energy =                 708.2108887532934887
    Total Energy =                       -670.8415826841561511
  Basis Set: (AUG-CC-PVTZ AUX)
    Blend: AUG-CC-PVTZ-RI
    Molecular point group: c1

    Geometry (in Angstrom), charge = 0, multiplicity = 1:

       Center              X                  Y                   Z               Mass
    ------------   -----------------  -----------------  -----------------  -----------------
         S            0.955542389883    -1.764719884607     0.045438376037    31.972071174400
         C           -0.597158210117     0.129570615393    -0.302533623963    12.000000000000
         C            0.786038389883     0.045284115393     0.379548376037    12.000000000000
         C           -0.847755610117    -1.464535884607    -0.136524623963    12.000000000000
         C           -1.687447610117     0.916870115393     0.451646376037    12.000000000000
         C            1.848055389883     0.928695115393    -0.247328623963    12.000000000000
         C           -3.062375610117     0.770047115393    -0.197045623963    12.000000000000
         C            1.571291389883     2.417384115393    -0.041844623963    12.000000000000
         H           -0.547364610117     0.339606115393    -1.289576623963     1.007825032230
         H            0.741216389883     0.213199115393     1.463891376037     1.007825032230
         H           -1.390961610117    -1.752232884607     0.769351376037     1.007825032230
         H           -1.300774610117    -1.951768884607    -1.002674623963     1.007825032230
         H           -1.377323610117     1.968238115393     0.430837376037     1.007825032230
         H           -1.742621610117     0.629080115393     1.509810376037     1.007825032230
         H            2.824531389883     0.670668115393     0.181734376037     1.007825032230
         H            1.905406389883     0.698249115393    -1.317411623963     1.007825032230
         H           -3.028792610117     1.065151115393    -1.250463623963     1.007825032230
         H           -3.806185610117     1.395813115393     0.304441376037     1.007825032230
         H           -3.411582610117    -0.265883884607    -0.149281623963     1.007825032230
         H            0.647293389883     2.720989115393    -0.541680623963     1.007825032230
         H            2.384371389883     3.023607115393    -0.451888623963     1.007825032230
         H            1.476194389883     2.657946115393     1.021654376037     1.007825032230

  Basis Set: AUG-CC-PVTZ
    Blend: AUG-CC-PVTZ
  Basis Set: (AUG-CC-PVTZ AUX)
    Blend: AUG-CC-PVTZ-JKFIT
	 Reference Energy          =    -670.8415826841561511 [Eh]
	 Singles Energy            =      -0.0000000000000000 [Eh]
	 Same-Spin Energy          =      -0.3555611578156532 [Eh]
	 Opposite-Spin Energy      =      -1.2395366912353913 [Eh]
	 Correlation Energy        =      -1.5950978490510446 [Eh]
	 Total Energy              =    -672.4366805332072090 [Eh]

	 ================> DF-SCS-MP2 Energies <==================
	-----------------------------------------------------------
	 SCS Same-Spin Scale       =       0.3333333333333333 [-]
	 SCS Opposite-Spin Scale   =       1.2000000000000000 [-]
	 SCS Same-Spin Energy      =      -0.1185203859385511 [Eh]
	 SCS Opposite-Spin Energy  =      -1.4874440294824696 [Eh]
	 SCS Correlation Energy    =      -1.6059644154210206 [Eh]
	 SCS Total Energy          =    -672.4475470995771502 [Eh]
	-----------------------------------------------------------

  Dipole Moment: [D]
     X:    -1.2910      Y:     1.7893      Z:     0.0232     Total:     2.2065

*** Psi4 exiting successfully. Buy a developer a beer!
