                               Psi4 1.3.2 release

  ==> Input File <==

--------------------------------------------------------------------------
#psi4
#
memory 32 gb

molecule  {
0 1
  S        1.0039920    -1.8370330     0.0416350
  C       -0.5946802    -0.0100108    -0.2097134
  C        0.8344880    -0.0270290     0.3757450
  C       -0.7993060    -1.5368490    -0.1403280
  C       -1.6389980     0.8445570     0.4478430
  C        1.8965050     0.8563820    -0.2511320
  C       -3.0139260     0.6977340    -0.2008490
  C        1.6197410     2.3450710    -0.0456480
  H       -0.4989150     0.2672930    -1.2933800
  H        0.7896660     0.1408860     1.4600880
  H       -1.3425120    -1.8245460     0.7655480
  H       -1.2523250    -2.0240820    -1.0064780
  H       -1.3288740     1.8959250     0.4270340
  H       -1.6941720     0.5567670     1.5060070
  H        2.8729810     0.5983550     0.1779310
  H        1.9538560     0.6259360    -1.3212150
  H       -2.9803430     0.9928380    -1.2542670
  H       -3.7577360     1.3235000     0.3006380
  H       -3.3631330    -0.3381970    -0.1530850
  H        0.6957430     2.6486760    -0.5454840
  H        2.4328210     2.9512940    -0.4556920
  H        1.5246440     2.5856330     1.0178510
units angstrom
no_reorient  #important for SAPT in psi4, default
symmetry c1  #important for SAPT in psi4, default
}

set PROPERTIES_ORIGIN ["COM"]
properties('MP2/aug-cc-pvtz', properties = ['dipole'])
--------------------------------------------------------------------------

    Molecular point group: c1
  Charge       = 0
  Multiplicity = 1
  Basis Set: AUG-CC-PVTZ
    Blend: AUG-CC-PVTZ
  Basis Set: (AUG-CC-PVTZ AUX)
    Blend: AUG-CC-PVTZ-JKFIT

    Orbital Energies [Eh]
    ---------------------

    Doubly Occupied:

       1A    -91.935228     2A    -11.257414     3A    -11.252933
       4A    -11.239954     5A    -11.226324     6A    -11.225683
       7A    -11.220566     8A    -11.219530     9A     -8.935635
      10A     -6.616454    11A     -6.616085    12A     -6.614855
      13A     -1.148041    14A     -1.052121    15A     -1.027193
      16A     -0.917847    17A     -0.910603    18A     -0.832683
      19A     -0.805758    20A     -0.744432    21A     -0.650899
      22A     -0.632857    23A     -0.602137    24A     -0.597122
      25A     -0.570980    26A     -0.557358    27A     -0.538563
      28A     -0.529489    29A     -0.518698    30A     -0.503537
      31A     -0.485127    32A     -0.468063    33A     -0.459511
      34A     -0.434720    35A     -0.396540    36A     -0.331169

  @DF-RHF Final Energy:  -670.85233173805307

   => Energetics <=

    Nuclear Repulsion Energy =            468.2364778315310332
    One-Electron Energy =               -1848.0254010986336652
    Two-Electron Energy =                 708.9365915290496787
    Total Energy =                       -670.8523317380530671
  Basis Set: (AUG-CC-PVTZ AUX)
    Blend: AUG-CC-PVTZ-RI
    Molecular point group: c1

    Geometry (in Angstrom), charge = 0, multiplicity = 1:

       Center              X                  Y                   Z               Mass
    ------------   -----------------  -----------------  -----------------  -----------------
         S            0.959783259524    -1.758514399236     0.036524870920    31.972071174400
         C           -0.638888940476     0.068507800764    -0.214823529080    12.000000000000
         C            0.790279259524     0.051489600764     0.370634870920    12.000000000000
         C           -0.843514740476    -1.458330399236    -0.145438129080    12.000000000000
         C           -1.683206740476     0.923075600764     0.442732870920    12.000000000000
         C            1.852296259524     0.934900600764    -0.256242129080    12.000000000000
         C           -3.058134740476     0.776252600764    -0.205959129080    12.000000000000
         C            1.575532259524     2.423589600764    -0.050758129080    12.000000000000
         H           -0.543123740476     0.345811600764    -1.298490129080     1.007825032230
         H            0.745457259524     0.219404600764     1.454977870920     1.007825032230
         H           -1.386720740476    -1.746027399236     0.760437870920     1.007825032230
         H           -1.296533740476    -1.945563399236    -1.011588129080     1.007825032230
         H           -1.373082740476     1.974443600764     0.421923870920     1.007825032230
         H           -1.738380740476     0.635285600764     1.500896870920     1.007825032230
         H            2.828772259524     0.676873600764     0.172820870920     1.007825032230
         H            1.909647259524     0.704454600764    -1.326325129080     1.007825032230
         H           -3.024551740476     1.071356600764    -1.259377129080     1.007825032230
         H           -3.801944740476     1.402018600764     0.295527870920     1.007825032230
         H           -3.407341740476    -0.259678399236    -0.158195129080     1.007825032230
         H            0.651534259524     2.727194600764    -0.550594129080     1.007825032230
         H            2.388612259524     3.029812600764    -0.460802129080     1.007825032230
         H            1.480435259524     2.664151600764     1.012740870920     1.007825032230

  Basis Set: AUG-CC-PVTZ
    Blend: AUG-CC-PVTZ
  Basis Set: (AUG-CC-PVTZ AUX)
    Blend: AUG-CC-PVTZ-JKFIT
	 Reference Energy          =    -670.8523317380530671 [Eh]
	 Singles Energy            =      -0.0000000000000000 [Eh]
	 Same-Spin Energy          =      -0.3559671146354820 [Eh]
	 Opposite-Spin Energy      =      -1.2393977457564782 [Eh]
	 Correlation Energy        =      -1.5953648603919603 [Eh]
	 Total Energy              =    -672.4476965984450771 [Eh]

	 ================> DF-SCS-MP2 Energies <==================
	-----------------------------------------------------------
	 SCS Same-Spin Scale       =       0.3333333333333333 [-]
	 SCS Opposite-Spin Scale   =       1.2000000000000000 [-]
	 SCS Same-Spin Energy      =      -0.1186557048784940 [Eh]
	 SCS Opposite-Spin Energy  =      -1.4872772949077737 [Eh]
	 SCS Correlation Energy    =      -1.6059329997862677 [Eh]
	 SCS Total Energy          =    -672.4582647378393858 [Eh]
	-----------------------------------------------------------

  Dipole Moment: [D]
     X:    -1.2813      Y:     1.7776      Z:     0.0569     Total:     2.1920

*** Psi4 exiting successfully. Buy a developer a beer!
