                               Psi4 1.3.2 release

  ==> Input File <==

--------------------------------------------------------------------------
#psi4
#
memory 32 gb

molecule  {
0 1
  S        1.0039920    -1.8370330     0.0416350
  C       -0.5844320    -0.0144930    -0.2342400
  C        0.8174005     0.0071082     0.4138124
  C       -0.7993060    -1.5368490    -0.1403280
  C       -1.6389980     0.8445570     0.4478430
  C        1.8965050     0.8563820    -0.2511320
  C       -3.0139260     0.6977340    -0.2008490
  C        1.6197410     2.3450710    -0.0456480
  H       -0.4989150     0.2672930    -1.2933800
  H        0.7896660     0.1408860     1.4600880
  H       -1.3425120    -1.8245460     0.7655480
  H       -1.2523250    -2.0240820    -1.0064780
  H       -1.3288740     1.8959250     0.4270340
  H       -1.6941720     0.5567670     1.5060070
  H        2.8729810     0.5983550     0.1779310
  H        1.9538560     0.6259360    -1.3212150
  H       -2.9803430     0.9928380    -1.2542670
  H       -3.7577360     1.3235000     0.3006380
  H       -3.3631330    -0.3381970    -0.1530850
  H        0.6957430     2.6486760    -0.5454840
  H        2.4328210     2.9512940    -0.4556920
  H        1.5246440     2.5856330     1.0178510
units angstrom
no_reorient  #important for SAPT in psi4, default
symmetry c1  #important for SAPT in psi4, default
}

set PROPERTIES_ORIGIN ["COM"]
properties('MP2/aug-cc-pvtz', properties = ['dipole'])
--------------------------------------------------------------------------

    Molecular point group: c1
  Charge       = 0
  Multiplicity = 1
  Basis Set: AUG-CC-PVTZ
    Blend: AUG-CC-PVTZ
  Basis Set: (AUG-CC-PVTZ AUX)
    Blend: AUG-CC-PVTZ-JKFIT

    Orbital Energies [Eh]
    ---------------------

    Doubly Occupied:

       1A    -91.933216     2A    -11.257365     3A    -11.251982
       4A    -11.239806     5A    -11.226838     6A    -11.226430
       7A    -11.219755     8A    -11.219312     9A     -8.933256
      10A     -6.614040    11A     -6.613641    12A     -6.612457
      13A     -1.145120    14A     -1.050502    15A     -1.024974
      16A     -0.918704    17A     -0.907300    18A     -0.830259
      19A     -0.805665    20A     -0.754653    21A     -0.649976
      22A     -0.633219    23A     -0.600527    24A     -0.597109
      25A     -0.573397    26A     -0.555106    27A     -0.539397
      28A     -0.531935    29A     -0.518921    30A     -0.501376
      31A     -0.488851    32A     -0.475089    33A     -0.457411
      34A     -0.432962    35A     -0.388048    36A     -0.330507

  @DF-RHF Final Energy:  -670.85132728798567

   => Energetics <=

    Nuclear Repulsion Energy =            467.6939478217087753
    One-Electron Energy =               -1846.9723356834447259
    Two-Electron Energy =                 708.4270605737503956
    Total Energy =                       -670.8513272879856686
  Basis Set: (AUG-CC-PVTZ AUX)
    Blend: AUG-CC-PVTZ-RI
    Molecular point group: c1

    Geometry (in Angstrom), charge = 0, multiplicity = 1:

       Center              X                  Y                   Z               Mass
    ------------   -----------------  -----------------  -----------------  -----------------
         S            0.960414183393    -1.761250066239     0.035275735200    31.972071174400
         C           -0.628009816607     0.061289933761    -0.240599264800    12.000000000000
         C            0.773822683393     0.082891133761     0.407453135200    12.000000000000
         C           -0.842883816607    -1.461066066239    -0.146687264800    12.000000000000
         C           -1.682575816607     0.920339933761     0.441483735200    12.000000000000
         C            1.852927183393     0.932164933761    -0.257491264800    12.000000000000
         C           -3.057503816607     0.773516933761    -0.207208264800    12.000000000000
         C            1.576163183393     2.420853933761    -0.052007264800    12.000000000000
         H           -0.542492816607     0.343075933761    -1.299739264800     1.007825032230
         H            0.746088183393     0.216668933761     1.453728735200     1.007825032230
         H           -1.386089816607    -1.748763066239     0.759188735200     1.007825032230
         H           -1.295902816607    -1.948299066239    -1.012837264800     1.007825032230
         H           -1.372451816607     1.971707933761     0.420674735200     1.007825032230
         H           -1.737749816607     0.632549933761     1.499647735200     1.007825032230
         H            2.829403183393     0.674137933761     0.171571735200     1.007825032230
         H            1.910278183393     0.701718933761    -1.327574264800     1.007825032230
         H           -3.023920816607     1.068620933761    -1.260626264800     1.007825032230
         H           -3.801313816607     1.399282933761     0.294278735200     1.007825032230
         H           -3.406710816607    -0.262414066239    -0.159444264800     1.007825032230
         H            0.652165183393     2.724458933761    -0.551843264800     1.007825032230
         H            2.389243183393     3.027076933761    -0.462051264800     1.007825032230
         H            1.481066183393     2.661415933761     1.011491735200     1.007825032230

  Basis Set: AUG-CC-PVTZ
    Blend: AUG-CC-PVTZ
  Basis Set: (AUG-CC-PVTZ AUX)
    Blend: AUG-CC-PVTZ-JKFIT
	 Reference Energy          =    -670.8513272879856686 [Eh]
	 Singles Energy            =      -0.0000000000000000 [Eh]
	 Same-Spin Energy          =      -0.3556010570560659 [Eh]
	 Opposite-Spin Energy      =      -1.2392186819078002 [Eh]
	 Correlation Energy        =      -1.5948197389638661 [Eh]
	 Total Energy              =    -672.4461470269495749 [Eh]

	 ================> DF-SCS-MP2 Energies <==================
	-----------------------------------------------------------
	 SCS Same-Spin Scale       =       0.3333333333333333 [-]
	 SCS Opposite-Spin Scale   =       1.2000000000000000 [-]
	 SCS Same-Spin Energy      =      -0.1185336856853553 [Eh]
	 SCS Opposite-Spin Energy  =      -1.4870624182893601 [Eh]
	 SCS Correlation Energy    =      -1.6055961039747155 [Eh]
	 SCS Total Energy          =    -672.4569233919603448 [Eh]
	-----------------------------------------------------------

  Dipole Moment: [D]
     X:    -1.2570      Y:     1.8405      Z:     0.0556     Total:     2.2294

*** Psi4 exiting successfully. Buy a developer a beer!
