                               Psi4 1.3.2 release

  ==> Input File <==

--------------------------------------------------------------------------
#psi4
#
memory 32 gb

molecule  {
0 1
  S        1.0039920    -1.8370330     0.0416350
  C       -0.5844320    -0.0144930    -0.2342400
  C        0.9112130    -0.0723203     0.4329597
  C       -0.7993060    -1.5368490    -0.1403280
  C       -1.6389980     0.8445570     0.4478430
  C        1.8965050     0.8563820    -0.2511320
  C       -3.0139260     0.6977340    -0.2008490
  C        1.6197410     2.3450710    -0.0456480
  H       -0.4989150     0.2672930    -1.2933800
  H        0.7896660     0.1408860     1.4600880
  H       -1.3425120    -1.8245460     0.7655480
  H       -1.2523250    -2.0240820    -1.0064780
  H       -1.3288740     1.8959250     0.4270340
  H       -1.6941720     0.5567670     1.5060070
  H        2.8729810     0.5983550     0.1779310
  H        1.9538560     0.6259360    -1.3212150
  H       -2.9803430     0.9928380    -1.2542670
  H       -3.7577360     1.3235000     0.3006380
  H       -3.3631330    -0.3381970    -0.1530850
  H        0.6957430     2.6486760    -0.5454840
  H        2.4328210     2.9512940    -0.4556920
  H        1.5246440     2.5856330     1.0178510
units angstrom
no_reorient  #important for SAPT in psi4, default
symmetry c1  #important for SAPT in psi4, default
}

set PROPERTIES_ORIGIN ["COM"]
properties('MP2/aug-cc-pvtz', properties = ['dipole'])
--------------------------------------------------------------------------

    Molecular point group: c1
  Charge       = 0
  Multiplicity = 1
  Basis Set: AUG-CC-PVTZ
    Blend: AUG-CC-PVTZ
  Basis Set: (AUG-CC-PVTZ AUX)
    Blend: AUG-CC-PVTZ-JKFIT

    Orbital Energies [Eh]
    ---------------------

    Doubly Occupied:

       1A    -91.937562     2A    -11.254483     3A    -11.252564
       4A    -11.241241     5A    -11.226170     6A    -11.224628
       7A    -11.219890     8A    -11.219758     9A     -8.938113
      10A     -6.618973    11A     -6.618647    12A     -6.617396
      13A     -1.140201    14A     -1.050632    15A     -1.026006
      16A     -0.921041    17A     -0.905394    18A     -0.834953
      19A     -0.799237    20A     -0.752081    21A     -0.646048
      22A     -0.628697    23A     -0.598778    24A     -0.595591
      25A     -0.573339    26A     -0.560244    27A     -0.538985
      28A     -0.528936    29A     -0.514924    30A     -0.500980
      31A     -0.489066    32A     -0.473477    33A     -0.463990
      34A     -0.429583    35A     -0.387948    36A     -0.332225

  @DF-RHF Final Energy:  -670.84578776785645

   => Energetics <=

    Nuclear Repulsion Energy =            467.3773816437400797
    One-Electron Energy =               -1846.3227808464068858
    Two-Electron Energy =                 708.0996114348102992
    Total Energy =                       -670.8457877678564500
  Basis Set: (AUG-CC-PVTZ AUX)
    Blend: AUG-CC-PVTZ-RI
    Molecular point group: c1

    Geometry (in Angstrom), charge = 0, multiplicity = 1:

       Center              X                  Y                   Z               Mass
    ------------   -----------------  -----------------  -----------------  -----------------
         S            0.951760001611    -1.753922805185     0.033509401132    31.972071174400
         C           -0.636663998389     0.068617194815    -0.242365598868    12.000000000000
         C            0.858981001611     0.010789894815     0.424834101132    12.000000000000
         C           -0.851537998389    -1.453738805185    -0.148453598868    12.000000000000
         C           -1.691229998389     0.927667194815     0.439717401132    12.000000000000
         C            1.844273001611     0.939492194815    -0.259257598868    12.000000000000
         C           -3.066157998389     0.780844194815    -0.208974598868    12.000000000000
         C            1.567509001611     2.428181194815    -0.053773598868    12.000000000000
         H           -0.551146998389     0.350403194815    -1.301505598868     1.007825032230
         H            0.737434001611     0.223996194815     1.451962401132     1.007825032230
         H           -1.394743998389    -1.741435805185     0.757422401132     1.007825032230
         H           -1.304556998389    -1.940971805185    -1.014603598868     1.007825032230
         H           -1.381105998389     1.979035194815     0.418908401132     1.007825032230
         H           -1.746403998389     0.639877194815     1.497881401132     1.007825032230
         H            2.820749001611     0.681465194815     0.169805401132     1.007825032230
         H            1.901624001611     0.709046194815    -1.329340598868     1.007825032230
         H           -3.032574998389     1.075948194815    -1.262392598868     1.007825032230
         H           -3.809967998389     1.406610194815     0.292512401132     1.007825032230
         H           -3.415364998389    -0.255086805185    -0.161210598868     1.007825032230
         H            0.643511001611     2.731786194815    -0.553609598868     1.007825032230
         H            2.380589001611     3.034404194815    -0.463817598868     1.007825032230
         H            1.472412001611     2.668743194815     1.009725401132     1.007825032230

  Basis Set: AUG-CC-PVTZ
    Blend: AUG-CC-PVTZ
  Basis Set: (AUG-CC-PVTZ AUX)
    Blend: AUG-CC-PVTZ-JKFIT
	 Reference Energy          =    -670.8457877678564500 [Eh]
	 Singles Energy            =      -0.0000000000000000 [Eh]
	 Same-Spin Energy          =      -0.3556475535156173 [Eh]
	 Opposite-Spin Energy      =      -1.2393645505313098 [Eh]
	 Correlation Energy        =      -1.5950121040469272 [Eh]
	 Total Energy              =    -672.4407998719033230 [Eh]

	 ================> DF-SCS-MP2 Energies <==================
	-----------------------------------------------------------
	 SCS Same-Spin Scale       =       0.3333333333333333 [-]
	 SCS Opposite-Spin Scale   =       1.2000000000000000 [-]
	 SCS Same-Spin Energy      =      -0.1185491845052058 [Eh]
	 SCS Opposite-Spin Energy  =      -1.4872374606375718 [Eh]
	 SCS Correlation Energy    =      -1.6057866451427776 [Eh]
	 SCS Total Energy          =    -672.4515744129992072 [Eh]
	-----------------------------------------------------------

  Dipole Moment: [D]
     X:    -1.2956      Y:     1.7476      Z:     0.0484     Total:     2.1760

*** Psi4 exiting successfully. Buy a developer a beer!
