                               Psi4 1.3.2 release

  ==> Input File <==

--------------------------------------------------------------------------
#psi4
#
memory 32 gb

molecule  {
0 1
  S        1.0039920    -1.8370330     0.0416350
  C       -0.6997689    -0.0631140    -0.3327309
  C        0.8344880    -0.0270290     0.3757450
  C       -0.7993060    -1.5368490    -0.1403280
  C       -1.6389980     0.8445570     0.4478430
  C        1.8965050     0.8563820    -0.2511320
  C       -3.0139260     0.6977340    -0.2008490
  C        1.6197410     2.3450710    -0.0456480
  H       -0.4989150     0.2672930    -1.2933800
  H        0.7896660     0.1408860     1.4600880
  H       -1.3425120    -1.8245460     0.7655480
  H       -1.2523250    -2.0240820    -1.0064780
  H       -1.3288740     1.8959250     0.4270340
  H       -1.6941720     0.5567670     1.5060070
  H        2.8729810     0.5983550     0.1779310
  H        1.9538560     0.6259360    -1.3212150
  H       -2.9803430     0.9928380    -1.2542670
  H       -3.7577360     1.3235000     0.3006380
  H       -3.3631330    -0.3381970    -0.1530850
  H        0.6957430     2.6486760    -0.5454840
  H        2.4328210     2.9512940    -0.4556920
  H        1.5246440     2.5856330     1.0178510
units angstrom
no_reorient  #important for SAPT in psi4, default
symmetry c1  #important for SAPT in psi4, default
}

set PROPERTIES_ORIGIN ["COM"]
properties('MP2/aug-cc-pvtz', properties = ['dipole'])
--------------------------------------------------------------------------

    Molecular point group: c1
  Charge       = 0
  Multiplicity = 1
  Basis Set: AUG-CC-PVTZ
    Blend: AUG-CC-PVTZ
  Basis Set: (AUG-CC-PVTZ AUX)
    Blend: AUG-CC-PVTZ-JKFIT

    Orbital Energies [Eh]
    ---------------------

    Doubly Occupied:

       1A    -91.934613     2A    -11.259078     3A    -11.252794
       4A    -11.239070     5A    -11.228025     6A    -11.224819
       7A    -11.218989     8A    -11.217710     9A     -8.934916
      10A     -6.615763    11A     -6.615344    12A     -6.614158
      13A     -1.139528    14A     -1.052449    15A     -1.026733
      16A     -0.919612    17A     -0.903421    18A     -0.835921
      19A     -0.800465    20A     -0.750915    21A     -0.650754
      22A     -0.629945    23A     -0.606242    24A     -0.596545
      25A     -0.570093    26A     -0.553456    27A     -0.546853
      28A     -0.526312    29A     -0.514775    30A     -0.502077
      31A     -0.487416    32A     -0.482743    33A     -0.463008
      34A     -0.427462    35A     -0.376337    36A     -0.329501

  @DF-RHF Final Energy:  -670.83327850844080

   => Energetics <=

    Nuclear Repulsion Energy =            466.8885952653450317
    One-Electron Energy =               -1845.3480640710527041
    Two-Electron Energy =                 707.6261902972669304
    Total Energy =                       -670.8332785084407988
  Basis Set: (AUG-CC-PVTZ AUX)
    Blend: AUG-CC-PVTZ-RI
    Molecular point group: c1

    Geometry (in Angstrom), charge = 0, multiplicity = 1:

       Center              X                  Y                   Z               Mass
    ------------   -----------------  -----------------  -----------------  -----------------
         S            0.969477668190    -1.753615641117     0.047873207307    31.972071174400
         C           -0.734283231810     0.020303358883    -0.326492692693    12.000000000000
         C            0.799973668190     0.056388358883     0.381983207307    12.000000000000
         C           -0.833820331810    -1.453431641117    -0.134089792693    12.000000000000
         C           -1.673512331810     0.927974358883     0.454081207307    12.000000000000
         C            1.861990668190     0.939799358883    -0.244893792693    12.000000000000
         C           -3.048440331810     0.781151358883    -0.194610792693    12.000000000000
         C            1.585226668190     2.428488358883    -0.039409792693    12.000000000000
         H           -0.533429331810     0.350710358883    -1.287141792693     1.007825032230
         H            0.755151668190     0.224303358883     1.466326207307     1.007825032230
         H           -1.377026331810    -1.741128641117     0.771786207307     1.007825032230
         H           -1.286839331810    -1.940664641117    -1.000239792693     1.007825032230
         H           -1.363388331810     1.979342358883     0.433272207307     1.007825032230
         H           -1.728686331810     0.640184358883     1.512245207307     1.007825032230
         H            2.838466668190     0.681772358883     0.184169207307     1.007825032230
         H            1.919341668190     0.709353358883    -1.314976792693     1.007825032230
         H           -3.014857331810     1.076255358883    -1.248028792693     1.007825032230
         H           -3.792250331810     1.406917358883     0.306876207307     1.007825032230
         H           -3.397647331810    -0.254779641117    -0.146846792693     1.007825032230
         H            0.661228668190     2.732093358883    -0.539245792693     1.007825032230
         H            2.398306668190     3.034711358883    -0.449453792693     1.007825032230
         H            1.490129668190     2.669050358883     1.024089207307     1.007825032230

  Basis Set: AUG-CC-PVTZ
    Blend: AUG-CC-PVTZ
  Basis Set: (AUG-CC-PVTZ AUX)
    Blend: AUG-CC-PVTZ-JKFIT
	 Reference Energy          =    -670.8332785084407988 [Eh]
	 Singles Energy            =      -0.0000000000000000 [Eh]
	 Same-Spin Energy          =      -0.3563163852081137 [Eh]
	 Opposite-Spin Energy      =      -1.2408457740761238 [Eh]
	 Correlation Energy        =      -1.5971621592842375 [Eh]
	 Total Energy              =    -672.4304406677250654 [Eh]

	 ================> DF-SCS-MP2 Energies <==================
	-----------------------------------------------------------
	 SCS Same-Spin Scale       =       0.3333333333333333 [-]
	 SCS Opposite-Spin Scale   =       1.2000000000000000 [-]
	 SCS Same-Spin Energy      =      -0.1187721284027046 [Eh]
	 SCS Opposite-Spin Energy  =      -1.4890149288913486 [Eh]
	 SCS Correlation Energy    =      -1.6077870572940531 [Eh]
	 SCS Total Energy          =    -672.4410655657349025 [Eh]
	-----------------------------------------------------------

  Dipole Moment: [D]
     X:    -1.2459      Y:     1.8214      Z:     0.0550     Total:     2.2075

*** Psi4 exiting successfully. Buy a developer a beer!
