                               Psi4 1.3.2 release

  ==> Input File <==

--------------------------------------------------------------------------
#psi4
#
memory 32 gb

molecule  {
0 1
  S        1.0039920    -1.8370330     0.0416350
  C       -0.5844320    -0.0144930    -0.2342400
  C        0.8344880    -0.0270290     0.3757450
  C       -0.7993060    -1.5368490    -0.1403280
  C       -1.6293963     0.8186754     0.4932170
  C        1.8965050     0.8563820    -0.2511320
  C       -3.0139260     0.6977340    -0.2008490
  C        1.6197410     2.3450710    -0.0456480
  H       -0.4989150     0.2672930    -1.2933800
  H        0.7896660     0.1408860     1.4600880
  H       -1.3425120    -1.8245460     0.7655480
  H       -1.2523250    -2.0240820    -1.0064780
  H       -1.3288740     1.8959250     0.4270340
  H       -1.6941720     0.5567670     1.5060070
  H        2.8729810     0.5983550     0.1779310
  H        1.9538560     0.6259360    -1.3212150
  H       -2.9803430     0.9928380    -1.2542670
  H       -3.7577360     1.3235000     0.3006380
  H       -3.3631330    -0.3381970    -0.1530850
  H        0.6957430     2.6486760    -0.5454840
  H        2.4328210     2.9512940    -0.4556920
  H        1.5246440     2.5856330     1.0178510
units angstrom
no_reorient  #important for SAPT in psi4, default
symmetry c1  #important for SAPT in psi4, default
}

set PROPERTIES_ORIGIN ["COM"]
properties('MP2/aug-cc-pvtz', properties = ['dipole'])
--------------------------------------------------------------------------

    Molecular point group: c1
  Charge       = 0
  Multiplicity = 1
  Basis Set: AUG-CC-PVTZ
    Blend: AUG-CC-PVTZ
  Basis Set: (AUG-CC-PVTZ AUX)
    Blend: AUG-CC-PVTZ-JKFIT

    Orbital Energies [Eh]
    ---------------------

    Doubly Occupied:

       1A    -91.934596     2A    -11.256604     3A    -11.252252
       4A    -11.239070     5A    -11.226005     6A    -11.225364
       7A    -11.220903     8A    -11.219265     9A     -8.935033
      10A     -6.615836    11A     -6.615492    12A     -6.614258
      13A     -1.147748    14A     -1.049221    15A     -1.024120
      16A     -0.917648    17A     -0.908198    18A     -0.833015
      19A     -0.808682    20A     -0.747149    21A     -0.649101
      22A     -0.632634    23A     -0.601740    24A     -0.596617
      25A     -0.570276    26A     -0.554524    27A     -0.537776
      28A     -0.529417    29A     -0.516853    30A     -0.503124
      31A     -0.489966    32A     -0.478196    33A     -0.455794
      34A     -0.433699    35A     -0.391735    36A     -0.330943

  @DF-RHF Final Energy:  -670.85056970998164

   => Energetics <=

    Nuclear Repulsion Energy =            468.1298930885510003
    One-Electron Energy =               -1847.8352142554458624
    Two-Electron Energy =                 708.8547514569132773
    Total Energy =                       -670.8505697099816416
  Basis Set: (AUG-CC-PVTZ AUX)
    Blend: AUG-CC-PVTZ-RI
    Molecular point group: c1

    Geometry (in Angstrom), charge = 0, multiplicity = 1:

       Center              X                  Y                   Z               Mass
    ------------   -----------------  -----------------  -----------------  -----------------
         S            0.957952110765    -1.755713345594     0.034601703013    31.972071174400
         C           -0.630471889235     0.066826654406    -0.241273296987    12.000000000000
         C            0.788448110765     0.054290654406     0.368711703013    12.000000000000
         C           -0.845345889235    -1.455529345594    -0.147361296987    12.000000000000
         C           -1.675436189235     0.899995054406     0.486183703013    12.000000000000
         C            1.850465110765     0.937701654406    -0.258165296987    12.000000000000
         C           -3.059965889235     0.779053654406    -0.207882296987    12.000000000000
         C            1.573701110765     2.426390654406    -0.052681296987    12.000000000000
         H           -0.544954889235     0.348612654406    -1.300413296987     1.007825032230
         H            0.743626110765     0.222205654406     1.453054703013     1.007825032230
         H           -1.388551889235    -1.743226345594     0.758514703013     1.007825032230
         H           -1.298364889235    -1.942762345594    -1.013511296987     1.007825032230
         H           -1.374913889235     1.977244654406     0.420000703013     1.007825032230
         H           -1.740211889235     0.638086654406     1.498973703013     1.007825032230
         H            2.826941110765     0.679674654406     0.170897703013     1.007825032230
         H            1.907816110765     0.707255654406    -1.328248296987     1.007825032230
         H           -3.026382889235     1.074157654406    -1.261300296987     1.007825032230
         H           -3.803775889235     1.404819654406     0.293604703013     1.007825032230
         H           -3.409172889235    -0.256877345594    -0.160118296987     1.007825032230
         H            0.649703110765     2.729995654406    -0.552517296987     1.007825032230
         H            2.386781110765     3.032613654406    -0.462725296987     1.007825032230
         H            1.478604110765     2.666952654406     1.010817703013     1.007825032230

  Basis Set: AUG-CC-PVTZ
    Blend: AUG-CC-PVTZ
  Basis Set: (AUG-CC-PVTZ AUX)
    Blend: AUG-CC-PVTZ-JKFIT
	 Reference Energy          =    -670.8505697099816416 [Eh]
	 Singles Energy            =      -0.0000000000000000 [Eh]
	 Same-Spin Energy          =      -0.3556884605268735 [Eh]
	 Opposite-Spin Energy      =      -1.2391860419449723 [Eh]
	 Correlation Energy        =      -1.5948745024718458 [Eh]
	 Total Energy              =    -672.4454442124534808 [Eh]

	 ================> DF-SCS-MP2 Energies <==================
	-----------------------------------------------------------
	 SCS Same-Spin Scale       =       0.3333333333333333 [-]
	 SCS Opposite-Spin Scale   =       1.2000000000000000 [-]
	 SCS Same-Spin Energy      =      -0.1185628201756245 [Eh]
	 SCS Opposite-Spin Energy  =      -1.4870232503339667 [Eh]
	 SCS Correlation Energy    =      -1.6055860705095912 [Eh]
	 SCS Total Energy          =    -672.4561557804912582 [Eh]
	-----------------------------------------------------------

  Dipole Moment: [D]
     X:    -1.2791      Y:     1.7675      Z:     0.0651     Total:     2.1827

*** Psi4 exiting successfully. Buy a developer a beer!
