                               Psi4 1.3.2 release

  ==> Input File <==

--------------------------------------------------------------------------
#psi4
#
memory 32 gb

molecule  {
0 1
  S        1.0039920    -1.8370330     0.0416350
  C       -0.5844320    -0.0144930    -0.2342400
  C        0.8344880    -0.0270290     0.3757450
  C       -0.7993060    -1.5368490    -0.1403280
  C       -1.6185214     0.7917786     0.5377047
  C        1.8965050     0.8563820    -0.2511320
  C       -3.0139260     0.6977340    -0.2008490
  C        1.6197410     2.3450710    -0.0456480
  H       -0.4989150     0.2672930    -1.2933800
  H        0.7896660     0.1408860     1.4600880
  H       -1.3425120    -1.8245460     0.7655480
  H       -1.2523250    -2.0240820    -1.0064780
  H       -1.3288740     1.8959250     0.4270340
  H       -1.6941720     0.5567670     1.5060070
  H        2.8729810     0.5983550     0.1779310
  H        1.9538560     0.6259360    -1.3212150
  H       -2.9803430     0.9928380    -1.2542670
  H       -3.7577360     1.3235000     0.3006380
  H       -3.3631330    -0.3381970    -0.1530850
  H        0.6957430     2.6486760    -0.5454840
  H        2.4328210     2.9512940    -0.4556920
  H        1.5246440     2.5856330     1.0178510
units angstrom
no_reorient  #important for SAPT in psi4, default
symmetry c1  #important for SAPT in psi4, default
}

set PROPERTIES_ORIGIN ["COM"]
properties('MP2/aug-cc-pvtz', properties = ['dipole'])
--------------------------------------------------------------------------

    Molecular point group: c1
  Charge       = 0
  Multiplicity = 1
  Basis Set: AUG-CC-PVTZ
    Blend: AUG-CC-PVTZ
  Basis Set: (AUG-CC-PVTZ AUX)
    Blend: AUG-CC-PVTZ-JKFIT

    Orbital Energies [Eh]
    ---------------------

    Doubly Occupied:

       1A    -91.934322     2A    -11.256158     3A    -11.251921
       4A    -11.239710     5A    -11.226006     6A    -11.225275
       7A    -11.222039     8A    -11.219008     9A     -8.934766
      10A     -6.615566    11A     -6.615228    12A     -6.613996
      13A     -1.148065    14A     -1.048203    15A     -1.021864
      16A     -0.917611    17A     -0.907253    18A     -0.834280
      19A     -0.812541    20A     -0.747551    21A     -0.648377
      22A     -0.634067    23A     -0.604747    24A     -0.593445
      25A     -0.569843    26A     -0.553660    27A     -0.537240
      28A     -0.529111    29A     -0.515497    30A     -0.505955
      31A     -0.493861    32A     -0.479926    33A     -0.451517
      34A     -0.431445    35A     -0.389246    36A     -0.330782

  @DF-RHF Final Energy:  -670.84053802804056

   => Energetics <=

    Nuclear Repulsion Energy =            468.1106416063410620
    One-Electron Energy =               -1847.7821955575093398
    Two-Electron Energy =                 708.8310159231277794
    Total Energy =                       -670.8405380280405552
  Basis Set: (AUG-CC-PVTZ AUX)
    Blend: AUG-CC-PVTZ-RI
    Molecular point group: c1

    Geometry (in Angstrom), charge = 0, multiplicity = 1:

       Center              X                  Y                   Z               Mass
    ------------   -----------------  -----------------  -----------------  -----------------
         S            0.956948903714    -1.753232121913     0.030497722809    31.972071174400
         C           -0.631475096286     0.069307878087    -0.245377277191    12.000000000000
         C            0.787444903714     0.056771878087     0.364607722809    12.000000000000
         C           -0.846349096286    -1.453048121913    -0.151465277191    12.000000000000
         C           -1.665564496286     0.875579478087     0.526567422809    12.000000000000
         C            1.849461903714     0.940182878087    -0.262269277191    12.000000000000
         C           -3.060969096286     0.781534878087    -0.211986277191    12.000000000000
         C            1.572697903714     2.428871878087    -0.056785277191    12.000000000000
         H           -0.545958096286     0.351093878087    -1.304517277191     1.007825032230
         H            0.742622903714     0.224686878087     1.448950722809     1.007825032230
         H           -1.389555096286    -1.740745121913     0.754410722809     1.007825032230
         H           -1.299368096286    -1.940281121913    -1.017615277191     1.007825032230
         H           -1.375917096286     1.979725878087     0.415896722809     1.007825032230
         H           -1.741215096286     0.640567878087     1.494869722809     1.007825032230
         H            2.825937903714     0.682155878087     0.166793722809     1.007825032230
         H            1.906812903714     0.709736878087    -1.332352277191     1.007825032230
         H           -3.027386096286     1.076638878087    -1.265404277191     1.007825032230
         H           -3.804779096286     1.407300878087     0.289500722809     1.007825032230
         H           -3.410176096286    -0.254396121913    -0.164222277191     1.007825032230
         H            0.648699903714     2.732476878087    -0.556621277191     1.007825032230
         H            2.385777903714     3.035094878087    -0.466829277191     1.007825032230
         H            1.477600903714     2.669433878087     1.006713722809     1.007825032230

  Basis Set: AUG-CC-PVTZ
    Blend: AUG-CC-PVTZ
  Basis Set: (AUG-CC-PVTZ AUX)
    Blend: AUG-CC-PVTZ-JKFIT
	 Reference Energy          =    -670.8405380280405552 [Eh]
	 Singles Energy            =      -0.0000000000000000 [Eh]
	 Same-Spin Energy          =      -0.3557334507734681 [Eh]
	 Opposite-Spin Energy      =      -1.2395871453734313 [Eh]
	 Correlation Energy        =      -1.5953205961468995 [Eh]
	 Total Energy              =    -672.4358586241874036 [Eh]

	 ================> DF-SCS-MP2 Energies <==================
	-----------------------------------------------------------
	 SCS Same-Spin Scale       =       0.3333333333333333 [-]
	 SCS Opposite-Spin Scale   =       1.2000000000000000 [-]
	 SCS Same-Spin Energy      =      -0.1185778169244893 [Eh]
	 SCS Opposite-Spin Energy  =      -1.4875045744481175 [Eh]
	 SCS Correlation Energy    =      -1.6060823913726068 [Eh]
	 SCS Total Energy          =    -672.4466204194131933 [Eh]
	-----------------------------------------------------------

  Dipole Moment: [D]
     X:    -1.2827      Y:     1.7554      Z:     0.0762     Total:     2.1754

*** Psi4 exiting successfully. Buy a developer a beer!
