                               Psi4 1.3.2 release

  ==> Input File <==

--------------------------------------------------------------------------
#psi4
#
memory 32 gb

molecule  {
0 1
  S        1.0039920    -1.8370330     0.0416350
  C       -0.5844320    -0.0144930    -0.2342400
  C        0.7854077     0.0611202     0.4078759
  C       -0.7993060    -1.5368490    -0.1403280
  C       -1.6389980     0.8445570     0.4478430
  C        1.8965050     0.8563820    -0.2511320
  C       -3.0139260     0.6977340    -0.2008490
  C        1.6197410     2.3450710    -0.0456480
  H       -0.4989150     0.2672930    -1.2933800
  H        0.7896660     0.1408860     1.4600880
  H       -1.3425120    -1.8245460     0.7655480
  H       -1.2523250    -2.0240820    -1.0064780
  H       -1.3288740     1.8959250     0.4270340
  H       -1.6941720     0.5567670     1.5060070
  H        2.8729810     0.5983550     0.1779310
  H        1.9538560     0.6259360    -1.3212150
  H       -2.9803430     0.9928380    -1.2542670
  H       -3.7577360     1.3235000     0.3006380
  H       -3.3631330    -0.3381970    -0.1530850
  H        0.6957430     2.6486760    -0.5454840
  H        2.4328210     2.9512940    -0.4556920
  H        1.5246440     2.5856330     1.0178510
units angstrom
no_reorient  #important for SAPT in psi4, default
symmetry c1  #important for SAPT in psi4, default
}

set PROPERTIES_ORIGIN ["COM"]
properties('MP2/aug-cc-pvtz', properties = ['dipole'])
--------------------------------------------------------------------------

    Molecular point group: c1
  Charge       = 0
  Multiplicity = 1
  Basis Set: AUG-CC-PVTZ
    Blend: AUG-CC-PVTZ
  Basis Set: (AUG-CC-PVTZ AUX)
    Blend: AUG-CC-PVTZ-JKFIT

    Orbital Energies [Eh]
    ---------------------

    Doubly Occupied:

       1A    -91.929957     2A    -11.261228     3A    -11.251510
       4A    -11.240185     5A    -11.228528     6A    -11.226708
       7A    -11.219813     8A    -11.219767     9A     -8.929745
      10A     -6.610509    11A     -6.610034    12A     -6.608901
      13A     -1.146740    14A     -1.052646    15A     -1.024227
      16A     -0.921351    17A     -0.905334    18A     -0.828345
      19A     -0.808184    20A     -0.756491    21A     -0.652565
      22A     -0.635677    23A     -0.601807    24A     -0.598078
      25A     -0.574618    26A     -0.554540    27A     -0.540012
      28A     -0.532915    29A     -0.521423    30A     -0.501563
      31A     -0.490538    32A     -0.476626    33A     -0.459477
      34A     -0.432969    35A     -0.377548    36A     -0.328532

  @DF-RHF Final Energy:  -670.84629081732055

   => Energetics <=

    Nuclear Repulsion Energy =            467.6232196072284069
    One-Electron Energy =               -1846.8208385571406325
    Two-Electron Energy =                 708.3513281325917887
    Total Energy =                       -670.8462908173205506
  Basis Set: (AUG-CC-PVTZ AUX)
    Blend: AUG-CC-PVTZ-RI
    Molecular point group: c1

    Geometry (in Angstrom), charge = 0, multiplicity = 1:

       Center              X                  Y                   Z               Mass
    ------------   -----------------  -----------------  -----------------  -----------------
         S            0.963365511914    -1.766232660951     0.035823375975    31.972071174400
         C           -0.625058488086     0.056307339049    -0.240051624025    12.000000000000
         C            0.744781211914     0.131920539049     0.402064275975    12.000000000000
         C           -0.839932488086    -1.466048660951    -0.146139624025    12.000000000000
         C           -1.679624488086     0.915357339049     0.442031375975    12.000000000000
         C            1.855878511914     0.927182339049    -0.256943624025    12.000000000000
         C           -3.054552488086     0.768534339049    -0.206660624025    12.000000000000
         C            1.579114511914     2.415871339049    -0.051459624025    12.000000000000
         H           -0.539541488086     0.338093339049    -1.299191624025     1.007825032230
         H            0.749039511914     0.211686339049     1.454276375975     1.007825032230
         H           -1.383138488086    -1.753745660951     0.759736375975     1.007825032230
         H           -1.292951488086    -1.953281660951    -1.012289624025     1.007825032230
         H           -1.369500488086     1.966725339049     0.421222375975     1.007825032230
         H           -1.734798488086     0.627567339049     1.500195375975     1.007825032230
         H            2.832354511914     0.669155339049     0.172119375975     1.007825032230
         H            1.913229511914     0.696736339049    -1.327026624025     1.007825032230
         H           -3.020969488086     1.063638339049    -1.260078624025     1.007825032230
         H           -3.798362488086     1.394300339049     0.294826375975     1.007825032230
         H           -3.403759488086    -0.267396660951    -0.158896624025     1.007825032230
         H            0.655116511914     2.719476339049    -0.551295624025     1.007825032230
         H            2.392194511914     3.022094339049    -0.461503624025     1.007825032230
         H            1.484017511914     2.656433339049     1.012039375975     1.007825032230

  Basis Set: AUG-CC-PVTZ
    Blend: AUG-CC-PVTZ
  Basis Set: (AUG-CC-PVTZ AUX)
    Blend: AUG-CC-PVTZ-JKFIT
	 Reference Energy          =    -670.8462908173205506 [Eh]
	 Singles Energy            =      -0.0000000000000000 [Eh]
	 Same-Spin Energy          =      -0.3559906455010241 [Eh]
	 Opposite-Spin Energy      =      -1.2399555010926566 [Eh]
	 Correlation Energy        =      -1.5959461465936808 [Eh]
	 Total Energy              =    -672.4422369639141834 [Eh]

	 ================> DF-SCS-MP2 Energies <==================
	-----------------------------------------------------------
	 SCS Same-Spin Scale       =       0.3333333333333333 [-]
	 SCS Opposite-Spin Scale   =       1.2000000000000000 [-]
	 SCS Same-Spin Energy      =      -0.1186635485003414 [Eh]
	 SCS Opposite-Spin Energy  =      -1.4879466013111879 [Eh]
	 SCS Correlation Energy    =      -1.6066101498115293 [Eh]
	 SCS Total Energy          =    -672.4529009671321091 [Eh]
	-----------------------------------------------------------

  Dipole Moment: [D]
     X:    -1.2393      Y:     1.9329      Z:     0.0528     Total:     2.2967

*** Psi4 exiting successfully. Buy a developer a beer!
