                               Psi4 1.3.2 release

  ==> Input File <==

--------------------------------------------------------------------------
#psi4
#
memory 32 gb

molecule  {
0 1
  S        1.0039920    -1.8370330     0.0416350
  C       -0.5844320    -0.0144930    -0.2342400
  C        0.8887423    -0.1108743     0.3405600
  C       -0.7993060    -1.5368490    -0.1403280
  C       -1.6389980     0.8445570     0.4478430
  C        1.8965050     0.8563820    -0.2511320
  C       -3.0139260     0.6977340    -0.2008490
  C        1.6197410     2.3450710    -0.0456480
  H       -0.4989150     0.2672930    -1.2933800
  H        0.7896660     0.1408860     1.4600880
  H       -1.3425120    -1.8245460     0.7655480
  H       -1.2523250    -2.0240820    -1.0064780
  H       -1.3288740     1.8959250     0.4270340
  H       -1.6941720     0.5567670     1.5060070
  H        2.8729810     0.5983550     0.1779310
  H        1.9538560     0.6259360    -1.3212150
  H       -2.9803430     0.9928380    -1.2542670
  H       -3.7577360     1.3235000     0.3006380
  H       -3.3631330    -0.3381970    -0.1530850
  H        0.6957430     2.6486760    -0.5454840
  H        2.4328210     2.9512940    -0.4556920
  H        1.5246440     2.5856330     1.0178510
units angstrom
no_reorient  #important for SAPT in psi4, default
symmetry c1  #important for SAPT in psi4, default
}

set PROPERTIES_ORIGIN ["COM"]
properties('MP2/aug-cc-pvtz', properties = ['dipole'])
--------------------------------------------------------------------------

    Molecular point group: c1
  Charge       = 0
  Multiplicity = 1
  Basis Set: AUG-CC-PVTZ
    Blend: AUG-CC-PVTZ
  Basis Set: (AUG-CC-PVTZ AUX)
    Blend: AUG-CC-PVTZ-JKFIT

    Orbital Energies [Eh]
    ---------------------

    Doubly Occupied:

       1A    -91.937917     2A    -11.257016     3A    -11.253954
       4A    -11.239038     5A    -11.227362     6A    -11.224151
       7A    -11.220685     8A    -11.220259     9A     -8.939521
      10A     -6.620476    11A     -6.620073    12A     -6.618768
      13A     -1.150341    14A     -1.050547    15A     -1.028795
      16A     -0.921359    17A     -0.908650    18A     -0.837875
      19A     -0.802885    20A     -0.736301    21A     -0.647819
      22A     -0.630044    23A     -0.601257    24A     -0.597316
      25A     -0.572921    26A     -0.554382    27A     -0.540800
      28A     -0.527434    29A     -0.516935    30A     -0.502780
      31A     -0.480304    32A     -0.470352    33A     -0.467373
      34A     -0.433064    35A     -0.398644    36A     -0.330629

  @DF-RHF Final Energy:  -670.84438824664835

   => Energetics <=

    Nuclear Repulsion Energy =            468.6635857179484219
    One-Electron Energy =               -1848.8398990454916202
    Two-Electron Energy =                 709.3319250808947345
    Total Energy =                       -670.8443882466483501
  Basis Set: (AUG-CC-PVTZ AUX)
    Blend: AUG-CC-PVTZ-RI
    Molecular point group: c1

    Geometry (in Angstrom), charge = 0, multiplicity = 1:

       Center              X                  Y                   Z               Mass
    ------------   -----------------  -----------------  -----------------  -----------------
         S            0.953832918574    -1.750366207456     0.042033252435    31.972071174400
         C           -0.634591081426     0.072173792544    -0.233841747565    12.000000000000
         C            0.838583218574    -0.024207507456     0.340958252435    12.000000000000
         C           -0.849465081426    -1.450182207456    -0.139929747565    12.000000000000
         C           -1.689157081426     0.931223792544     0.448241252435    12.000000000000
         C            1.846345918574     0.943048792544    -0.250733747565    12.000000000000
         C           -3.064085081426     0.784400792544    -0.200450747565    12.000000000000
         C            1.569581918574     2.431737792544    -0.045249747565    12.000000000000
         H           -0.549074081426     0.353959792544    -1.292981747565     1.007825032230
         H            0.739506918574     0.227552792544     1.460486252435     1.007825032230
         H           -1.392671081426    -1.737879207456     0.765946252435     1.007825032230
         H           -1.302484081426    -1.937415207456    -1.006079747565     1.007825032230
         H           -1.379033081426     1.982591792544     0.427432252435     1.007825032230
         H           -1.744331081426     0.643433792544     1.506405252435     1.007825032230
         H            2.822821918574     0.685021792544     0.178329252435     1.007825032230
         H            1.903696918574     0.712602792544    -1.320816747565     1.007825032230
         H           -3.030502081426     1.079504792544    -1.253868747565     1.007825032230
         H           -3.807895081426     1.410166792544     0.301036252435     1.007825032230
         H           -3.413292081426    -0.251530207456    -0.152686747565     1.007825032230
         H            0.645583918574     2.735342792544    -0.545085747565     1.007825032230
         H            2.382661918574     3.037960792544    -0.455293747565     1.007825032230
         H            1.474484918574     2.672299792544     1.018249252435     1.007825032230

  Basis Set: AUG-CC-PVTZ
    Blend: AUG-CC-PVTZ
  Basis Set: (AUG-CC-PVTZ AUX)
    Blend: AUG-CC-PVTZ-JKFIT
	 Reference Energy          =    -670.8443882466483501 [Eh]
	 Singles Energy            =      -0.0000000000000000 [Eh]
	 Same-Spin Energy          =      -0.3562802199718262 [Eh]
	 Opposite-Spin Energy      =      -1.2396916722847553 [Eh]
	 Correlation Energy        =      -1.5959718922565815 [Eh]
	 Total Energy              =    -672.4403601389049072 [Eh]

	 ================> DF-SCS-MP2 Energies <==================
	-----------------------------------------------------------
	 SCS Same-Spin Scale       =       0.3333333333333333 [-]
	 SCS Opposite-Spin Scale   =       1.2000000000000000 [-]
	 SCS Same-Spin Energy      =      -0.1187600733239421 [Eh]
	 SCS Opposite-Spin Energy  =      -1.4876300067417063 [Eh]
	 SCS Correlation Energy    =      -1.6063900800656483 [Eh]
	 SCS Total Energy          =    -672.4507783267140439 [Eh]
	-----------------------------------------------------------

  Dipole Moment: [D]
     X:    -1.3242      Y:     1.6452      Z:     0.0134     Total:     2.1119

*** Psi4 exiting successfully. Buy a developer a beer!
