                               Psi4 1.3.2 release

  ==> Input File <==

--------------------------------------------------------------------------
#psi4
#
memory 32 gb

molecule  {
0 1
  S        1.0039920    -1.8370330     0.0416350
  C       -0.5844320    -0.0144930    -0.2342400
  C        0.8531984    -0.0387643     0.3903462
  C       -0.7993060    -1.5368490    -0.1403280
  C       -1.6389980     0.8445570     0.4478430
  C        1.8965050     0.8563820    -0.2511320
  C       -3.0139260     0.6977340    -0.2008490
  C        1.6197410     2.3450710    -0.0456480
  H       -0.4989150     0.2672930    -1.2933800
  H        0.7896660     0.1408860     1.4600880
  H       -1.3425120    -1.8245460     0.7655480
  H       -1.2523250    -2.0240820    -1.0064780
  H       -1.3288740     1.8959250     0.4270340
  H       -1.6941720     0.5567670     1.5060070
  H        2.8729810     0.5983550     0.1779310
  H        1.9538560     0.6259360    -1.3212150
  H       -2.9803430     0.9928380    -1.2542670
  H       -3.7577360     1.3235000     0.3006380
  H       -3.3631330    -0.3381970    -0.1530850
  H        0.6957430     2.6486760    -0.5454840
  H        2.4328210     2.9512940    -0.4556920
  H        1.5246440     2.5856330     1.0178510
units angstrom
no_reorient  #important for SAPT in psi4, default
symmetry c1  #important for SAPT in psi4, default
}

set PROPERTIES_ORIGIN ["COM"]
properties('MP2/aug-cc-pvtz', properties = ['dipole'])
--------------------------------------------------------------------------

    Molecular point group: c1
  Charge       = 0
  Multiplicity = 1
  Basis Set: AUG-CC-PVTZ
    Blend: AUG-CC-PVTZ
  Basis Set: (AUG-CC-PVTZ AUX)
    Blend: AUG-CC-PVTZ-JKFIT

    Orbital Energies [Eh]
    ---------------------

    Doubly Occupied:

       1A    -91.935601     2A    -11.256180     3A    -11.252613
       4A    -11.239499     5A    -11.226617     6A    -11.225140
       7A    -11.220027     8A    -11.219555     9A     -8.936070
      10A     -6.616886    11A     -6.616550    12A     -6.615306
      13A     -1.145583    14A     -1.050601    15A     -1.026340
      16A     -0.918124    17A     -0.908609    18A     -0.833104
      19A     -0.803962    20A     -0.748124    21A     -0.648770
      22A     -0.631507    23A     -0.600471    24A     -0.596873
      25A     -0.571478    26A     -0.556662    27A     -0.539608
      28A     -0.529875    29A     -0.517753    30A     -0.501812
      31A     -0.485970    32A     -0.472614    33A     -0.459748
      34A     -0.433683    35A     -0.394070    36A     -0.331571

  @DF-RHF Final Energy:  -670.85313556140852

   => Energetics <=

    Nuclear Repulsion Energy =            467.9719816641585908
    One-Electron Energy =               -1847.5163220400004320
    Two-Electron Energy =                 708.6912048144332630
    Total Energy =                       -670.8531355614085214
  Basis Set: (AUG-CC-PVTZ AUX)
    Blend: AUG-CC-PVTZ-RI
    Molecular point group: c1

    Geometry (in Angstrom), charge = 0, multiplicity = 1:

       Center              X                  Y                   Z               Mass
    ------------   -----------------  -----------------  -----------------  -----------------
         S            0.957111835262    -1.757018338551     0.037440486812    31.972071174400
         C           -0.631312164738     0.065521661449    -0.238434513188    12.000000000000
         C            0.806318235262     0.041250361449     0.386151686812    12.000000000000
         C           -0.846186164738    -1.456834338551    -0.144522513188    12.000000000000
         C           -1.685878164738     0.924571661449     0.443648486812    12.000000000000
         C            1.849624835262     0.936396661449    -0.255326513188    12.000000000000
         C           -3.060806164738     0.777748661449    -0.205043513188    12.000000000000
         C            1.572860835262     2.425085661449    -0.049842513188    12.000000000000
         H           -0.545795164738     0.347307661449    -1.297574513188     1.007825032230
         H            0.742785835262     0.220900661449     1.455893486812     1.007825032230
         H           -1.389392164738    -1.744531338551     0.761353486812     1.007825032230
         H           -1.299205164738    -1.944067338551    -1.010672513188     1.007825032230
         H           -1.375754164738     1.975939661449     0.422839486812     1.007825032230
         H           -1.741052164738     0.636781661449     1.501812486812     1.007825032230
         H            2.826100835262     0.678369661449     0.173736486812     1.007825032230
         H            1.906975835262     0.705950661449    -1.325409513188     1.007825032230
         H           -3.027223164738     1.072852661449    -1.258461513188     1.007825032230
         H           -3.804616164738     1.403514661449     0.296443486812     1.007825032230
         H           -3.410013164738    -0.258182338551    -0.157279513188     1.007825032230
         H            0.648862835262     2.728690661449    -0.549678513188     1.007825032230
         H            2.385940835262     3.031308661449    -0.459886513188     1.007825032230
         H            1.477763835262     2.665647661449     1.013656486812     1.007825032230

  Basis Set: AUG-CC-PVTZ
    Blend: AUG-CC-PVTZ
  Basis Set: (AUG-CC-PVTZ AUX)
    Blend: AUG-CC-PVTZ-JKFIT
	 Reference Energy          =    -670.8531355614085214 [Eh]
	 Singles Energy            =      -0.0000000000000000 [Eh]
	 Same-Spin Energy          =      -0.3556611699681562 [Eh]
	 Opposite-Spin Energy      =      -1.2390457792130611 [Eh]
	 Correlation Energy        =      -1.5947069491812174 [Eh]
	 Total Energy              =    -672.4478425105897941 [Eh]

	 ================> DF-SCS-MP2 Energies <==================
	-----------------------------------------------------------
	 SCS Same-Spin Scale       =       0.3333333333333333 [-]
	 SCS Opposite-Spin Scale   =       1.2000000000000000 [-]
	 SCS Same-Spin Energy      =      -0.1185537233227187 [Eh]
	 SCS Opposite-Spin Energy  =      -1.4868549350556732 [Eh]
	 SCS Correlation Energy    =      -1.6054086583783920 [Eh]
	 SCS Total Energy          =    -672.4585442197868588 [Eh]
	-----------------------------------------------------------

  Dipole Moment: [D]
     X:    -1.2780      Y:     1.7668      Z:     0.0458     Total:     2.1811

*** Psi4 exiting successfully. Buy a developer a beer!
