                               Psi4 1.3.2 release

  ==> Input File <==

--------------------------------------------------------------------------
#psi4
#
memory 32 gb

molecule  {
0 1
  S        1.0039920    -1.8370330     0.0416350
  C       -0.5844320    -0.0144930    -0.2342400
  C        0.8092856     0.0165340     0.3922024
  C       -0.7993060    -1.5368490    -0.1403280
  C       -1.6389980     0.8445570     0.4478430
  C        1.8965050     0.8563820    -0.2511320
  C       -3.0139260     0.6977340    -0.2008490
  C        1.6197410     2.3450710    -0.0456480
  H       -0.4989150     0.2672930    -1.2933800
  H        0.7896660     0.1408860     1.4600880
  H       -1.3425120    -1.8245460     0.7655480
  H       -1.2523250    -2.0240820    -1.0064780
  H       -1.3288740     1.8959250     0.4270340
  H       -1.6941720     0.5567670     1.5060070
  H        2.8729810     0.5983550     0.1779310
  H        1.9538560     0.6259360    -1.3212150
  H       -2.9803430     0.9928380    -1.2542670
  H       -3.7577360     1.3235000     0.3006380
  H       -3.3631330    -0.3381970    -0.1530850
  H        0.6957430     2.6486760    -0.5454840
  H        2.4328210     2.9512940    -0.4556920
  H        1.5246440     2.5856330     1.0178510
units angstrom
no_reorient  #important for SAPT in psi4, default
symmetry c1  #important for SAPT in psi4, default
}

set PROPERTIES_ORIGIN ["COM"]
properties('MP2/aug-cc-pvtz', properties = ['dipole'])
--------------------------------------------------------------------------

    Molecular point group: c1
  Charge       = 0
  Multiplicity = 1
  Basis Set: AUG-CC-PVTZ
    Blend: AUG-CC-PVTZ
  Basis Set: (AUG-CC-PVTZ AUX)
    Blend: AUG-CC-PVTZ-JKFIT

    Orbital Energies [Eh]
    ---------------------

    Doubly Occupied:

       1A    -91.932708     2A    -11.258651     3A    -11.252087
       4A    -11.239343     5A    -11.226809     6A    -11.226687
       7A    -11.219889     8A    -11.219536     9A     -8.932756
      10A     -6.613538    11A     -6.613127    12A     -6.611947
      13A     -1.146983    14A     -1.051437    15A     -1.025337
      16A     -0.919114    17A     -0.907485    18A     -0.830239
      19A     -0.807040    20A     -0.751743    21A     -0.651121
      22A     -0.633902    23A     -0.601522    24A     -0.597480
      25A     -0.572215    26A     -0.555346    27A     -0.539752
      28A     -0.531643    29A     -0.519928    30A     -0.501815
      31A     -0.487878    32A     -0.474120    33A     -0.458526
      34A     -0.434686    35A     -0.386919    36A     -0.330183

  @DF-RHF Final Energy:  -670.85171947063566

   => Energetics <=

    Nuclear Repulsion Energy =            467.8955572354689139
    One-Electron Energy =               -1847.3675764132676704
    Two-Electron Energy =                 708.6202997071630989
    Total Energy =                       -670.8517194706356577
  Basis Set: (AUG-CC-PVTZ AUX)
    Blend: AUG-CC-PVTZ-RI
    Molecular point group: c1

    Geometry (in Angstrom), charge = 0, multiplicity = 1:

       Center              X                  Y                   Z               Mass
    ------------   -----------------  -----------------  -----------------  -----------------
         S            0.961162781072    -1.762119594145     0.037269252784    31.972071174400
         C           -0.627261218928     0.060420405855    -0.238605747216    12.000000000000
         C            0.766456381072     0.091447405855     0.387836652784    12.000000000000
         C           -0.842135218928    -1.461935594145    -0.144693747216    12.000000000000
         C           -1.681827218928     0.919470405855     0.443477252784    12.000000000000
         C            1.853675781072     0.931295405855    -0.255497747216    12.000000000000
         C           -3.056755218928     0.772647405855    -0.205214747216    12.000000000000
         C            1.576911781072     2.419984405855    -0.050013747216    12.000000000000
         H           -0.541744218928     0.342206405855    -1.297745747216     1.007825032230
         H            0.746836781072     0.215799405855     1.455722252784     1.007825032230
         H           -1.385341218928    -1.749632594145     0.761182252784     1.007825032230
         H           -1.295154218928    -1.949168594145    -1.010843747216     1.007825032230
         H           -1.371703218928     1.970838405855     0.422668252784     1.007825032230
         H           -1.737001218928     0.631680405855     1.501641252784     1.007825032230
         H            2.830151781072     0.673268405855     0.173565252784     1.007825032230
         H            1.911026781072     0.700849405855    -1.325580747216     1.007825032230
         H           -3.023172218928     1.067751405855    -1.258632747216     1.007825032230
         H           -3.800565218928     1.398413405855     0.296272252784     1.007825032230
         H           -3.405962218928    -0.263283594145    -0.157450747216     1.007825032230
         H            0.652913781072     2.723589405855    -0.549849747216     1.007825032230
         H            2.389991781072     3.026207405855    -0.460057747216     1.007825032230
         H            1.481814781072     2.660546405855     1.013485252784     1.007825032230

  Basis Set: AUG-CC-PVTZ
    Blend: AUG-CC-PVTZ
  Basis Set: (AUG-CC-PVTZ AUX)
    Blend: AUG-CC-PVTZ-JKFIT
	 Reference Energy          =    -670.8517194706356577 [Eh]
	 Singles Energy            =      -0.0000000000000000 [Eh]
	 Same-Spin Energy          =      -0.3557966501739124 [Eh]
	 Opposite-Spin Energy      =      -1.2393942138612242 [Eh]
	 Correlation Energy        =      -1.5951908640351367 [Eh]
	 Total Energy              =    -672.4469103346707470 [Eh]

	 ================> DF-SCS-MP2 Energies <==================
	-----------------------------------------------------------
	 SCS Same-Spin Scale       =       0.3333333333333333 [-]
	 SCS Opposite-Spin Scale   =       1.2000000000000000 [-]
	 SCS Same-Spin Energy      =      -0.1185988833913041 [Eh]
	 SCS Opposite-Spin Energy  =      -1.4872730566334689 [Eh]
	 SCS Correlation Energy    =      -1.6058719400247730 [Eh]
	 SCS Total Energy          =    -672.4575914106604841 [Eh]
	-----------------------------------------------------------

  Dipole Moment: [D]
     X:    -1.2548      Y:     1.8523      Z:     0.0500     Total:     2.2379

*** Psi4 exiting successfully. Buy a developer a beer!
