                               Psi4 1.3.2 release

  ==> Input File <==

--------------------------------------------------------------------------
#psi4
#
memory 32 gb

molecule  {
0 1
  S        1.0039920    -1.8370330     0.0416350
  C       -0.5844320    -0.0144930    -0.2342400
  C        0.8423847    -0.0440944     0.3564297
  C       -0.7993060    -1.5368490    -0.1403280
  C       -1.6389980     0.8445570     0.4478430
  C        1.8965050     0.8563820    -0.2511320
  C       -3.0139260     0.6977340    -0.2008490
  C        1.6197410     2.3450710    -0.0456480
  H       -0.4989150     0.2672930    -1.2933800
  H        0.7896660     0.1408860     1.4600880
  H       -1.3425120    -1.8245460     0.7655480
  H       -1.2523250    -2.0240820    -1.0064780
  H       -1.3288740     1.8959250     0.4270340
  H       -1.6941720     0.5567670     1.5060070
  H        2.8729810     0.5983550     0.1779310
  H        1.9538560     0.6259360    -1.3212150
  H       -2.9803430     0.9928380    -1.2542670
  H       -3.7577360     1.3235000     0.3006380
  H       -3.3631330    -0.3381970    -0.1530850
  H        0.6957430     2.6486760    -0.5454840
  H        2.4328210     2.9512940    -0.4556920
  H        1.5246440     2.5856330     1.0178510
units angstrom
no_reorient  #important for SAPT in psi4, default
symmetry c1  #important for SAPT in psi4, default
}

set PROPERTIES_ORIGIN ["COM"]
properties('MP2/aug-cc-pvtz', properties = ['dipole'])
--------------------------------------------------------------------------

    Molecular point group: c1
  Charge       = 0
  Multiplicity = 1
  Basis Set: AUG-CC-PVTZ
    Blend: AUG-CC-PVTZ
  Basis Set: (AUG-CC-PVTZ AUX)
    Blend: AUG-CC-PVTZ-JKFIT

    Orbital Energies [Eh]
    ---------------------

    Doubly Occupied:

       1A    -91.935702     2A    -11.257295     3A    -11.253056
       4A    -11.238544     5A    -11.227029     6A    -11.225011
       7A    -11.220273     8A    -11.219697     9A     -8.936365
      10A     -6.617187    11A     -6.616854    12A     -6.615590
      13A     -1.149093    14A     -1.050796    15A     -1.027255
      16A     -0.917718    17A     -0.910216    18A     -0.833728
      19A     -0.805925    20A     -0.742830    21A     -0.649842
      22A     -0.632023    23A     -0.601815    24A     -0.597260
      25A     -0.570592    26A     -0.555630    27A     -0.540179
      28A     -0.529200    29A     -0.518666    30A     -0.502485
      31A     -0.483411    32A     -0.469979    33A     -0.461122
      34A     -0.435743    35A     -0.396849    36A     -0.331155

  @DF-RHF Final Energy:  -670.85262288914146

   => Energetics <=

    Nuclear Repulsion Energy =            468.3931936223666526
    One-Electron Energy =               -1848.3394073929116530
    Two-Electron Energy =                 709.0935908814035429
    Total Energy =                       -670.8526228891414576
  Basis Set: (AUG-CC-PVTZ AUX)
    Blend: AUG-CC-PVTZ-RI
    Molecular point group: c1

    Geometry (in Angstrom), charge = 0, multiplicity = 1:

       Center              X                  Y                   Z               Mass
    ------------   -----------------  -----------------  -----------------  -----------------
         S            0.958109396627    -1.756526638038     0.040569276220    31.972071174400
         C           -0.630314603373     0.066013361962    -0.235305723780    12.000000000000
         C            0.796502096627     0.036411961962     0.355363976220    12.000000000000
         C           -0.845188603373    -1.456342638038    -0.141393723780    12.000000000000
         C           -1.684880603373     0.925063361962     0.446777276220    12.000000000000
         C            1.850622396627     0.936888361962    -0.252197723780    12.000000000000
         C           -3.059808603373     0.778240361962    -0.201914723780    12.000000000000
         C            1.573858396627     2.425577361962    -0.046713723780    12.000000000000
         H           -0.544797603373     0.347799361962    -1.294445723780     1.007825032230
         H            0.743783396627     0.221392361962     1.459022276220     1.007825032230
         H           -1.388394603373    -1.744039638038     0.764482276220     1.007825032230
         H           -1.298207603373    -1.943575638038    -1.007543723780     1.007825032230
         H           -1.374756603373     1.976431361962     0.425968276220     1.007825032230
         H           -1.740054603373     0.637273361962     1.504941276220     1.007825032230
         H            2.827098396627     0.678861361962     0.176865276220     1.007825032230
         H            1.907973396627     0.706442361962    -1.322280723780     1.007825032230
         H           -3.026225603373     1.073344361962    -1.255332723780     1.007825032230
         H           -3.803618603373     1.404006361962     0.299572276220     1.007825032230
         H           -3.409015603373    -0.257690638038    -0.154150723780     1.007825032230
         H            0.649860396627     2.729182361962    -0.546549723780     1.007825032230
         H            2.386938396627     3.031800361962    -0.456757723780     1.007825032230
         H            1.478761396627     2.666139361962     1.016785276220     1.007825032230

  Basis Set: AUG-CC-PVTZ
    Blend: AUG-CC-PVTZ
  Basis Set: (AUG-CC-PVTZ AUX)
    Blend: AUG-CC-PVTZ-JKFIT
	 Reference Energy          =    -670.8526228891414576 [Eh]
	 Singles Energy            =      -0.0000000000000000 [Eh]
	 Same-Spin Energy          =      -0.3559079565256267 [Eh]
	 Opposite-Spin Energy      =      -1.2392284040056130 [Eh]
	 Correlation Energy        =      -1.5951363605312396 [Eh]
	 Total Energy              =    -672.4477592496726857 [Eh]

	 ================> DF-SCS-MP2 Energies <==================
	-----------------------------------------------------------
	 SCS Same-Spin Scale       =       0.3333333333333333 [-]
	 SCS Opposite-Spin Scale   =       1.2000000000000000 [-]
	 SCS Same-Spin Energy      =      -0.1186359855085422 [Eh]
	 SCS Opposite-Spin Energy  =      -1.4870740848067354 [Eh]
	 SCS Correlation Energy    =      -1.6057100703152776 [Eh]
	 SCS Total Energy          =    -672.4583329594566976 [Eh]
	-----------------------------------------------------------

  Dipole Moment: [D]
     X:    -1.2841      Y:     1.7432      Z:     0.0339     Total:     2.1654

*** Psi4 exiting successfully. Buy a developer a beer!
