                               Psi4 1.3.2 release

  ==> Input File <==

--------------------------------------------------------------------------
#psi4
#
memory 32 gb

molecule  {
0 1
  S        1.0039920    -1.8370330     0.0416350
  C       -0.5844320    -0.0144930    -0.2342400
  C        0.7709063    -0.0323695     0.3661903
  C       -0.7993060    -1.5368490    -0.1403280
  C       -1.6389980     0.8445570     0.4478430
  C        1.8965050     0.8563820    -0.2511320
  C       -3.0139260     0.6977340    -0.2008490
  C        1.6197410     2.3450710    -0.0456480
  H       -0.4989150     0.2672930    -1.2933800
  H        0.7896660     0.1408860     1.4600880
  H       -1.3425120    -1.8245460     0.7655480
  H       -1.2523250    -2.0240820    -1.0064780
  H       -1.3288740     1.8959250     0.4270340
  H       -1.6941720     0.5567670     1.5060070
  H        2.8729810     0.5983550     0.1779310
  H        1.9538560     0.6259360    -1.3212150
  H       -2.9803430     0.9928380    -1.2542670
  H       -3.7577360     1.3235000     0.3006380
  H       -3.3631330    -0.3381970    -0.1530850
  H        0.6957430     2.6486760    -0.5454840
  H        2.4328210     2.9512940    -0.4556920
  H        1.5246440     2.5856330     1.0178510
units angstrom
no_reorient  #important for SAPT in psi4, default
symmetry c1  #important for SAPT in psi4, default
}

set PROPERTIES_ORIGIN ["COM"]
properties('MP2/aug-cc-pvtz', properties = ['dipole'])
--------------------------------------------------------------------------

    Molecular point group: c1
  Charge       = 0
  Multiplicity = 1
  Basis Set: AUG-CC-PVTZ
    Blend: AUG-CC-PVTZ
  Basis Set: (AUG-CC-PVTZ AUX)
    Blend: AUG-CC-PVTZ-JKFIT

    Orbital Energies [Eh]
    ---------------------

    Doubly Occupied:

       1A    -91.933921     2A    -11.257785     3A    -11.253269
       4A    -11.235895     5A    -11.227362     6A    -11.227127
       7A    -11.220142     8A    -11.218684     9A     -8.934561
      10A     -6.615359    11A     -6.614993    12A     -6.613736
      13A     -1.155095    14A     -1.046925    15A     -1.026366
      16A     -0.918378    17A     -0.909485    18A     -0.830438
      19A     -0.809834    20A     -0.745921    21A     -0.651156
      22A     -0.633756    23A     -0.602376    24A     -0.597352
      25A     -0.569433    26A     -0.554584    27A     -0.539951
      28A     -0.531227    29A     -0.518803    30A     -0.502083
      31A     -0.482998    32A     -0.470662    33A     -0.462017
      34A     -0.432571    35A     -0.397176    36A     -0.330216

  @DF-RHF Final Energy:  -670.84922952401166

   => Energetics <=

    Nuclear Repulsion Energy =            468.7095951088891752
    One-Electron Energy =               -1848.9743730203765608
    Two-Electron Energy =                 709.4155483874756101
    Total Energy =                       -670.8492295240116619
  Basis Set: (AUG-CC-PVTZ AUX)
    Blend: AUG-CC-PVTZ-RI
    Molecular point group: c1

    Geometry (in Angstrom), charge = 0, multiplicity = 1:

       Center              X                  Y                   Z               Mass
    ------------   -----------------  -----------------  -----------------  -----------------
         S            0.964703262765    -1.757608257396     0.039668863091    31.972071174400
         C           -0.623720737235     0.064931742604    -0.236206136909    12.000000000000
         C            0.731617562765     0.047055242604     0.364224163091    12.000000000000
         C           -0.838594737235    -1.457424257396    -0.142294136909    12.000000000000
         C           -1.678286737235     0.923981742604     0.445876863091    12.000000000000
         C            1.857216262765     0.935806742604    -0.253098136909    12.000000000000
         C           -3.053214737235     0.777158742604    -0.202815136909    12.000000000000
         C            1.580452262765     2.424495742604    -0.047614136909    12.000000000000
         H           -0.538203737235     0.346717742604    -1.295346136909     1.007825032230
         H            0.750377262765     0.220310742604     1.458121863091     1.007825032230
         H           -1.381800737235    -1.745121257396     0.763581863091     1.007825032230
         H           -1.291613737235    -1.944657257396    -1.008444136909     1.007825032230
         H           -1.368162737235     1.975349742604     0.425067863091     1.007825032230
         H           -1.733460737235     0.636191742604     1.504040863091     1.007825032230
         H            2.833692262765     0.677779742604     0.175964863091     1.007825032230
         H            1.914567262765     0.705360742604    -1.323181136909     1.007825032230
         H           -3.019631737235     1.072262742604    -1.256233136909     1.007825032230
         H           -3.797024737235     1.402924742604     0.298671863091     1.007825032230
         H           -3.402421737235    -0.258772257396    -0.155051136909     1.007825032230
         H            0.656454262765     2.728100742604    -0.547450136909     1.007825032230
         H            2.393532262765     3.030718742604    -0.457658136909     1.007825032230
         H            1.485355262765     2.665057742604     1.015884863091     1.007825032230

  Basis Set: AUG-CC-PVTZ
    Blend: AUG-CC-PVTZ
  Basis Set: (AUG-CC-PVTZ AUX)
    Blend: AUG-CC-PVTZ-JKFIT
	 Reference Energy          =    -670.8492295240116619 [Eh]
	 Singles Energy            =      -0.0000000000000000 [Eh]
	 Same-Spin Energy          =      -0.3561260382376732 [Eh]
	 Opposite-Spin Energy      =      -1.2395893060593095 [Eh]
	 Correlation Energy        =      -1.5957153442969827 [Eh]
	 Total Energy              =    -672.4449448683086530 [Eh]

	 ================> DF-SCS-MP2 Energies <==================
	-----------------------------------------------------------
	 SCS Same-Spin Scale       =       0.3333333333333333 [-]
	 SCS Opposite-Spin Scale   =       1.2000000000000000 [-]
	 SCS Same-Spin Energy      =      -0.1187086794125577 [Eh]
	 SCS Opposite-Spin Energy  =      -1.4875071672711713 [Eh]
	 SCS Correlation Energy    =      -1.6062158466837291 [Eh]
	 SCS Total Energy          =    -672.4554453706954291 [Eh]
	-----------------------------------------------------------

  Dipole Moment: [D]
     X:    -1.2882      Y:     1.7364      Z:     0.0486     Total:     2.1626

*** Psi4 exiting successfully. Buy a developer a beer!
