                               Psi4 1.3.2 release

  ==> Input File <==

--------------------------------------------------------------------------
#psi4
#
memory 32 gb

molecule  {
0 1
  S        1.0039920    -1.8370330     0.0416350
  C       -0.5844320    -0.0144930    -0.2342400
  C        0.7292118     0.0489031     0.2842877
  C       -0.7993060    -1.5368490    -0.1403280
  C       -1.6389980     0.8445570     0.4478430
  C        1.8965050     0.8563820    -0.2511320
  C       -3.0139260     0.6977340    -0.2008490
  C        1.6197410     2.3450710    -0.0456480
  H       -0.4989150     0.2672930    -1.2933800
  H        0.7896660     0.1408860     1.4600880
  H       -1.3425120    -1.8245460     0.7655480
  H       -1.2523250    -2.0240820    -1.0064780
  H       -1.3288740     1.8959250     0.4270340
  H       -1.6941720     0.5567670     1.5060070
  H        2.8729810     0.5983550     0.1779310
  H        1.9538560     0.6259360    -1.3212150
  H       -2.9803430     0.9928380    -1.2542670
  H       -3.7577360     1.3235000     0.3006380
  H       -3.3631330    -0.3381970    -0.1530850
  H        0.6957430     2.6486760    -0.5454840
  H        2.4328210     2.9512940    -0.4556920
  H        1.5246440     2.5856330     1.0178510
units angstrom
no_reorient  #important for SAPT in psi4, default
symmetry c1  #important for SAPT in psi4, default
}

set PROPERTIES_ORIGIN ["COM"]
properties('MP2/aug-cc-pvtz', properties = ['dipole'])
--------------------------------------------------------------------------

    Molecular point group: c1
  Charge       = 0
  Multiplicity = 1
  Basis Set: AUG-CC-PVTZ
    Blend: AUG-CC-PVTZ
  Basis Set: (AUG-CC-PVTZ AUX)
    Blend: AUG-CC-PVTZ-JKFIT

    Orbital Energies [Eh]
    ---------------------

    Doubly Occupied:

       1A    -91.930373     2A    -11.266591     3A    -11.253567
       4A    -11.234962     5A    -11.229726     6A    -11.228430
       7A    -11.220661     8A    -11.220023     9A     -8.930549
      10A     -6.611315    11A     -6.610838    12A     -6.609657
      13A     -1.162998    14A     -1.052355    15A     -1.027511
      16A     -0.927085    17A     -0.905667    18A     -0.828880
      19A     -0.818102    20A     -0.738558    21A     -0.658417
      22A     -0.636425    23A     -0.607895    24A     -0.599320
      25A     -0.568123    26A     -0.558203    27A     -0.541641
      28A     -0.529906    29A     -0.523806    30A     -0.504302
      31A     -0.485461    32A     -0.472083    33A     -0.458328
      34A     -0.437240    35A     -0.379533    36A     -0.327158

  @DF-RHF Final Energy:  -670.82977698878290

   => Energetics <=

    Nuclear Repulsion Energy =            469.1717638235621735
    One-Electron Energy =               -1849.8116994748347679
    Two-Electron Energy =                 709.8101586624895845
    Total Energy =                       -670.8297769887828963
  Basis Set: (AUG-CC-PVTZ AUX)
    Blend: AUG-CC-PVTZ-RI
    Molecular point group: c1

    Geometry (in Angstrom), charge = 0, multiplicity = 1:

       Center              X                  Y                   Z               Mass
    ------------   -----------------  -----------------  -----------------  -----------------
         S            0.968549570904    -1.765105636255     0.047224359307    31.972071174400
         C           -0.619874429096     0.057434363745    -0.228650640693    12.000000000000
         C            0.693769370904     0.120830463745     0.289877059307    12.000000000000
         C           -0.834748429096    -1.464921636255    -0.134738640693    12.000000000000
         C           -1.674440429096     0.916484363745     0.453432359307    12.000000000000
         C            1.861062570904     0.928309363745    -0.245542640693    12.000000000000
         C           -3.049368429096     0.769661363745    -0.195259640693    12.000000000000
         C            1.584298570904     2.416998363745    -0.040058640693    12.000000000000
         H           -0.534357429096     0.339220363745    -1.287790640693     1.007825032230
         H            0.754223570904     0.212813363745     1.465677359307     1.007825032230
         H           -1.377954429096    -1.752618636255     0.771137359307     1.007825032230
         H           -1.287767429096    -1.952154636255    -1.000888640693     1.007825032230
         H           -1.364316429096     1.967852363745     0.432623359307     1.007825032230
         H           -1.729614429096     0.628694363745     1.511596359307     1.007825032230
         H            2.837538570904     0.670282363745     0.183520359307     1.007825032230
         H            1.918413570904     0.697863363745    -1.315625640693     1.007825032230
         H           -3.015785429096     1.064765363745    -1.248677640693     1.007825032230
         H           -3.793178429096     1.395427363745     0.306227359307     1.007825032230
         H           -3.398575429096    -0.266269636255    -0.147495640693     1.007825032230
         H            0.660300570904     2.720603363745    -0.539894640693     1.007825032230
         H            2.397378570904     3.023221363745    -0.450102640693     1.007825032230
         H            1.489201570904     2.657560363745     1.023440359307     1.007825032230

  Basis Set: AUG-CC-PVTZ
    Blend: AUG-CC-PVTZ
  Basis Set: (AUG-CC-PVTZ AUX)
    Blend: AUG-CC-PVTZ-JKFIT
	 Reference Energy          =    -670.8297769887828963 [Eh]
	 Singles Energy            =      -0.0000000000000000 [Eh]
	 Same-Spin Energy          =      -0.3575702493721041 [Eh]
	 Opposite-Spin Energy      =      -1.2418797478370331 [Eh]
	 Correlation Energy        =      -1.5994499972091372 [Eh]
	 Total Energy              =    -672.4292269859920452 [Eh]

	 ================> DF-SCS-MP2 Energies <==================
	-----------------------------------------------------------
	 SCS Same-Spin Scale       =       0.3333333333333333 [-]
	 SCS Opposite-Spin Scale   =       1.2000000000000000 [-]
	 SCS Same-Spin Energy      =      -0.1191900831240347 [Eh]
	 SCS Opposite-Spin Energy  =      -1.4902556974044396 [Eh]
	 SCS Correlation Energy    =      -1.6094457805284743 [Eh]
	 SCS Total Energy          =    -672.4392227693114137 [Eh]
	-----------------------------------------------------------

  Dipole Moment: [D]
     X:    -1.2756      Y:     1.8699      Z:     0.0021     Total:     2.2636

*** Psi4 exiting successfully. Buy a developer a beer!
