                               Psi4 1.3.2 release

  ==> Input File <==

--------------------------------------------------------------------------
#psi4
#
memory 32 gb

molecule  {
0 1
  S        1.0039920    -1.8370330     0.0416350
  C       -0.5844320    -0.0144930    -0.2342400
  C        0.8350288     0.1334728     0.3563614
  C       -0.7993060    -1.5368490    -0.1403280
  C       -1.6389980     0.8445570     0.4478430
  C        1.8965050     0.8563820    -0.2511320
  C       -3.0139260     0.6977340    -0.2008490
  C        1.6197410     2.3450710    -0.0456480
  H       -0.4989150     0.2672930    -1.2933800
  H        0.7896660     0.1408860     1.4600880
  H       -1.3425120    -1.8245460     0.7655480
  H       -1.2523250    -2.0240820    -1.0064780
  H       -1.3288740     1.8959250     0.4270340
  H       -1.6941720     0.5567670     1.5060070
  H        2.8729810     0.5983550     0.1779310
  H        1.9538560     0.6259360    -1.3212150
  H       -2.9803430     0.9928380    -1.2542670
  H       -3.7577360     1.3235000     0.3006380
  H       -3.3631330    -0.3381970    -0.1530850
  H        0.6957430     2.6486760    -0.5454840
  H        2.4328210     2.9512940    -0.4556920
  H        1.5246440     2.5856330     1.0178510
units angstrom
no_reorient  #important for SAPT in psi4, default
symmetry c1  #important for SAPT in psi4, default
}

set PROPERTIES_ORIGIN ["COM"]
properties('MP2/aug-cc-pvtz', properties = ['dipole'])
--------------------------------------------------------------------------

    Molecular point group: c1
  Charge       = 0
  Multiplicity = 1
  Basis Set: AUG-CC-PVTZ
    Blend: AUG-CC-PVTZ
  Basis Set: (AUG-CC-PVTZ AUX)
    Blend: AUG-CC-PVTZ-JKFIT

    Orbital Energies [Eh]
    ---------------------

    Doubly Occupied:

       1A    -91.926794     2A    -11.267784     3A    -11.250865
       4A    -11.244092     5A    -11.227270     6A    -11.226218
       7A    -11.222849     8A    -11.220134     9A     -8.926295
      10A     -6.607045    11A     -6.606518    12A     -6.605437
      13A     -1.145648    14A     -1.066082    15A     -1.023233
      16A     -0.923774    17A     -0.905370    18A     -0.828865
      19A     -0.808196    20A     -0.750906    21A     -0.658414
      22A     -0.637817    23A     -0.606088    24A     -0.598977
      25A     -0.573694    26A     -0.558886    27A     -0.541693
      28A     -0.530152    29A     -0.526695    30A     -0.503224
      31A     -0.496223    32A     -0.474362    33A     -0.459733
      34A     -0.433306    35A     -0.362563    36A     -0.326305

  @DF-RHF Final Energy:  -670.83467250575063

   => Energetics <=

    Nuclear Repulsion Energy =            467.4143228482290624
    One-Electron Energy =               -1846.3549691081459514
    Two-Electron Energy =                 708.1059737541661434
    Total Energy =                       -670.8346725057506319
  Basis Set: (AUG-CC-PVTZ AUX)
    Blend: AUG-CC-PVTZ-RI
    Molecular point group: c1

    Geometry (in Angstrom), charge = 0, multiplicity = 1:

       Center              X                  Y                   Z               Mass
    ------------   -----------------  -----------------  -----------------  -----------------
         S            0.958787976729    -1.772907171840     0.040575576880    31.972071174400
         C           -0.629636023271     0.049632828160    -0.235299423120    12.000000000000
         C            0.789824776729     0.197598628160     0.355301976880    12.000000000000
         C           -0.844510023271    -1.472723171840    -0.141387423120    12.000000000000
         C           -1.684202023271     0.908682828160     0.446783576880    12.000000000000
         C            1.851300976729     0.920507828160    -0.252191423120    12.000000000000
         C           -3.059130023271     0.761859828160    -0.201908423120    12.000000000000
         C            1.574536976729     2.409196828160    -0.046707423120    12.000000000000
         H           -0.544119023271     0.331418828160    -1.294439423120     1.007825032230
         H            0.744461976729     0.205011828160     1.459028576880     1.007825032230
         H           -1.387716023271    -1.760420171840     0.764488576880     1.007825032230
         H           -1.297529023271    -1.959956171840    -1.007537423120     1.007825032230
         H           -1.374078023271     1.960050828160     0.425974576880     1.007825032230
         H           -1.739376023271     0.620892828160     1.504947576880     1.007825032230
         H            2.827776976729     0.662480828160     0.176871576880     1.007825032230
         H            1.908651976729     0.690061828160    -1.322274423120     1.007825032230
         H           -3.025547023271     1.056963828160    -1.255326423120     1.007825032230
         H           -3.802940023271     1.387625828160     0.299578576880     1.007825032230
         H           -3.408337023271    -0.274071171840    -0.154144423120     1.007825032230
         H            0.650538976729     2.712801828160    -0.546543423120     1.007825032230
         H            2.387616976729     3.015419828160    -0.456751423120     1.007825032230
         H            1.479439976729     2.649758828160     1.016791576880     1.007825032230

  Basis Set: AUG-CC-PVTZ
    Blend: AUG-CC-PVTZ
  Basis Set: (AUG-CC-PVTZ AUX)
    Blend: AUG-CC-PVTZ-JKFIT
	 Reference Energy          =    -670.8346725057506319 [Eh]
	 Singles Energy            =      -0.0000000000000000 [Eh]
	 Same-Spin Energy          =      -0.3571177697204891 [Eh]
	 Opposite-Spin Energy      =      -1.2415338312622688 [Eh]
	 Correlation Energy        =      -1.5986516009827580 [Eh]
	 Total Energy              =    -672.4333241067333802 [Eh]

	 ================> DF-SCS-MP2 Energies <==================
	-----------------------------------------------------------
	 SCS Same-Spin Scale       =       0.3333333333333333 [-]
	 SCS Opposite-Spin Scale   =       1.2000000000000000 [-]
	 SCS Same-Spin Energy      =      -0.1190392565734964 [Eh]
	 SCS Opposite-Spin Energy  =      -1.4898405975147224 [Eh]
	 SCS Correlation Energy    =      -1.6088798540882188 [Eh]
	 SCS Total Energy          =    -672.4435523598388045 [Eh]
	-----------------------------------------------------------

  Dipole Moment: [D]
     X:    -1.1892      Y:     2.1095      Z:     0.0183     Total:     2.4216

*** Psi4 exiting successfully. Buy a developer a beer!
