                               Psi4 1.3.2 release

  ==> Input File <==

--------------------------------------------------------------------------
#psi4
#
memory 32 gb

molecule  {
0 1
  S        1.0039920    -1.8370330     0.0416350
  C       -0.5844320    -0.0144930    -0.2342400
  C        0.8184012    -0.1873934     0.3884455
  C       -0.7993060    -1.5368490    -0.1403280
  C       -1.6389980     0.8445570     0.4478430
  C        1.8965050     0.8563820    -0.2511320
  C       -3.0139260     0.6977340    -0.2008490
  C        1.6197410     2.3450710    -0.0456480
  H       -0.4989150     0.2672930    -1.2933800
  H        0.7896660     0.1408860     1.4600880
  H       -1.3425120    -1.8245460     0.7655480
  H       -1.2523250    -2.0240820    -1.0064780
  H       -1.3288740     1.8959250     0.4270340
  H       -1.6941720     0.5567670     1.5060070
  H        2.8729810     0.5983550     0.1779310
  H        1.9538560     0.6259360    -1.3212150
  H       -2.9803430     0.9928380    -1.2542670
  H       -3.7577360     1.3235000     0.3006380
  H       -3.3631330    -0.3381970    -0.1530850
  H        0.6957430     2.6486760    -0.5454840
  H        2.4328210     2.9512940    -0.4556920
  H        1.5246440     2.5856330     1.0178510
units angstrom
no_reorient  #important for SAPT in psi4, default
symmetry c1  #important for SAPT in psi4, default
}

set PROPERTIES_ORIGIN ["COM"]
properties('MP2/aug-cc-pvtz', properties = ['dipole'])
--------------------------------------------------------------------------

    Molecular point group: c1
  Charge       = 0
  Multiplicity = 1
  Basis Set: AUG-CC-PVTZ
    Blend: AUG-CC-PVTZ
  Basis Set: (AUG-CC-PVTZ AUX)
    Blend: AUG-CC-PVTZ-JKFIT

    Orbital Energies [Eh]
    ---------------------

    Doubly Occupied:

       1A    -91.937155     2A    -11.255190     3A    -11.254353
       4A    -11.236072     5A    -11.227242     6A    -11.226109
       7A    -11.220582     8A    -11.218449     9A     -8.940214
      10A     -6.621329    11A     -6.620719    12A     -6.619369
      13A     -1.160350    14A     -1.046227    15A     -1.024181
      16A     -0.921713    17A     -0.908370    18A     -0.834485
      19A     -0.803566    20A     -0.740622    21A     -0.646230
      22A     -0.629817    23A     -0.599933    24A     -0.596593
      25A     -0.571170    26A     -0.553663    27A     -0.541265
      28A     -0.528307    29A     -0.513322    30A     -0.501143
      31A     -0.480259    32A     -0.474253    33A     -0.467065
      34A     -0.428225    35A     -0.401959    36A     -0.329082

  @DF-RHF Final Energy:  -670.83144474301980

   => Energetics <=

    Nuclear Repulsion Energy =            469.3039510590229497
    One-Electron Energy =               -1850.1136235537271659
    Two-Electron Energy =                 709.9782277516844715
    Total Energy =                       -670.8314447430198015
  Basis Set: (AUG-CC-PVTZ AUX)
    Blend: AUG-CC-PVTZ-RI
    Molecular point group: c1

    Geometry (in Angstrom), charge = 0, multiplicity = 1:

       Center              X                  Y                   Z               Mass
    ------------   -----------------  -----------------  -----------------  -----------------
         S            0.960321869046    -1.743307337890     0.037615825954    31.972071174400
         C           -0.628102130954     0.079232662110    -0.238259174046    12.000000000000
         C            0.774731069046    -0.093667737890     0.384426325954    12.000000000000
         C           -0.842976130954    -1.443123337890    -0.144347174046    12.000000000000
         C           -1.682668130954     0.938282662110     0.443823825954    12.000000000000
         C            1.852834869046     0.950107662110    -0.255151174046    12.000000000000
         C           -3.057596130954     0.791459662110    -0.204868174046    12.000000000000
         C            1.576070869046     2.438796662110    -0.049667174046    12.000000000000
         H           -0.542585130954     0.361018662110    -1.297399174046     1.007825032230
         H            0.745995869046     0.234611662110     1.456068825954     1.007825032230
         H           -1.386182130954    -1.730820337890     0.761528825954     1.007825032230
         H           -1.295995130954    -1.930356337890    -1.010497174046     1.007825032230
         H           -1.372544130954     1.989650662110     0.423014825954     1.007825032230
         H           -1.737842130954     0.650492662110     1.501987825954     1.007825032230
         H            2.829310869046     0.692080662110     0.173911825954     1.007825032230
         H            1.910185869046     0.719661662110    -1.325234174046     1.007825032230
         H           -3.024013130954     1.086563662110    -1.258286174046     1.007825032230
         H           -3.801406130954     1.417225662110     0.296618825954     1.007825032230
         H           -3.406803130954    -0.244471337890    -0.157104174046     1.007825032230
         H            0.652072869046     2.742401662110    -0.549503174046     1.007825032230
         H            2.389150869046     3.045019662110    -0.459711174046     1.007825032230
         H            1.480973869046     2.679358662110     1.013831825954     1.007825032230

  Basis Set: AUG-CC-PVTZ
    Blend: AUG-CC-PVTZ
  Basis Set: (AUG-CC-PVTZ AUX)
    Blend: AUG-CC-PVTZ-JKFIT
	 Reference Energy          =    -670.8314447430198015 [Eh]
	 Singles Energy            =      -0.0000000000000000 [Eh]
	 Same-Spin Energy          =      -0.3568391334807247 [Eh]
	 Opposite-Spin Energy      =      -1.2404684838215574 [Eh]
	 Correlation Energy        =      -1.5973076173022820 [Eh]
	 Total Energy              =    -672.4287523603220507 [Eh]

	 ================> DF-SCS-MP2 Energies <==================
	-----------------------------------------------------------
	 SCS Same-Spin Scale       =       0.3333333333333333 [-]
	 SCS Opposite-Spin Scale   =       1.2000000000000000 [-]
	 SCS Same-Spin Energy      =      -0.1189463778269082 [Eh]
	 SCS Opposite-Spin Energy  =      -1.4885621805858689 [Eh]
	 SCS Correlation Energy    =      -1.6075085584127771 [Eh]
	 SCS Total Energy          =    -672.4389533014325480 [Eh]
	-----------------------------------------------------------

  Dipole Moment: [D]
     X:    -1.3650      Y:     1.4911      Z:     0.0423     Total:     2.0220

*** Psi4 exiting successfully. Buy a developer a beer!
