                               Psi4 1.3.2 release

  ==> Input File <==

--------------------------------------------------------------------------
#psi4
#
memory 32 gb

molecule  {
0 1
  S        1.0039920    -1.8370330     0.0416350
  C       -0.6141949    -0.0573297    -0.2242379
  C        0.8344880    -0.0270290     0.3757450
  C       -0.7993060    -1.5368490    -0.1403280
  C       -1.6389980     0.8445570     0.4478430
  C        1.8965050     0.8563820    -0.2511320
  C       -3.0139260     0.6977340    -0.2008490
  C        1.6197410     2.3450710    -0.0456480
  H       -0.4989150     0.2672930    -1.2933800
  H        0.7896660     0.1408860     1.4600880
  H       -1.3425120    -1.8245460     0.7655480
  H       -1.2523250    -2.0240820    -1.0064780
  H       -1.3288740     1.8959250     0.4270340
  H       -1.6941720     0.5567670     1.5060070
  H        2.8729810     0.5983550     0.1779310
  H        1.9538560     0.6259360    -1.3212150
  H       -2.9803430     0.9928380    -1.2542670
  H       -3.7577360     1.3235000     0.3006380
  H       -3.3631330    -0.3381970    -0.1530850
  H        0.6957430     2.6486760    -0.5454840
  H        2.4328210     2.9512940    -0.4556920
  H        1.5246440     2.5856330     1.0178510
units angstrom
no_reorient  #important for SAPT in psi4, default
symmetry c1  #important for SAPT in psi4, default
}

set PROPERTIES_ORIGIN ["COM"]
properties('MP2/aug-cc-pvtz', properties = ['dipole'])
--------------------------------------------------------------------------

    Molecular point group: c1
  Charge       = 0
  Multiplicity = 1
  Basis Set: AUG-CC-PVTZ
    Blend: AUG-CC-PVTZ
  Basis Set: (AUG-CC-PVTZ AUX)
    Blend: AUG-CC-PVTZ-JKFIT

    Orbital Energies [Eh]
    ---------------------

    Doubly Occupied:

       1A    -91.935208     2A    -11.257631     3A    -11.251525
       4A    -11.239781     5A    -11.227018     6A    -11.226128
       7A    -11.219624     8A    -11.219539     9A     -8.935665
      10A     -6.616462    11A     -6.616119    12A     -6.614872
      13A     -1.149855    14A     -1.051613    15A     -1.028030
      16A     -0.919782    17A     -0.907383    18A     -0.834642
      19A     -0.803760    20A     -0.744035    21A     -0.652487
      22A     -0.631483    23A     -0.604251    24A     -0.597470
      25A     -0.571028    26A     -0.556741    27A     -0.540725
      28A     -0.528205    29A     -0.518565    30A     -0.503303
      31A     -0.484914    32A     -0.465559    33A     -0.463505
      34A     -0.436459    35A     -0.392479    36A     -0.331211

  @DF-RHF Final Energy:  -670.85063543295689

   => Energetics <=

    Nuclear Repulsion Energy =            468.2530992383150306
    One-Electron Energy =               -1848.0533496323021154
    Two-Electron Energy =                 708.9496149610300790
    Total Energy =                       -670.8506354329568921
  Basis Set: (AUG-CC-PVTZ AUX)
    Blend: AUG-CC-PVTZ-RI
    Molecular point group: c1

    Geometry (in Angstrom), charge = 0, multiplicity = 1:

       Center              X                  Y                   Z               Mass
    ------------   -----------------  -----------------  -----------------  -----------------
         S            0.961583486159    -1.754149241476     0.037864752740    31.972071174400
         C           -0.656603413841     0.025554058524    -0.228008147260    12.000000000000
         C            0.792079486159     0.055854758524     0.371974752740    12.000000000000
         C           -0.841714513841    -1.453965241476    -0.144098247260    12.000000000000
         C           -1.681406513841     0.927440758524     0.444072752740    12.000000000000
         C            1.854096486159     0.939265758524    -0.254902247260    12.000000000000
         C           -3.056334513841     0.780617758524    -0.204619247260    12.000000000000
         C            1.577332486159     2.427954758524    -0.049418247260    12.000000000000
         H           -0.541323513841     0.350176758524    -1.297150247260     1.007825032230
         H            0.747257486159     0.223769758524     1.456317752740     1.007825032230
         H           -1.384920513841    -1.741662241476     0.761777752740     1.007825032230
         H           -1.294733513841    -1.941198241476    -1.010248247260     1.007825032230
         H           -1.371282513841     1.978808758524     0.423263752740     1.007825032230
         H           -1.736580513841     0.639650758524     1.502236752740     1.007825032230
         H            2.830572486159     0.681238758524     0.174160752740     1.007825032230
         H            1.911447486159     0.708819758524    -1.324985247260     1.007825032230
         H           -3.022751513841     1.075721758524    -1.258037247260     1.007825032230
         H           -3.800144513841     1.406383758524     0.296867752740     1.007825032230
         H           -3.405541513841    -0.255313241476    -0.156855247260     1.007825032230
         H            0.653334486159     2.731559758524    -0.549254247260     1.007825032230
         H            2.390412486159     3.034177758524    -0.459462247260     1.007825032230
         H            1.482235486159     2.668516758524     1.014080752740     1.007825032230

  Basis Set: AUG-CC-PVTZ
    Blend: AUG-CC-PVTZ
  Basis Set: (AUG-CC-PVTZ AUX)
    Blend: AUG-CC-PVTZ-JKFIT
	 Reference Energy          =    -670.8506354329568921 [Eh]
	 Singles Energy            =      -0.0000000000000000 [Eh]
	 Same-Spin Energy          =      -0.3560143580865698 [Eh]
	 Opposite-Spin Energy      =      -1.2394487194890522 [Eh]
	 Correlation Energy        =      -1.5954630775756220 [Eh]
	 Total Energy              =    -672.4460985105324653 [Eh]

	 ================> DF-SCS-MP2 Energies <==================
	-----------------------------------------------------------
	 SCS Same-Spin Scale       =       0.3333333333333333 [-]
	 SCS Opposite-Spin Scale   =       1.2000000000000000 [-]
	 SCS Same-Spin Energy      =      -0.1186714526955233 [Eh]
	 SCS Opposite-Spin Energy  =      -1.4873384633868627 [Eh]
	 SCS Correlation Energy    =      -1.6060099160823860 [Eh]
	 SCS Total Energy          =    -672.4566453490392632 [Eh]
	-----------------------------------------------------------

  Dipole Moment: [D]
     X:    -1.2553      Y:     1.7769      Z:     0.0549     Total:     2.1763

*** Psi4 exiting successfully. Buy a developer a beer!
