                               Psi4 1.3.2 release

  ==> Input File <==

--------------------------------------------------------------------------
#psi4
#
memory 32 gb

molecule  {
0 1
  S        1.0039920    -1.8370330     0.0416350
  C       -0.5844320    -0.0144930    -0.2342400
  C        0.7076085    -0.0399086     0.3562402
  C       -0.7993060    -1.5368490    -0.1403280
  C       -1.6389980     0.8445570     0.4478430
  C        1.8965050     0.8563820    -0.2511320
  C       -3.0139260     0.6977340    -0.2008490
  C        1.6197410     2.3450710    -0.0456480
  H       -0.4989150     0.2672930    -1.2933800
  H        0.7896660     0.1408860     1.4600880
  H       -1.3425120    -1.8245460     0.7655480
  H       -1.2523250    -2.0240820    -1.0064780
  H       -1.3288740     1.8959250     0.4270340
  H       -1.6941720     0.5567670     1.5060070
  H        2.8729810     0.5983550     0.1779310
  H        1.9538560     0.6259360    -1.3212150
  H       -2.9803430     0.9928380    -1.2542670
  H       -3.7577360     1.3235000     0.3006380
  H       -3.3631330    -0.3381970    -0.1530850
  H        0.6957430     2.6486760    -0.5454840
  H        2.4328210     2.9512940    -0.4556920
  H        1.5246440     2.5856330     1.0178510
units angstrom
no_reorient  #important for SAPT in psi4, default
symmetry c1  #important for SAPT in psi4, default
}

set PROPERTIES_ORIGIN ["COM"]
properties('MP2/aug-cc-pvtz', properties = ['dipole'])
--------------------------------------------------------------------------

    Molecular point group: c1
  Charge       = 0
  Multiplicity = 1
  Basis Set: AUG-CC-PVTZ
    Blend: AUG-CC-PVTZ
  Basis Set: (AUG-CC-PVTZ AUX)
    Blend: AUG-CC-PVTZ-JKFIT

    Orbital Energies [Eh]
    ---------------------

    Doubly Occupied:

       1A    -91.932997     2A    -11.259060     3A    -11.254274
       4A    -11.232430     5A    -11.229111     6A    -11.227615
       7A    -11.220267     8A    -11.217884     9A     -8.933831
      10A     -6.614616    11A     -6.614241    12A     -6.612958
      13A     -1.164613    14A     -1.043969    15A     -1.025874
      16A     -0.923189    17A     -0.906355    18A     -0.828787
      19A     -0.813894    20A     -0.744811    21A     -0.652943
      22A     -0.635591    23A     -0.603233    24A     -0.597940
      25A     -0.568583    26A     -0.555437    27A     -0.540009
      28A     -0.531742    29A     -0.518843    30A     -0.502000
      31A     -0.483293    32A     -0.472958    33A     -0.460248
      34A     -0.427563    35A     -0.396989    36A     -0.328645

  @DF-RHF Final Energy:  -670.83605671449425

   => Energetics <=

    Nuclear Repulsion Energy =            469.3041576537066248
    One-Electron Energy =               -1850.1268482380551177
    Two-Electron Energy =                 709.9866338698542449
    Total Energy =                       -670.8360567144942479
  Basis Set: (AUG-CC-PVTZ AUX)
    Blend: AUG-CC-PVTZ-RI
    Molecular point group: c1

    Geometry (in Angstrom), charge = 0, multiplicity = 1:

       Center              X                  Y                   Z               Mass
    ------------   -----------------  -----------------  -----------------  -----------------
         S            0.970542470414    -1.756912777136     0.040586757552    31.972071174400
         C           -0.617881529586     0.065627222864    -0.235288242448    12.000000000000
         C            0.674158970414     0.040211622864     0.355191957552    12.000000000000
         C           -0.832755529586    -1.456728777136    -0.141376242448    12.000000000000
         C           -1.672447529586     0.924677222864     0.446794757552    12.000000000000
         C            1.863055470414     0.936502222864    -0.252180242448    12.000000000000
         C           -3.047375529586     0.777854222864    -0.201897242448    12.000000000000
         C            1.586291470414     2.425191222864    -0.046696242448    12.000000000000
         H           -0.532364529586     0.347413222864    -1.294428242448     1.007825032230
         H            0.756216470414     0.221006222864     1.459039757552     1.007825032230
         H           -1.375961529586    -1.744425777136     0.764499757552     1.007825032230
         H           -1.285774529586    -1.943961777136    -1.007526242448     1.007825032230
         H           -1.362323529586     1.976045222864     0.425985757552     1.007825032230
         H           -1.727621529586     0.636887222864     1.504958757552     1.007825032230
         H            2.839531470414     0.678475222864     0.176882757552     1.007825032230
         H            1.920406470414     0.706056222864    -1.322263242448     1.007825032230
         H           -3.013792529586     1.072958222864    -1.255315242448     1.007825032230
         H           -3.791185529586     1.403620222864     0.299589757552     1.007825032230
         H           -3.396582529586    -0.258076777136    -0.154133242448     1.007825032230
         H            0.662293470414     2.728796222864    -0.546532242448     1.007825032230
         H            2.399371470414     3.031414222864    -0.456740242448     1.007825032230
         H            1.491194470414     2.665753222864     1.016802757552     1.007825032230

  Basis Set: AUG-CC-PVTZ
    Blend: AUG-CC-PVTZ
  Basis Set: (AUG-CC-PVTZ AUX)
    Blend: AUG-CC-PVTZ-JKFIT
	 Reference Energy          =    -670.8360567144942479 [Eh]
	 Singles Energy            =      -0.0000000000000000 [Eh]
	 Same-Spin Energy          =      -0.3569539654457893 [Eh]
	 Opposite-Spin Energy      =      -1.2407651806253468 [Eh]
	 Correlation Energy        =      -1.5977191460711362 [Eh]
	 Total Energy              =    -672.4337758605653335 [Eh]

	 ================> DF-SCS-MP2 Energies <==================
	-----------------------------------------------------------
	 SCS Same-Spin Scale       =       0.3333333333333333 [-]
	 SCS Opposite-Spin Scale   =       1.2000000000000000 [-]
	 SCS Same-Spin Energy      =      -0.1189846551485964 [Eh]
	 SCS Opposite-Spin Energy  =      -1.4889182167504160 [Eh]
	 SCS Correlation Energy    =      -1.6079028718990125 [Eh]
	 SCS Total Energy          =    -672.4439595863932482 [Eh]
	-----------------------------------------------------------

  Dipole Moment: [D]
     X:    -1.3133      Y:     1.6972      Z:     0.0525     Total:     2.1466

*** Psi4 exiting successfully. Buy a developer a beer!
