                               Psi4 1.3.2 release

  ==> Input File <==

--------------------------------------------------------------------------
#psi4
#
memory 32 gb

molecule  {
0 1
  S        1.0039920    -1.8370330     0.0416350
  C       -0.5991551    -0.0360454    -0.2293421
  C        0.8344880    -0.0270290     0.3757450
  C       -0.7993060    -1.5368490    -0.1403280
  C       -1.6389980     0.8445570     0.4478430
  C        1.8965050     0.8563820    -0.2511320
  C       -3.0139260     0.6977340    -0.2008490
  C        1.6197410     2.3450710    -0.0456480
  H       -0.4989150     0.2672930    -1.2933800
  H        0.7896660     0.1408860     1.4600880
  H       -1.3425120    -1.8245460     0.7655480
  H       -1.2523250    -2.0240820    -1.0064780
  H       -1.3288740     1.8959250     0.4270340
  H       -1.6941720     0.5567670     1.5060070
  H        2.8729810     0.5983550     0.1779310
  H        1.9538560     0.6259360    -1.3212150
  H       -2.9803430     0.9928380    -1.2542670
  H       -3.7577360     1.3235000     0.3006380
  H       -3.3631330    -0.3381970    -0.1530850
  H        0.6957430     2.6486760    -0.5454840
  H        2.4328210     2.9512940    -0.4556920
  H        1.5246440     2.5856330     1.0178510
units angstrom
no_reorient  #important for SAPT in psi4, default
symmetry c1  #important for SAPT in psi4, default
}

set PROPERTIES_ORIGIN ["COM"]
properties('MP2/aug-cc-pvtz', properties = ['dipole'])
--------------------------------------------------------------------------

    Molecular point group: c1
  Charge       = 0
  Multiplicity = 1
  Basis Set: AUG-CC-PVTZ
    Blend: AUG-CC-PVTZ
  Basis Set: (AUG-CC-PVTZ AUX)
    Blend: AUG-CC-PVTZ-JKFIT

    Orbital Energies [Eh]
    ---------------------

    Doubly Occupied:

       1A    -91.935056     2A    -11.257356     3A    -11.252136
       4A    -11.239233     5A    -11.226859     6A    -11.225809
       7A    -11.219847     8A    -11.219531     9A     -8.935502
      10A     -6.616304    11A     -6.615958    12A     -6.614715
      13A     -1.148658    14A     -1.051126    15A     -1.027236
      16A     -0.918580    17A     -0.908487    18A     -0.833538
      19A     -0.804771    20A     -0.745379    21A     -0.651163
      22A     -0.631870    23A     -0.602749    24A     -0.597284
      25A     -0.570927    26A     -0.556271    27A     -0.540259
      28A     -0.529132    29A     -0.518632    30A     -0.502725
      31A     -0.484989    32A     -0.468791    33A     -0.461492
      34A     -0.435795    35A     -0.393693    36A     -0.331207

  @DF-RHF Final Energy:  -670.85275784774660

   => Energetics <=

    Nuclear Repulsion Energy =            468.2077720996168182
    One-Electron Energy =               -1847.9749425884044740
    Two-Electron Energy =                 708.9144126410409399
    Total Energy =                       -670.8527578477466022
  Basis Set: (AUG-CC-PVTZ AUX)
    Blend: AUG-CC-PVTZ-RI
    Molecular point group: c1

    Geometry (in Angstrom), charge = 0, multiplicity = 1:

       Center              X                  Y                   Z               Mass
    ------------   -----------------  -----------------  -----------------  -----------------
         S            0.960196068031    -1.756112713309     0.038335614029    31.972071174400
         C           -0.642951031969     0.044874886691    -0.232641485971    12.000000000000
         C            0.790692068031     0.053891286691     0.372445614029    12.000000000000
         C           -0.843101931969    -1.455928713309    -0.143627385971    12.000000000000
         C           -1.682793931969     0.925477286691     0.444543614029    12.000000000000
         C            1.852709068031     0.937302286691    -0.254431385971    12.000000000000
         C           -3.057721931969     0.778654286691    -0.204148385971    12.000000000000
         C            1.575945068031     2.425991286691    -0.048947385971    12.000000000000
         H           -0.542710931969     0.348213286691    -1.296679385971     1.007825032230
         H            0.745870068031     0.221806286691     1.456788614029     1.007825032230
         H           -1.386307931969    -1.743625713309     0.762248614029     1.007825032230
         H           -1.296120931969    -1.943161713309    -1.009777385971     1.007825032230
         H           -1.372669931969     1.976845286691     0.423734614029     1.007825032230
         H           -1.737967931969     0.637687286691     1.502707614029     1.007825032230
         H            2.829185068031     0.679275286691     0.174631614029     1.007825032230
         H            1.910060068031     0.706856286691    -1.324514385971     1.007825032230
         H           -3.024138931969     1.073758286691    -1.257566385971     1.007825032230
         H           -3.801531931969     1.404420286691     0.297338614029     1.007825032230
         H           -3.406928931969    -0.257276713309    -0.156384385971     1.007825032230
         H            0.651947068031     2.729596286691    -0.548783385971     1.007825032230
         H            2.389025068031     3.032214286691    -0.458991385971     1.007825032230
         H            1.480848068031     2.666553286691     1.014551614029     1.007825032230

  Basis Set: AUG-CC-PVTZ
    Blend: AUG-CC-PVTZ
  Basis Set: (AUG-CC-PVTZ AUX)
    Blend: AUG-CC-PVTZ-JKFIT
	 Reference Energy          =    -670.8527578477466022 [Eh]
	 Singles Energy            =      -0.0000000000000000 [Eh]
	 Same-Spin Energy          =      -0.3558620756091715 [Eh]
	 Opposite-Spin Energy      =      -1.2392391476949263 [Eh]
	 Correlation Energy        =      -1.5951012233040978 [Eh]
	 Total Energy              =    -672.4478590710507433 [Eh]

	 ================> DF-SCS-MP2 Energies <==================
	-----------------------------------------------------------
	 SCS Same-Spin Scale       =       0.3333333333333333 [-]
	 SCS Opposite-Spin Scale   =       1.2000000000000000 [-]
	 SCS Same-Spin Energy      =      -0.1186206918697238 [Eh]
	 SCS Opposite-Spin Energy  =      -1.4870869772339115 [Eh]
	 SCS Correlation Energy    =      -1.6057076691036354 [Eh]
	 SCS Total Energy          =    -672.4584655168501968 [Eh]
	-----------------------------------------------------------

  Dipole Moment: [D]
     X:    -1.2649      Y:     1.7764      Z:     0.0485     Total:     2.1812

*** Psi4 exiting successfully. Buy a developer a beer!
