                               Psi4 1.3.2 release

  ==> Input File <==

--------------------------------------------------------------------------
#psi4
#
memory 32 gb

molecule  {
0 1
  S        1.0039920    -1.8370330     0.0416350
  C       -0.5844320    -0.0144930    -0.2342400
  C        0.9513999    -0.0932823     0.4603341
  C       -0.7993060    -1.5368490    -0.1403280
  C       -1.6389980     0.8445570     0.4478430
  C        1.8965050     0.8563820    -0.2511320
  C       -3.0139260     0.6977340    -0.2008490
  C        1.6197410     2.3450710    -0.0456480
  H       -0.4989150     0.2672930    -1.2933800
  H        0.7896660     0.1408860     1.4600880
  H       -1.3425120    -1.8245460     0.7655480
  H       -1.2523250    -2.0240820    -1.0064780
  H       -1.3288740     1.8959250     0.4270340
  H       -1.6941720     0.5567670     1.5060070
  H        2.8729810     0.5983550     0.1779310
  H        1.9538560     0.6259360    -1.3212150
  H       -2.9803430     0.9928380    -1.2542670
  H       -3.7577360     1.3235000     0.3006380
  H       -3.3631330    -0.3381970    -0.1530850
  H        0.6957430     2.6486760    -0.5454840
  H        2.4328210     2.9512940    -0.4556920
  H        1.5246440     2.5856330     1.0178510
units angstrom
no_reorient  #important for SAPT in psi4, default
symmetry c1  #important for SAPT in psi4, default
}

set PROPERTIES_ORIGIN ["COM"]
properties('MP2/aug-cc-pvtz', properties = ['dipole'])
--------------------------------------------------------------------------

    Molecular point group: c1
  Charge       = 0
  Multiplicity = 1
  Basis Set: AUG-CC-PVTZ
    Blend: AUG-CC-PVTZ
  Basis Set: (AUG-CC-PVTZ AUX)
    Blend: AUG-CC-PVTZ-JKFIT

    Orbital Energies [Eh]
    ---------------------

    Doubly Occupied:

       1A    -91.938876     2A    -11.254281     3A    -11.252637
       4A    -11.242279     5A    -11.225951     6A    -11.224688
       7A    -11.219991     8A    -11.219834     9A     -8.939441
      10A     -6.620344    11A     -6.619994    12A     -6.618753
      13A     -1.137150    14A     -1.050846    15A     -1.025835
      16A     -0.923450    17A     -0.903312    18A     -0.836192
      19A     -0.796697    20A     -0.754393    21A     -0.644617
      22A     -0.626714    23A     -0.598497    24A     -0.594304
      25A     -0.574567    26A     -0.563333    27A     -0.538659
      28A     -0.528217    29A     -0.513074    30A     -0.500413
      31A     -0.491144    32A     -0.473625    33A     -0.468355
      34A     -0.427935    35A     -0.380014    36A     -0.332008

  @DF-RHF Final Energy:  -670.83641256857766

   => Energetics <=

    Nuclear Repulsion Energy =            466.9493254732062155
    One-Electron Energy =               -1845.4506399031438377
    Two-Electron Energy =                 707.6649018613599083
    Total Energy =                       -670.8364125685776571
  Basis Set: (AUG-CC-PVTZ AUX)
    Blend: AUG-CC-PVTZ-RI
    Molecular point group: c1

    Geometry (in Angstrom), charge = 0, multiplicity = 1:

       Center              X                  Y                   Z               Mass
    ------------   -----------------  -----------------  -----------------  -----------------
         S            0.948052769229    -1.751989065454     0.030984118960    31.972071174400
         C           -0.640371230771     0.070550934546    -0.244890881040    12.000000000000
         C            0.895460669229    -0.008238365454     0.449683218960    12.000000000000
         C           -0.855245230771    -1.451805065454    -0.150978881040    12.000000000000
         C           -1.694937230771     0.929600934546     0.437192118960    12.000000000000
         C            1.840565769229     0.941425934546    -0.261782881040    12.000000000000
         C           -3.069865230771     0.782777934546    -0.211499881040    12.000000000000
         C            1.563801769229     2.430114934546    -0.056298881040    12.000000000000
         H           -0.554854230771     0.352336934546    -1.304030881040     1.007825032230
         H            0.733726769229     0.225929934546     1.449437118960     1.007825032230
         H           -1.398451230771    -1.739502065454     0.754897118960     1.007825032230
         H           -1.308264230771    -1.939038065454    -1.017128881040     1.007825032230
         H           -1.384813230771     1.980968934546     0.416383118960     1.007825032230
         H           -1.750111230771     0.641810934546     1.495356118960     1.007825032230
         H            2.817041769229     0.683398934546     0.167280118960     1.007825032230
         H            1.897916769229     0.710979934546    -1.331865881040     1.007825032230
         H           -3.036282230771     1.077881934546    -1.264917881040     1.007825032230
         H           -3.813675230771     1.408543934546     0.289987118960     1.007825032230
         H           -3.419072230771    -0.253153065454    -0.163735881040     1.007825032230
         H            0.639803769229     2.733719934546    -0.556134881040     1.007825032230
         H            2.376881769229     3.036337934546    -0.466342881040     1.007825032230
         H            1.468704769229     2.670676934546     1.007200118960     1.007825032230

  Basis Set: AUG-CC-PVTZ
    Blend: AUG-CC-PVTZ
  Basis Set: (AUG-CC-PVTZ AUX)
    Blend: AUG-CC-PVTZ-JKFIT
	 Reference Energy          =    -670.8364125685776571 [Eh]
	 Singles Energy            =      -0.0000000000000000 [Eh]
	 Same-Spin Energy          =      -0.3558939268425070 [Eh]
	 Opposite-Spin Energy      =      -1.2400843206244689 [Eh]
	 Correlation Energy        =      -1.5959782474669759 [Eh]
	 Total Energy              =    -672.4323908160446308 [Eh]

	 ================> DF-SCS-MP2 Energies <==================
	-----------------------------------------------------------
	 SCS Same-Spin Scale       =       0.3333333333333333 [-]
	 SCS Opposite-Spin Scale   =       1.2000000000000000 [-]
	 SCS Same-Spin Energy      =      -0.1186313089475023 [Eh]
	 SCS Opposite-Spin Energy  =      -1.4881011847493626 [Eh]
	 SCS Correlation Energy    =      -1.6067324936968650 [Eh]
	 SCS Total Energy          =    -672.4431450622745388 [Eh]
	-----------------------------------------------------------

  Dipole Moment: [D]
     X:    -1.3132      Y:     1.7415      Z:     0.0460     Total:     2.1817

*** Psi4 exiting successfully. Buy a developer a beer!
