                               Psi4 1.3.2 release

  ==> Input File <==

--------------------------------------------------------------------------
#psi4
#
memory 32 gb

molecule  {
0 1
  S        1.0039920    -1.8370330     0.0416350
  C       -0.5844320    -0.0144930    -0.2342400
  C        0.8722265    -0.0502270     0.4047519
  C       -0.7993060    -1.5368490    -0.1403280
  C       -1.6389980     0.8445570     0.4478430
  C        1.8965050     0.8563820    -0.2511320
  C       -3.0139260     0.6977340    -0.2008490
  C        1.6197410     2.3450710    -0.0456480
  H       -0.4989150     0.2672930    -1.2933800
  H        0.7896660     0.1408860     1.4600880
  H       -1.3425120    -1.8245460     0.7655480
  H       -1.2523250    -2.0240820    -1.0064780
  H       -1.3288740     1.8959250     0.4270340
  H       -1.6941720     0.5567670     1.5060070
  H        2.8729810     0.5983550     0.1779310
  H        1.9538560     0.6259360    -1.3212150
  H       -2.9803430     0.9928380    -1.2542670
  H       -3.7577360     1.3235000     0.3006380
  H       -3.3631330    -0.3381970    -0.1530850
  H        0.6957430     2.6486760    -0.5454840
  H        2.4328210     2.9512940    -0.4556920
  H        1.5246440     2.5856330     1.0178510
units angstrom
no_reorient  #important for SAPT in psi4, default
symmetry c1  #important for SAPT in psi4, default
}

set PROPERTIES_ORIGIN ["COM"]
properties('MP2/aug-cc-pvtz', properties = ['dipole'])
--------------------------------------------------------------------------

    Molecular point group: c1
  Charge       = 0
  Multiplicity = 1
  Basis Set: AUG-CC-PVTZ
    Blend: AUG-CC-PVTZ
  Basis Set: (AUG-CC-PVTZ AUX)
    Blend: AUG-CC-PVTZ-JKFIT

    Orbital Energies [Eh]
    ---------------------

    Doubly Occupied:

       1A    -91.936259     2A    -11.255426     3A    -11.252574
       4A    -11.240105     5A    -11.226451     6A    -11.224883
       7A    -11.219974     8A    -11.219600     9A     -8.936761
      10A     -6.617589    11A     -6.617263    12A     -6.616013
      13A     -1.143671    14A     -1.050569    15A     -1.026218
      16A     -0.918904    17A     -0.907608    18A     -0.833718
      19A     -0.802269    20A     -0.749489    21A     -0.647780
      22A     -0.630605    23A     -0.599729    24A     -0.596542
      25A     -0.572094    26A     -0.557653    27A     -0.539381
      28A     -0.529600    29A     -0.516813    30A     -0.501532
      31A     -0.486940    32A     -0.473081    33A     -0.460658
      34A     -0.432153    35A     -0.392990    36A     -0.331891

  @DF-RHF Final Energy:  -670.85168110104121

   => Energetics <=

    Nuclear Repulsion Energy =            467.7797203762098093
    One-Electron Energy =               -1847.1332268246774220
    Two-Electron Energy =                 708.5018253474264611
    Total Energy =                       -670.8516811010412084
  Basis Set: (AUG-CC-PVTZ AUX)
    Blend: AUG-CC-PVTZ-RI
    Molecular point group: c1

    Geometry (in Angstrom), charge = 0, multiplicity = 1:

       Center              X                  Y                   Z               Mass
    ------------   -----------------  -----------------  -----------------  -----------------
         S            0.955356497367    -1.755960907083     0.036111564264    31.972071174400
         C           -0.633067502633     0.066579092917    -0.239763435736    12.000000000000
         C            0.823590997367     0.030845092917     0.399228464264    12.000000000000
         C           -0.847941502633    -1.455776907083    -0.145851435736    12.000000000000
         C           -1.687633502633     0.925629092917     0.442319564264    12.000000000000
         C            1.847869497367     0.937454092917    -0.256655435736    12.000000000000
         C           -3.062561502633     0.778806092917    -0.206372435736    12.000000000000
         C            1.571105497367     2.426143092917    -0.051171435736    12.000000000000
         H           -0.547550502633     0.348365092917    -1.298903435736     1.007825032230
         H            0.741030497367     0.221958092917     1.454564564264     1.007825032230
         H           -1.391147502633    -1.743473907083     0.760024564264     1.007825032230
         H           -1.300960502633    -1.943009907083    -1.012001435736     1.007825032230
         H           -1.377509502633     1.976997092917     0.421510564264     1.007825032230
         H           -1.742807502633     0.637839092917     1.500483564264     1.007825032230
         H            2.824345497367     0.679427092917     0.172407564264     1.007825032230
         H            1.905220497367     0.707008092917    -1.326738435736     1.007825032230
         H           -3.028978502633     1.073910092917    -1.259790435736     1.007825032230
         H           -3.806371502633     1.404572092917     0.295114564264     1.007825032230
         H           -3.411768502633    -0.257124907083    -0.158608435736     1.007825032230
         H            0.647107497367     2.729748092917    -0.551007435736     1.007825032230
         H            2.384185497367     3.032366092917    -0.461215435736     1.007825032230
         H            1.476008497367     2.666705092917     1.012327564264     1.007825032230

  Basis Set: AUG-CC-PVTZ
    Blend: AUG-CC-PVTZ
  Basis Set: (AUG-CC-PVTZ AUX)
    Blend: AUG-CC-PVTZ-JKFIT
	 Reference Energy          =    -670.8516811010412084 [Eh]
	 Singles Energy            =      -0.0000000000000000 [Eh]
	 Same-Spin Energy          =      -0.3556044940359869 [Eh]
	 Opposite-Spin Energy      =      -1.2390499459786457 [Eh]
	 Correlation Energy        =      -1.5946544400146325 [Eh]
	 Total Energy              =    -672.4463355410558734 [Eh]

	 ================> DF-SCS-MP2 Energies <==================
	-----------------------------------------------------------
	 SCS Same-Spin Scale       =       0.3333333333333333 [-]
	 SCS Opposite-Spin Scale   =       1.2000000000000000 [-]
	 SCS Same-Spin Energy      =      -0.1185348313453290 [Eh]
	 SCS Opposite-Spin Energy  =      -1.4868599351743748 [Eh]
	 SCS Correlation Energy    =      -1.6053947665197037 [Eh]
	 SCS Total Energy          =    -672.4570758675608886 [Eh]
	-----------------------------------------------------------

  Dipole Moment: [D]
     X:    -1.2828      Y:     1.7589      Z:     0.0475     Total:     2.1775

*** Psi4 exiting successfully. Buy a developer a beer!
