                               Psi4 1.3.2 release

  ==> Input File <==

--------------------------------------------------------------------------
#psi4
#
memory 32 gb

molecule  {
0 1
  S        1.0039920    -1.8370330     0.0416350
  C       -0.5737516    -0.0189790    -0.2585808
  C        0.8344880    -0.0270290     0.3757450
  C       -0.7993060    -1.5368490    -0.1403280
  C       -1.6389980     0.8445570     0.4478430
  C        1.8965050     0.8563820    -0.2511320
  C       -3.0139260     0.6977340    -0.2008490
  C        1.6197410     2.3450710    -0.0456480
  H       -0.4989150     0.2672930    -1.2933800
  H        0.7896660     0.1408860     1.4600880
  H       -1.3425120    -1.8245460     0.7655480
  H       -1.2523250    -2.0240820    -1.0064780
  H       -1.3288740     1.8959250     0.4270340
  H       -1.6941720     0.5567670     1.5060070
  H        2.8729810     0.5983550     0.1779310
  H        1.9538560     0.6259360    -1.3212150
  H       -2.9803430     0.9928380    -1.2542670
  H       -3.7577360     1.3235000     0.3006380
  H       -3.3631330    -0.3381970    -0.1530850
  H        0.6957430     2.6486760    -0.5454840
  H        2.4328210     2.9512940    -0.4556920
  H        1.5246440     2.5856330     1.0178510
units angstrom
no_reorient  #important for SAPT in psi4, default
symmetry c1  #important for SAPT in psi4, default
}

set PROPERTIES_ORIGIN ["COM"]
properties('MP2/aug-cc-pvtz', properties = ['dipole'])
--------------------------------------------------------------------------

    Molecular point group: c1
  Charge       = 0
  Multiplicity = 1
  Basis Set: AUG-CC-PVTZ
    Blend: AUG-CC-PVTZ
  Basis Set: (AUG-CC-PVTZ AUX)
    Blend: AUG-CC-PVTZ-JKFIT

    Orbital Energies [Eh]
    ---------------------

    Doubly Occupied:

       1A    -91.934674     2A    -11.256927     3A    -11.252522
       4A    -11.237943     5A    -11.227285     6A    -11.225307
       7A    -11.219628     8A    -11.219538     9A     -8.935127
      10A     -6.615920    11A     -6.615589    12A     -6.614346
      13A     -1.147301    14A     -1.049393    15A     -1.025694
      16A     -0.917717    17A     -0.908252    18A     -0.832298
      19A     -0.805910    20A     -0.749046    21A     -0.648989
      22A     -0.631993    23A     -0.600595    24A     -0.597079
      25A     -0.570792    26A     -0.554760    27A     -0.542016
      28A     -0.530316    29A     -0.518568    30A     -0.500630
      31A     -0.485190    32A     -0.475088    33A     -0.459405
      34A     -0.435525    35A     -0.391473    36A     -0.331154

  @DF-RHF Final Energy:  -670.85305643921515

   => Energetics <=

    Nuclear Repulsion Energy =            468.0792658307586294
    One-Electron Energy =               -1847.7366671748698082
    Two-Electron Energy =                 708.8043449048959701
    Total Energy =                       -670.8530564392151518
  Basis Set: (AUG-CC-PVTZ AUX)
    Blend: AUG-CC-PVTZ-RI
    Molecular point group: c1

    Geometry (in Angstrom), charge = 0, multiplicity = 1:

       Center              X                  Y                   Z               Mass
    ------------   -----------------  -----------------  -----------------  -----------------
         S            0.957852600936    -1.757687084826     0.041032877452    31.972071174400
         C           -0.619890999064     0.060366915174    -0.259182922548    12.000000000000
         C            0.788348600936     0.052316915174     0.375142877452    12.000000000000
         C           -0.845445399064    -1.457503084826    -0.140930122548    12.000000000000
         C           -1.685137399064     0.923902915174     0.447240877452    12.000000000000
         C            1.850365600936     0.935727915174    -0.251734122548    12.000000000000
         C           -3.060065399064     0.777079915174    -0.201451122548    12.000000000000
         C            1.573601600936     2.424416915174    -0.046250122548    12.000000000000
         H           -0.545054399064     0.346638915174    -1.293982122548     1.007825032230
         H            0.743526600936     0.220231915174     1.459485877452     1.007825032230
         H           -1.388651399064    -1.745200084826     0.764945877452     1.007825032230
         H           -1.298464399064    -1.944736084826    -1.007080122548     1.007825032230
         H           -1.375013399064     1.975270915174     0.426431877452     1.007825032230
         H           -1.740311399064     0.636112915174     1.505404877452     1.007825032230
         H            2.826841600936     0.677700915174     0.177328877452     1.007825032230
         H            1.907716600936     0.705281915174    -1.321817122548     1.007825032230
         H           -3.026482399064     1.072183915174    -1.254869122548     1.007825032230
         H           -3.803875399064     1.402845915174     0.300035877452     1.007825032230
         H           -3.409272399064    -0.258851084826    -0.153687122548     1.007825032230
         H            0.649603600936     2.728021915174    -0.546086122548     1.007825032230
         H            2.386681600936     3.030639915174    -0.456294122548     1.007825032230
         H            1.478504600936     2.664978915174     1.017248877452     1.007825032230

  Basis Set: AUG-CC-PVTZ
    Blend: AUG-CC-PVTZ
  Basis Set: (AUG-CC-PVTZ AUX)
    Blend: AUG-CC-PVTZ-JKFIT
	 Reference Energy          =    -670.8530564392151518 [Eh]
	 Singles Energy            =      -0.0000000000000000 [Eh]
	 Same-Spin Energy          =      -0.3556228435587968 [Eh]
	 Opposite-Spin Energy      =      -1.2389921771230068 [Eh]
	 Correlation Energy        =      -1.5946150206818035 [Eh]
	 Total Energy              =    -672.4476714598969238 [Eh]

	 ================> DF-SCS-MP2 Energies <==================
	-----------------------------------------------------------
	 SCS Same-Spin Scale       =       0.3333333333333333 [-]
	 SCS Opposite-Spin Scale   =       1.2000000000000000 [-]
	 SCS Same-Spin Energy      =      -0.1185409478529322 [Eh]
	 SCS Opposite-Spin Energy  =      -1.4867906125476080 [Eh]
	 SCS Correlation Energy    =      -1.6053315604005403 [Eh]
	 SCS Total Energy          =    -672.4583879996156384 [Eh]
	-----------------------------------------------------------

  Dipole Moment: [D]
     X:    -1.2671      Y:     1.7740      Z:     0.0310     Total:     2.1802

*** Psi4 exiting successfully. Buy a developer a beer!
