                               Psi4 1.3.2 release

  ==> Input File <==

--------------------------------------------------------------------------
#psi4
#
memory 32 gb

molecule  {
0 1
  S        1.0039920    -1.8370330     0.0416350
  C       -0.6601150    -0.0479878    -0.3007994
  C        0.8344880    -0.0270290     0.3757450
  C       -0.7993060    -1.5368490    -0.1403280
  C       -1.6389980     0.8445570     0.4478430
  C        1.8965050     0.8563820    -0.2511320
  C       -3.0139260     0.6977340    -0.2008490
  C        1.6197410     2.3450710    -0.0456480
  H       -0.4989150     0.2672930    -1.2933800
  H        0.7896660     0.1408860     1.4600880
  H       -1.3425120    -1.8245460     0.7655480
  H       -1.2523250    -2.0240820    -1.0064780
  H       -1.3288740     1.8959250     0.4270340
  H       -1.6941720     0.5567670     1.5060070
  H        2.8729810     0.5983550     0.1779310
  H        1.9538560     0.6259360    -1.3212150
  H       -2.9803430     0.9928380    -1.2542670
  H       -3.7577360     1.3235000     0.3006380
  H       -3.3631330    -0.3381970    -0.1530850
  H        0.6957430     2.6486760    -0.5454840
  H        2.4328210     2.9512940    -0.4556920
  H        1.5246440     2.5856330     1.0178510
units angstrom
no_reorient  #important for SAPT in psi4, default
symmetry c1  #important for SAPT in psi4, default
}

set PROPERTIES_ORIGIN ["COM"]
properties('MP2/aug-cc-pvtz', properties = ['dipole'])
--------------------------------------------------------------------------

    Molecular point group: c1
  Charge       = 0
  Multiplicity = 1
  Basis Set: AUG-CC-PVTZ
    Blend: AUG-CC-PVTZ
  Basis Set: (AUG-CC-PVTZ AUX)
    Blend: AUG-CC-PVTZ-JKFIT

    Orbital Energies [Eh]
    ---------------------

    Doubly Occupied:

       1A    -91.934625     2A    -11.258740     3A    -11.252490
       4A    -11.238196     5A    -11.227271     6A    -11.225077
       7A    -11.219198     8A    -11.218330     9A     -8.934985
      10A     -6.615819    11A     -6.615425    12A     -6.614222
      13A     -1.141790    14A     -1.051807    15A     -1.026569
      16A     -0.918238    17A     -0.905694    18A     -0.834799
      19A     -0.801605    20A     -0.749806    21A     -0.650357
      22A     -0.630611    23A     -0.604376    24A     -0.596840
      25A     -0.570331    26A     -0.553106    27A     -0.544705
      28A     -0.527680    29A     -0.515994    30A     -0.502161
      31A     -0.485602    32A     -0.481350    33A     -0.461426
      34A     -0.428863    35A     -0.385057    36A     -0.330365

  @DF-RHF Final Energy:  -670.84428632617016

   => Energetics <=

    Nuclear Repulsion Energy =            467.3316709093729173
    One-Electron Energy =               -1846.2448940392218901
    Two-Electron Energy =                 708.0689368036788665
    Total Energy =                       -670.8442863261701632
  Basis Set: (AUG-CC-PVTZ AUX)
    Blend: AUG-CC-PVTZ-RI
    Molecular point group: c1

    Geometry (in Angstrom), charge = 0, multiplicity = 1:

       Center              X                  Y                   Z               Mass
    ------------   -----------------  -----------------  -----------------  -----------------
         S            0.965819604937    -1.755011029626     0.044927533697    31.972071174400
         C           -0.698287395063     0.034034170374    -0.297506866303    12.000000000000
         C            0.796315604937     0.054992970374     0.379037533697    12.000000000000
         C           -0.837478395063    -1.454827029626    -0.137035466303    12.000000000000
         C           -1.677170395063     0.926578970374     0.451135533697    12.000000000000
         C            1.858332604937     0.938403970374    -0.247839466303    12.000000000000
         C           -3.052098395063     0.779755970374    -0.197556466303    12.000000000000
         C            1.581568604937     2.427092970374    -0.042355466303    12.000000000000
         H           -0.537087395063     0.349314970374    -1.290087466303     1.007825032230
         H            0.751493604937     0.222907970374     1.463380533697     1.007825032230
         H           -1.380684395063    -1.742524029626     0.768840533697     1.007825032230
         H           -1.290497395063    -1.942060029626    -1.003185466303     1.007825032230
         H           -1.367046395063     1.977946970374     0.430326533697     1.007825032230
         H           -1.732344395063     0.638788970374     1.509299533697     1.007825032230
         H            2.834808604937     0.680376970374     0.181223533697     1.007825032230
         H            1.915683604937     0.707957970374    -1.317922466303     1.007825032230
         H           -3.018515395063     1.074859970374    -1.250974466303     1.007825032230
         H           -3.795908395063     1.405521970374     0.303930533697     1.007825032230
         H           -3.401305395063    -0.256175029626    -0.149792466303     1.007825032230
         H            0.657570604937     2.730697970374    -0.542191466303     1.007825032230
         H            2.394648604937     3.033315970374    -0.452399466303     1.007825032230
         H            1.486471604937     2.667654970374     1.021143533697     1.007825032230

  Basis Set: AUG-CC-PVTZ
    Blend: AUG-CC-PVTZ
  Basis Set: (AUG-CC-PVTZ AUX)
    Blend: AUG-CC-PVTZ-JKFIT
	 Reference Energy          =    -670.8442863261701632 [Eh]
	 Singles Energy            =      -0.0000000000000000 [Eh]
	 Same-Spin Energy          =      -0.3559040173493523 [Eh]
	 Opposite-Spin Energy      =      -1.2398197490546989 [Eh]
	 Correlation Energy        =      -1.5957237664040513 [Eh]
	 Total Energy              =    -672.4400100925741981 [Eh]

	 ================> DF-SCS-MP2 Energies <==================
	-----------------------------------------------------------
	 SCS Same-Spin Scale       =       0.3333333333333333 [-]
	 SCS Opposite-Spin Scale   =       1.2000000000000000 [-]
	 SCS Same-Spin Energy      =      -0.1186346724497841 [Eh]
	 SCS Opposite-Spin Energy  =      -1.4877836988656388 [Eh]
	 SCS Correlation Energy    =      -1.6064183713154230 [Eh]
	 SCS Total Energy          =    -672.4507046974855484 [Eh]
	-----------------------------------------------------------

  Dipole Moment: [D]
     X:    -1.2549      Y:     1.8074      Z:     0.0484     Total:     2.2009

*** Psi4 exiting successfully. Buy a developer a beer!
