                               Psi4 1.3.2 release

  ==> Input File <==

--------------------------------------------------------------------------
#psi4
#
memory 32 gb

molecule  {
0 1
  S        1.0039920    -1.8370330     0.0416350
  C       -0.5391504    -0.0324464    -0.3304144
  C        0.8344880    -0.0270290     0.3757450
  C       -0.7993060    -1.5368490    -0.1403280
  C       -1.6389980     0.8445570     0.4478430
  C        1.8965050     0.8563820    -0.2511320
  C       -3.0139260     0.6977340    -0.2008490
  C        1.6197410     2.3450710    -0.0456480
  H       -0.4989150     0.2672930    -1.2933800
  H        0.7896660     0.1408860     1.4600880
  H       -1.3425120    -1.8245460     0.7655480
  H       -1.2523250    -2.0240820    -1.0064780
  H       -1.3288740     1.8959250     0.4270340
  H       -1.6941720     0.5567670     1.5060070
  H        2.8729810     0.5983550     0.1779310
  H        1.9538560     0.6259360    -1.3212150
  H       -2.9803430     0.9928380    -1.2542670
  H       -3.7577360     1.3235000     0.3006380
  H       -3.3631330    -0.3381970    -0.1530850
  H        0.6957430     2.6486760    -0.5454840
  H        2.4328210     2.9512940    -0.4556920
  H        1.5246440     2.5856330     1.0178510
units angstrom
no_reorient  #important for SAPT in psi4, default
symmetry c1  #important for SAPT in psi4, default
}

set PROPERTIES_ORIGIN ["COM"]
properties('MP2/aug-cc-pvtz', properties = ['dipole'])
--------------------------------------------------------------------------

    Molecular point group: c1
  Charge       = 0
  Multiplicity = 1
  Basis Set: AUG-CC-PVTZ
    Blend: AUG-CC-PVTZ
  Basis Set: (AUG-CC-PVTZ AUX)
    Blend: AUG-CC-PVTZ-JKFIT

    Orbital Energies [Eh]
    ---------------------

    Doubly Occupied:

       1A    -91.934129     2A    -11.256930     3A    -11.252706
       4A    -11.236114     5A    -11.228690     6A    -11.224816
       7A    -11.219553     8A    -11.218366     9A     -8.934643
      10A     -6.615394    11A     -6.615120    12A     -6.613857
      13A     -1.146800    14A     -1.046373    15A     -1.023083
      16A     -0.917759    17A     -0.906464    18A     -0.831700
      19A     -0.807220    20A     -0.755848    21A     -0.647875
      22A     -0.631471    23A     -0.598874    24A     -0.596194
      25A     -0.570697    26A     -0.553755    27A     -0.550872
      28A     -0.529414    29A     -0.517759    30A     -0.496546
      31A     -0.485176    32A     -0.480632    33A     -0.458303
      34A     -0.436416    35A     -0.381997    36A     -0.331058

  @DF-RHF Final Energy:  -670.84166599729747

   => Energetics <=

    Nuclear Repulsion Energy =            467.8345572997168915
    One-Electron Energy =               -1847.2472379302926129
    Two-Electron Energy =                 708.5710146332783097
    Total Energy =                       -670.8416659972974685
  Basis Set: (AUG-CC-PVTZ AUX)
    Blend: AUG-CC-PVTZ-RI
    Molecular point group: c1

    Geometry (in Angstrom), charge = 0, multiplicity = 1:

       Center              X                  Y                   Z               Mass
    ------------   -----------------  -----------------  -----------------  -----------------
         S            0.954660648108    -1.756444720240     0.047659510709    31.972071174400
         C           -0.588481751892     0.048141879760    -0.324389889291    12.000000000000
         C            0.785156648108     0.053559279760     0.381769510709    12.000000000000
         C           -0.848637351892    -1.456260720240    -0.134303489291    12.000000000000
         C           -1.688329351892     0.925145279760     0.453867510709    12.000000000000
         C            1.847173648108     0.936970279760    -0.245107489291    12.000000000000
         C           -3.063257351892     0.778322279760    -0.194824489291    12.000000000000
         C            1.570409648108     2.425659279760    -0.039623489291    12.000000000000
         H           -0.548246351892     0.347881279760    -1.287355489291     1.007825032230
         H            0.740334648108     0.221474279760     1.466112510709     1.007825032230
         H           -1.391843351892    -1.743957720240     0.771572510709     1.007825032230
         H           -1.301656351892    -1.943493720240    -1.000453489291     1.007825032230
         H           -1.378205351892     1.976513279760     0.433058510709     1.007825032230
         H           -1.743503351892     0.637355279760     1.512031510709     1.007825032230
         H            2.823649648108     0.678943279760     0.183955510709     1.007825032230
         H            1.904524648108     0.706524279760    -1.315190489291     1.007825032230
         H           -3.029674351892     1.073426279760    -1.248242489291     1.007825032230
         H           -3.807067351892     1.404088279760     0.306662510709     1.007825032230
         H           -3.412464351892    -0.257608720240    -0.147060489291     1.007825032230
         H            0.646411648108     2.729264279760    -0.539459489291     1.007825032230
         H            2.383489648108     3.031882279760    -0.449667489291     1.007825032230
         H            1.475312648108     2.666221279760     1.023875510709     1.007825032230

  Basis Set: AUG-CC-PVTZ
    Blend: AUG-CC-PVTZ
  Basis Set: (AUG-CC-PVTZ AUX)
    Blend: AUG-CC-PVTZ-JKFIT
	 Reference Energy          =    -670.8416659972974685 [Eh]
	 Singles Energy            =      -0.0000000000000000 [Eh]
	 Same-Spin Energy          =      -0.3554742670697994 [Eh]
	 Opposite-Spin Energy      =      -1.2391825822962810 [Eh]
	 Correlation Energy        =      -1.5946568493660804 [Eh]
	 Total Energy              =    -672.4363228466635292 [Eh]

	 ================> DF-SCS-MP2 Energies <==================
	-----------------------------------------------------------
	 SCS Same-Spin Scale       =       0.3333333333333333 [-]
	 SCS Opposite-Spin Scale   =       1.2000000000000000 [-]
	 SCS Same-Spin Energy      =      -0.1184914223565998 [Eh]
	 SCS Opposite-Spin Energy  =      -1.4870190987555372 [Eh]
	 SCS Correlation Energy    =      -1.6055105211121370 [Eh]
	 SCS Total Energy          =    -672.4471765184096057 [Eh]
	-----------------------------------------------------------

  Dipole Moment: [D]
     X:    -1.2448      Y:     1.7611      Z:     0.0032     Total:     2.1566

*** Psi4 exiting successfully. Buy a developer a beer!
