                               Psi4 1.3.2 release

  ==> Input File <==

--------------------------------------------------------------------------
#psi4
#
memory 32 gb

molecule  {
0 1
  S        1.0039920    -1.8370330     0.0416350
  C       -0.5844320    -0.0144930    -0.2342400
  C        0.8328838    -0.0538135     0.3783305
  C       -0.7993060    -1.5368490    -0.1403280
  C       -1.6389980     0.8445570     0.4478430
  C        1.8965050     0.8563820    -0.2511320
  C       -3.0139260     0.6977340    -0.2008490
  C        1.6197410     2.3450710    -0.0456480
  H       -0.4989150     0.2672930    -1.2933800
  H        0.7896660     0.1408860     1.4600880
  H       -1.3425120    -1.8245460     0.7655480
  H       -1.2523250    -2.0240820    -1.0064780
  H       -1.3288740     1.8959250     0.4270340
  H       -1.6941720     0.5567670     1.5060070
  H        2.8729810     0.5983550     0.1779310
  H        1.9538560     0.6259360    -1.3212150
  H       -2.9803430     0.9928380    -1.2542670
  H       -3.7577360     1.3235000     0.3006380
  H       -3.3631330    -0.3381970    -0.1530850
  H        0.6957430     2.6486760    -0.5454840
  H        2.4328210     2.9512940    -0.4556920
  H        1.5246440     2.5856330     1.0178510
units angstrom
no_reorient  #important for SAPT in psi4, default
symmetry c1  #important for SAPT in psi4, default
}

set PROPERTIES_ORIGIN ["COM"]
properties('MP2/aug-cc-pvtz', properties = ['dipole'])
--------------------------------------------------------------------------

    Molecular point group: c1
  Charge       = 0
  Multiplicity = 1
  Basis Set: AUG-CC-PVTZ
    Blend: AUG-CC-PVTZ
  Basis Set: (AUG-CC-PVTZ AUX)
    Blend: AUG-CC-PVTZ-JKFIT

    Orbital Energies [Eh]
    ---------------------

    Doubly Occupied:

       1A    -91.935665     2A    -11.256141     3A    -11.253006
       4A    -11.238242     5A    -11.226822     6A    -11.225556
       7A    -11.220137     8A    -11.219255     9A     -8.936400
      10A     -6.617226    11A     -6.616893    12A     -6.615623
      13A     -1.148960    14A     -1.048916    15A     -1.026681
      16A     -0.916968    17A     -0.910254    18A     -0.832936
      19A     -0.805374    20A     -0.745845    21A     -0.649003
      22A     -0.631677    23A     -0.601003    24A     -0.596888
      25A     -0.570557    26A     -0.555509    27A     -0.539906
      28A     -0.529885    29A     -0.517599    30A     -0.501962
      31A     -0.483524    32A     -0.471269    33A     -0.461473
      34A     -0.433433    35A     -0.398065    36A     -0.331390

  @DF-RHF Final Energy:  -670.85294132587433

   => Energetics <=

    Nuclear Repulsion Energy =            468.3176219688467086
    One-Electron Energy =               -1848.2010378994016264
    Two-Electron Energy =                 709.0304746046806486
    Total Energy =                       -670.8529413258743261
  Basis Set: (AUG-CC-PVTZ AUX)
    Blend: AUG-CC-PVTZ-RI
    Molecular point group: c1

    Geometry (in Angstrom), charge = 0, multiplicity = 1:

       Center              X                  Y                   Z               Mass
    ------------   -----------------  -----------------  -----------------  -----------------
         S            0.958985852491    -1.755630053274     0.038548932403    31.972071174400
         C           -0.629438147509     0.066909946726    -0.237326067597    12.000000000000
         C            0.787877652491     0.027589446726     0.375244432403    12.000000000000
         C           -0.844312147509    -1.455446053274    -0.143414067597    12.000000000000
         C           -1.684004147509     0.925959946726     0.444756932403    12.000000000000
         C            1.851498852491     0.937784946726    -0.254218067597    12.000000000000
         C           -3.058932147509     0.779136946726    -0.203935067597    12.000000000000
         C            1.574734852491     2.426473946726    -0.048734067597    12.000000000000
         H           -0.543921147509     0.348695946726    -1.296466067597     1.007825032230
         H            0.744659852491     0.222288946726     1.457001932403     1.007825032230
         H           -1.387518147509    -1.743143053274     0.762461932403     1.007825032230
         H           -1.297331147509    -1.942679053274    -1.009564067597     1.007825032230
         H           -1.373880147509     1.977327946726     0.423947932403     1.007825032230
         H           -1.739178147509     0.638169946726     1.502920932403     1.007825032230
         H            2.827974852491     0.679757946726     0.174844932403     1.007825032230
         H            1.908849852491     0.707338946726    -1.324301067597     1.007825032230
         H           -3.025349147509     1.074240946726    -1.257353067597     1.007825032230
         H           -3.802742147509     1.404902946726     0.297551932403     1.007825032230
         H           -3.408139147509    -0.256794053274    -0.156171067597     1.007825032230
         H            0.650736852491     2.730078946726    -0.548570067597     1.007825032230
         H            2.387814852491     3.032696946726    -0.458778067597     1.007825032230
         H            1.479637852491     2.667035946726     1.014764932403     1.007825032230

  Basis Set: AUG-CC-PVTZ
    Blend: AUG-CC-PVTZ
  Basis Set: (AUG-CC-PVTZ AUX)
    Blend: AUG-CC-PVTZ-JKFIT
	 Reference Energy          =    -670.8529413258743261 [Eh]
	 Singles Energy            =      -0.0000000000000000 [Eh]
	 Same-Spin Energy          =      -0.3557656596886967 [Eh]
	 Opposite-Spin Energy      =      -1.2390791872890068 [Eh]
	 Correlation Energy        =      -1.5948448469777035 [Eh]
	 Total Energy              =    -672.4477861728520338 [Eh]

	 ================> DF-SCS-MP2 Energies <==================
	-----------------------------------------------------------
	 SCS Same-Spin Scale       =       0.3333333333333333 [-]
	 SCS Opposite-Spin Scale   =       1.2000000000000000 [-]
	 SCS Same-Spin Energy      =      -0.1185885532295655 [Eh]
	 SCS Opposite-Spin Energy  =      -1.4868950247468080 [Eh]
	 SCS Correlation Energy    =      -1.6054835779763736 [Eh]
	 SCS Total Energy          =    -672.4584249038507551 [Eh]
	-----------------------------------------------------------

  Dipole Moment: [D]
     X:    -1.2887      Y:     1.7266      Z:     0.0448     Total:     2.1549

*** Psi4 exiting successfully. Buy a developer a beer!
