                               Psi4 1.3.2 release

  ==> Input File <==

--------------------------------------------------------------------------
#psi4
#
memory 32 gb

molecule  {
0 1
  S        1.0039920    -1.8370330     0.0416350
  C       -0.5844320    -0.0144930    -0.2342400
  C        0.8363994     0.0265433     0.3700174
  C       -0.7993060    -1.5368490    -0.1403280
  C       -1.6389980     0.8445570     0.4478430
  C        1.8965050     0.8563820    -0.2511320
  C       -3.0139260     0.6977340    -0.2008490
  C        1.6197410     2.3450710    -0.0456480
  H       -0.4989150     0.2672930    -1.2933800
  H        0.7896660     0.1408860     1.4600880
  H       -1.3425120    -1.8245460     0.7655480
  H       -1.2523250    -2.0240820    -1.0064780
  H       -1.3288740     1.8959250     0.4270340
  H       -1.6941720     0.5567670     1.5060070
  H        2.8729810     0.5983550     0.1779310
  H        1.9538560     0.6259360    -1.3212150
  H       -2.9803430     0.9928380    -1.2542670
  H       -3.7577360     1.3235000     0.3006380
  H       -3.3631330    -0.3381970    -0.1530850
  H        0.6957430     2.6486760    -0.5454840
  H        2.4328210     2.9512940    -0.4556920
  H        1.5246440     2.5856330     1.0178510
units angstrom
no_reorient  #important for SAPT in psi4, default
symmetry c1  #important for SAPT in psi4, default
}

set PROPERTIES_ORIGIN ["COM"]
properties('MP2/aug-cc-pvtz', properties = ['dipole'])
--------------------------------------------------------------------------

    Molecular point group: c1
  Charge       = 0
  Multiplicity = 1
  Basis Set: AUG-CC-PVTZ
    Blend: AUG-CC-PVTZ
  Basis Set: (AUG-CC-PVTZ AUX)
    Blend: AUG-CC-PVTZ-JKFIT

    Orbital Energies [Eh]
    ---------------------

    Doubly Occupied:

       1A    -91.932959     2A    -11.259755     3A    -11.252060
       4A    -11.240338     5A    -11.226839     6A    -11.225486
       7A    -11.220286     8A    -11.220034     9A     -8.932920
      10A     -6.613702    11A     -6.613293    12A     -6.612122
      13A     -1.145824    14A     -1.055106    15A     -1.025632
      16A     -0.919710    17A     -0.907546    18A     -0.831472
      19A     -0.806556    20A     -0.748334    21A     -0.651986
      22A     -0.633973    23A     -0.602306    24A     -0.597815
      25A     -0.571757    26A     -0.556834    27A     -0.540048
      28A     -0.530329    29A     -0.521055    30A     -0.502386
      31A     -0.488837    32A     -0.472842    33A     -0.457555
      34A     -0.436818    35A     -0.384835    36A     -0.330175

  @DF-RHF Final Energy:  -670.85127360412321

   => Energetics <=

    Nuclear Repulsion Energy =            467.8735817008803792
    One-Electron Energy =               -1847.3106581328192988
    Two-Electron Energy =                 708.5858028278157690
    Total Energy =                       -670.8512736041232074
  Basis Set: (AUG-CC-PVTZ AUX)
    Blend: AUG-CC-PVTZ-RI
    Molecular point group: c1

    Geometry (in Angstrom), charge = 0, multiplicity = 1:

       Center              X                  Y                   Z               Mass
    ------------   -----------------  -----------------  -----------------  -----------------
         S            0.958661539190    -1.763042949792     0.039315813987    31.972071174400
         C           -0.629762460810     0.059497050208    -0.236559186013    12.000000000000
         C            0.791068939190     0.100533350208     0.367698213987    12.000000000000
         C           -0.844636460810    -1.462858949792    -0.142647186013    12.000000000000
         C           -1.684328460810     0.918547050208     0.445523813987    12.000000000000
         C            1.851174539190     0.930372050208    -0.253451186013    12.000000000000
         C           -3.059256460810     0.771724050208    -0.203168186013    12.000000000000
         C            1.574410539190     2.419061050208    -0.047967186013    12.000000000000
         H           -0.544245460810     0.341283050208    -1.295699186013     1.007825032230
         H            0.744335539190     0.214876050208     1.457768813987     1.007825032230
         H           -1.387842460810    -1.750555949792     0.763228813987     1.007825032230
         H           -1.297655460810    -1.950091949792    -1.008797186013     1.007825032230
         H           -1.374204460810     1.969915050208     0.424714813987     1.007825032230
         H           -1.739502460810     0.630757050208     1.503687813987     1.007825032230
         H            2.827650539190     0.672345050208     0.175611813987     1.007825032230
         H            1.908525539190     0.699926050208    -1.323534186013     1.007825032230
         H           -3.025673460810     1.066828050208    -1.256586186013     1.007825032230
         H           -3.803066460810     1.397490050208     0.298318813987     1.007825032230
         H           -3.408463460810    -0.264206949792    -0.155404186013     1.007825032230
         H            0.650412539190     2.722666050208    -0.547803186013     1.007825032230
         H            2.387490539190     3.025284050208    -0.458011186013     1.007825032230
         H            1.479313539190     2.659623050208     1.015531813987     1.007825032230

  Basis Set: AUG-CC-PVTZ
    Blend: AUG-CC-PVTZ
  Basis Set: (AUG-CC-PVTZ AUX)
    Blend: AUG-CC-PVTZ-JKFIT
	 Reference Energy          =    -670.8512736041232074 [Eh]
	 Singles Energy            =      -0.0000000000000000 [Eh]
	 Same-Spin Energy          =      -0.3559814308230472 [Eh]
	 Opposite-Spin Energy      =      -1.2395826341119123 [Eh]
	 Correlation Energy        =      -1.5955640649349594 [Eh]
	 Total Energy              =    -672.4468376690581408 [Eh]

	 ================> DF-SCS-MP2 Energies <==================
	-----------------------------------------------------------
	 SCS Same-Spin Scale       =       0.3333333333333333 [-]
	 SCS Opposite-Spin Scale   =       1.2000000000000000 [-]
	 SCS Same-Spin Energy      =      -0.1186604769410157 [Eh]
	 SCS Opposite-Spin Energy  =      -1.4874991609342947 [Eh]
	 SCS Correlation Energy    =      -1.6061596378753105 [Eh]
	 SCS Total Energy          =    -672.4574332419985012 [Eh]
	-----------------------------------------------------------

  Dipole Moment: [D]
     X:    -1.2457      Y:     1.8806      Z:     0.0378     Total:     2.2561

*** Psi4 exiting successfully. Buy a developer a beer!
