                               Psi4 1.4a3.dev225

  ==> Input File <==

--------------------------------------------------------------------------
#psi4
#
memory 32 gb

molecule  {
0 1
  S        1.0039920    -1.8370330     0.0416350
  C       -0.5844320    -0.0144930    -0.2342400
  C        0.8363221    -0.0466139     0.3721298
  C       -0.7993060    -1.5368490    -0.1403280
  C       -1.6389980     0.8445570     0.4478430
  C        1.8965050     0.8563820    -0.2511320
  C       -3.0139260     0.6977340    -0.2008490
  C        1.6197410     2.3450710    -0.0456480
  H       -0.4989150     0.2672930    -1.2933800
  H        0.7896660     0.1408860     1.4600880
  H       -1.3425120    -1.8245460     0.7655480
  H       -1.2523250    -2.0240820    -1.0064780
  H       -1.3288740     1.8959250     0.4270340
  H       -1.6941720     0.5567670     1.5060070
  H        2.8729810     0.5983550     0.1779310
  H        1.9538560     0.6259360    -1.3212150
  H       -2.9803430     0.9928380    -1.2542670
  H       -3.7577360     1.3235000     0.3006380
  H       -3.3631330    -0.3381970    -0.1530850
  H        0.6957430     2.6486760    -0.5454840
  H        2.4328210     2.9512940    -0.4556920
  H        1.5246440     2.5856330     1.0178510
units angstrom
no_reorient  #important for SAPT in psi4, default
symmetry c1  #important for SAPT in psi4, default
}

set PROPERTIES_ORIGIN ["COM"]
properties('MP2/aug-cc-pvtz', properties = ['dipole'])
--------------------------------------------------------------------------

    Molecular point group: c1
  Charge       = 0
  Multiplicity = 1
  Basis Set: AUG-CC-PVTZ
    Blend: AUG-CC-PVTZ
  Basis Set: (AUG-CC-PVTZ AUX)
    Blend: AUG-CC-PVTZ-JKFIT

    Orbital Energies [Eh]
    ---------------------

    Doubly Occupied:

       1A    -91.935565     2A    -11.256593     3A    -11.252955
       4A    -11.238442     5A    -11.226869     6A    -11.225379
       7A    -11.220163     8A    -11.219424     9A     -8.936224
      10A     -6.617046    11A     -6.616711    12A     -6.615448
      13A     -1.148685    14A     -1.049720    15A     -1.026816
      16A     -0.917295    17A     -0.910070    18A     -0.833094
      19A     -0.805545    20A     -0.745186    21A     -0.649339
      22A     -0.631869    23A     -0.601251    24A     -0.597037
      25A     -0.570597    26A     -0.555656    27A     -0.539962
      28A     -0.529727    29A     -0.518061    30A     -0.502124
      31A     -0.483779    32A     -0.471038    33A     -0.461008
      34A     -0.434421    35A     -0.397070    36A     -0.331320

  @DF-RHF Final Energy:  -670.85313988025371

   => Energetics <=

    Nuclear Repulsion Energy =            468.3055154562270559
    One-Electron Energy =               -1848.1743296435608954
    Two-Electron Energy =                 709.0156743070800758
    Total Energy =                       -670.8531398802537069
  Basis Set: (AUG-CC-PVTZ AUX)
    Blend: AUG-CC-PVTZ-RI
    Molecular point group: c1

    Geometry (in Angstrom), charge = 0, multiplicity = 1:

       Center              X                  Y                   Z               Mass
    ------------   -----------------  -----------------  -----------------  -----------------
         S            0.958668670098    -1.756294214736     0.039120945567    31.972071174400
         C           -0.629755329902     0.066245785264    -0.236754054433    12.000000000000
         C            0.790998770098     0.034124885264     0.369615745567    12.000000000000
         C           -0.844629329902    -1.456110214736    -0.142842054433    12.000000000000
         C           -1.684321329902     0.925295785264     0.445328945567    12.000000000000
         C            1.851181670098     0.937120785264    -0.253646054433    12.000000000000
         C           -3.059249329902     0.778472785264    -0.203363054433    12.000000000000
         C            1.574417670098     2.425809785264    -0.048162054433    12.000000000000
         H           -0.544238329902     0.348031785264    -1.295894054433     1.007825032230
         H            0.744342670098     0.221624785264     1.457573945567     1.007825032230
         H           -1.387835329902    -1.743807214736     0.763033945567     1.007825032230
         H           -1.297648329902    -1.943343214736    -1.008992054433     1.007825032230
         H           -1.374197329902     1.976663785264     0.424519945567     1.007825032230
         H           -1.739495329902     0.637505785264     1.503492945567     1.007825032230
         H            2.827657670098     0.679093785264     0.175416945567     1.007825032230
         H            1.908532670098     0.706674785264    -1.323729054433     1.007825032230
         H           -3.025666329902     1.073576785264    -1.256781054433     1.007825032230
         H           -3.803059329902     1.404238785264     0.298123945567     1.007825032230
         H           -3.408456329902    -0.257458214736    -0.155599054433     1.007825032230
         H            0.650419670098     2.729414785264    -0.547998054433     1.007825032230
         H            2.387497670098     3.032032785264    -0.458206054433     1.007825032230
         H            1.479320670098     2.666371785264     1.015336945567     1.007825032230

  Basis Set: AUG-CC-PVTZ
    Blend: AUG-CC-PVTZ
  Basis Set: (AUG-CC-PVTZ AUX)
    Blend: AUG-CC-PVTZ-JKFIT
	 Reference Energy          =    -670.8531398802537069 [Eh]
	 Singles Energy            =      -0.0000000000000000 [Eh]
	 Same-Spin Energy          =      -0.3557960516174196 [Eh]
	 Opposite-Spin Energy      =      -1.2391155789775308 [Eh]
	 Correlation Energy        =      -1.5949116305949504 [Eh]
	 Total Energy              =    -672.4480515108486998 [Eh]

	 ================> DF-SCS-MP2 Energies <==================
	-----------------------------------------------------------
	 SCS Same-Spin Scale       =       0.3333333333333333 [-]
	 SCS Opposite-Spin Scale   =       1.2000000000000000 [-]
	 SCS Same-Spin Energy      =      -0.1185986838724732 [Eh]
	 SCS Opposite-Spin Energy  =      -1.4869386947730370 [Eh]
	 SCS Correlation Energy    =      -1.6055373786455103 [Eh]
	 SCS Total Energy          =    -672.4586772588992289 [Eh]
	-----------------------------------------------------------

  Dipole Moment: [D]
     X:    -1.2849      Y:     1.7398      Z:     0.0417     Total:     2.1632

*** Psi4 exiting successfully. Buy a developer a beer!
