                               Psi4 1.3.2 release

  ==> Input File <==

--------------------------------------------------------------------------
#psi4
#
memory 32 gb

molecule  {
0 1
  S        1.0039920    -1.8370330     0.0416350
  C       -0.5844320    -0.0144930    -0.2342400
  C        0.8528289    -0.2228776     0.3395932
  C       -0.7993060    -1.5368490    -0.1403280
  C       -1.6389980     0.8445570     0.4478430
  C        1.8965050     0.8563820    -0.2511320
  C       -3.0139260     0.6977340    -0.2008490
  C        1.6197410     2.3450710    -0.0456480
  H       -0.4989150     0.2672930    -1.2933800
  H        0.7896660     0.1408860     1.4600880
  H       -1.3425120    -1.8245460     0.7655480
  H       -1.2523250    -2.0240820    -1.0064780
  H       -1.3288740     1.8959250     0.4270340
  H       -1.6941720     0.5567670     1.5060070
  H        2.8729810     0.5983550     0.1779310
  H        1.9538560     0.6259360    -1.3212150
  H       -2.9803430     0.9928380    -1.2542670
  H       -3.7577360     1.3235000     0.3006380
  H       -3.3631330    -0.3381970    -0.1530850
  H        0.6957430     2.6486760    -0.5454840
  H        2.4328210     2.9512940    -0.4556920
  H        1.5246440     2.5856330     1.0178510
units angstrom
no_reorient  #important for SAPT in psi4, default
symmetry c1  #important for SAPT in psi4, default
}

set PROPERTIES_ORIGIN ["COM"]
properties('MP2/aug-cc-pvtz', properties = ['dipole'])
--------------------------------------------------------------------------

    Molecular point group: c1
  Charge       = 0
  Multiplicity = 1
  Basis Set: AUG-CC-PVTZ
    Blend: AUG-CC-PVTZ
  Basis Set: (AUG-CC-PVTZ AUX)
    Blend: AUG-CC-PVTZ-JKFIT

    Orbital Energies [Eh]
    ---------------------

    Doubly Occupied:

       1A    -91.937461     2A    -11.256938     3A    -11.256203
       4A    -11.236818     5A    -11.228011     6A    -11.226006
       7A    -11.221198     8A    -11.219560     9A     -8.941733
      10A     -6.623069    11A     -6.622154    12A     -6.620839
      13A     -1.164875    14A     -1.048720    15A     -1.025700
      16A     -0.927447    17A     -0.906312    18A     -0.838222
      19A     -0.803180    20A     -0.730959    21A     -0.645469
      22A     -0.629632    23A     -0.600713    24A     -0.598115
      25A     -0.575017    26A     -0.551232    27A     -0.542568
      28A     -0.526655    29A     -0.514227    30A     -0.502366
      31A     -0.483638    32A     -0.476478    33A     -0.461854
      34A     -0.432034    35A     -0.398581    36A     -0.326264

  @DF-RHF Final Energy:  -670.81718400513478

   => Energetics <=

    Nuclear Repulsion Energy =            469.8164731328346306
    One-Electron Energy =               -1851.0668103490124849
    Two-Electron Energy =                 710.4331532110429634
    Total Energy =                       -670.8171840051347772
  Basis Set: (AUG-CC-PVTZ AUX)
    Blend: AUG-CC-PVTZ-RI
    Molecular point group: c1

    Geometry (in Angstrom), charge = 0, multiplicity = 1:

       Center              X                  Y                   Z               Mass
    ------------   -----------------  -----------------  -----------------  -----------------
         S            0.957145921553    -1.740033928513     0.042122439515    31.972071174400
         C           -0.631278078447     0.082506071487    -0.233752560485    12.000000000000
         C            0.805982821553    -0.125878528513     0.340080639515    12.000000000000
         C           -0.846152078447    -1.439849928513    -0.139840560485    12.000000000000
         C           -1.685844078447     0.941556071487     0.448330439515    12.000000000000
         C            1.849658921553     0.953381071487    -0.250644560485    12.000000000000
         C           -3.060772078447     0.794733071487    -0.200361560485    12.000000000000
         C            1.572894921553     2.442070071487    -0.045160560485    12.000000000000
         H           -0.545761078447     0.364292071487    -1.292892560485     1.007825032230
         H            0.742819921553     0.237885071487     1.460575439515     1.007825032230
         H           -1.389358078447    -1.727546928513     0.766035439515     1.007825032230
         H           -1.299171078447    -1.927082928513    -1.005990560485     1.007825032230
         H           -1.375720078447     1.992924071487     0.427521439515     1.007825032230
         H           -1.741018078447     0.653766071487     1.506494439515     1.007825032230
         H            2.826134921553     0.695354071487     0.178418439515     1.007825032230
         H            1.907009921553     0.722935071487    -1.320727560485     1.007825032230
         H           -3.027189078447     1.089837071487    -1.253779560485     1.007825032230
         H           -3.804582078447     1.420499071487     0.301125439515     1.007825032230
         H           -3.409979078447    -0.241197928513    -0.152597560485     1.007825032230
         H            0.648896921553     2.745675071487    -0.544996560485     1.007825032230
         H            2.385974921553     3.048293071487    -0.455204560485     1.007825032230
         H            1.477797921553     2.682632071487     1.018338439515     1.007825032230

  Basis Set: AUG-CC-PVTZ
    Blend: AUG-CC-PVTZ
  Basis Set: (AUG-CC-PVTZ AUX)
    Blend: AUG-CC-PVTZ-JKFIT
	 Reference Energy          =    -670.8171840051347772 [Eh]
	 Singles Energy            =      -0.0000000000000000 [Eh]
	 Same-Spin Energy          =      -0.3576414160327742 [Eh]
	 Opposite-Spin Energy      =      -1.2415326552604864 [Eh]
	 Correlation Energy        =      -1.5991740712932607 [Eh]
	 Total Energy              =    -672.4163580764280823 [Eh]

	 ================> DF-SCS-MP2 Energies <==================
	-----------------------------------------------------------
	 SCS Same-Spin Scale       =       0.3333333333333333 [-]
	 SCS Opposite-Spin Scale   =       1.2000000000000000 [-]
	 SCS Same-Spin Energy      =      -0.1192138053442581 [Eh]
	 SCS Opposite-Spin Energy  =      -1.4898391863125837 [Eh]
	 SCS Correlation Energy    =      -1.6090529916568417 [Eh]
	 SCS Total Energy          =    -672.4262369967916584 [Eh]
	-----------------------------------------------------------

  Dipole Moment: [D]
     X:    -1.3971      Y:     1.4289      Z:    -0.0017     Total:     1.9984

*** Psi4 exiting successfully. Buy a developer a beer!
