                               Psi4 1.3.2 release

  ==> Input File <==

--------------------------------------------------------------------------
#psi4
#
memory 32 gb

molecule  {
0 1
  S        1.0039920    -1.8370330     0.0416350
  C       -0.5844320    -0.0144930    -0.2342400
  C        0.8344880    -0.0270290     0.3757450
  C       -0.7993060    -1.5368490    -0.1403280
  C       -1.6433177     0.8571073     0.4248409
  C        1.8965050     0.8563820    -0.2511320
  C       -3.0139260     0.6977340    -0.2008490
  C        1.6197410     2.3450710    -0.0456480
  H       -0.4989150     0.2672930    -1.2933800
  H        0.7896660     0.1408860     1.4600880
  H       -1.3425120    -1.8245460     0.7655480
  H       -1.2523250    -2.0240820    -1.0064780
  H       -1.3288740     1.8959250     0.4270340
  H       -1.6941720     0.5567670     1.5060070
  H        2.8729810     0.5983550     0.1779310
  H        1.9538560     0.6259360    -1.3212150
  H       -2.9803430     0.9928380    -1.2542670
  H       -3.7577360     1.3235000     0.3006380
  H       -3.3631330    -0.3381970    -0.1530850
  H        0.6957430     2.6486760    -0.5454840
  H        2.4328210     2.9512940    -0.4556920
  H        1.5246440     2.5856330     1.0178510
units angstrom
no_reorient  #important for SAPT in psi4, default
symmetry c1  #important for SAPT in psi4, default
}

set PROPERTIES_ORIGIN ["COM"]
properties('MP2/aug-cc-pvtz', properties = ['dipole'])
--------------------------------------------------------------------------

    Molecular point group: c1
  Charge       = 0
  Multiplicity = 1
  Basis Set: AUG-CC-PVTZ
    Blend: AUG-CC-PVTZ
  Basis Set: (AUG-CC-PVTZ AUX)
    Blend: AUG-CC-PVTZ-JKFIT

    Orbital Energies [Eh]
    ---------------------

    Doubly Occupied:

       1A    -91.935124     2A    -11.257406     3A    -11.252918
       4A    -11.238934     5A    -11.227506     6A    -11.225568
       7A    -11.219814     8A    -11.219673     9A     -8.935551
      10A     -6.616359    11A     -6.616006    12A     -6.614768
      13A     -1.147635    14A     -1.051598    15A     -1.027631
      16A     -0.917839    17A     -0.909982    18A     -0.832400
      19A     -0.804695    20A     -0.746545    21A     -0.650230
      22A     -0.632584    23A     -0.602419    24A     -0.596160
      25A     -0.571274    26A     -0.556988    27A     -0.541317
      28A     -0.530552    29A     -0.519533    30A     -0.501769
      31A     -0.483939    32A     -0.466405    33A     -0.460962
      34A     -0.435701    35A     -0.395346    36A     -0.331295

  @DF-RHF Final Energy:  -670.85259745318729

   => Energetics <=

    Nuclear Repulsion Energy =            468.1751982158311876
    One-Electron Energy =               -1847.9067373960781424
    Two-Electron Energy =                 708.8789417270596687
    Total Energy =                       -670.8525974531872862
  Basis Set: (AUG-CC-PVTZ AUX)
    Blend: AUG-CC-PVTZ-RI
    Molecular point group: c1

    Geometry (in Angstrom), charge = 0, multiplicity = 1:

       Center              X                  Y                   Z               Mass
    ------------   -----------------  -----------------  -----------------  -----------------
         S            0.959236356748    -1.759258679625     0.040909382681    31.972071174400
         C           -0.629187643252     0.063281320375    -0.234965617319    12.000000000000
         C            0.789732356748     0.050745320375     0.375019382681    12.000000000000
         C           -0.844061643252    -1.459074679625    -0.141053617319    12.000000000000
         C           -1.688073343252     0.934881620375     0.424115282681    12.000000000000
         C            1.851749356748     0.934156320375    -0.251857617319    12.000000000000
         C           -3.058681643252     0.775508320375    -0.201574617319    12.000000000000
         C            1.574985356748     2.422845320375    -0.046373617319    12.000000000000
         H           -0.543670643252     0.345067320375    -1.294105617319     1.007825032230
         H            0.744910356748     0.218660320375     1.459362382681     1.007825032230
         H           -1.387267643252    -1.746771679625     0.764822382681     1.007825032230
         H           -1.297080643252    -1.946307679625    -1.007203617319     1.007825032230
         H           -1.373629643252     1.973699320375     0.426308382681     1.007825032230
         H           -1.738927643252     0.634541320375     1.505281382681     1.007825032230
         H            2.828225356748     0.676129320375     0.177205382681     1.007825032230
         H            1.909100356748     0.703710320375    -1.321940617319     1.007825032230
         H           -3.025098643252     1.070612320375    -1.254992617319     1.007825032230
         H           -3.802491643252     1.401274320375     0.299912382681     1.007825032230
         H           -3.407888643252    -0.260422679625    -0.153810617319     1.007825032230
         H            0.650987356748     2.726450320375    -0.546209617319     1.007825032230
         H            2.388065356748     3.029068320375    -0.456417617319     1.007825032230
         H            1.479888356748     2.663407320375     1.017125382681     1.007825032230

  Basis Set: AUG-CC-PVTZ
    Blend: AUG-CC-PVTZ
  Basis Set: (AUG-CC-PVTZ AUX)
    Blend: AUG-CC-PVTZ-JKFIT
	 Reference Energy          =    -670.8525974531872862 [Eh]
	 Singles Energy            =      -0.0000000000000000 [Eh]
	 Same-Spin Energy          =      -0.3558572007039118 [Eh]
	 Opposite-Spin Energy      =      -1.2392467103247515 [Eh]
	 Correlation Energy        =      -1.5951039110286633 [Eh]
	 Total Energy              =    -672.4477013642159591 [Eh]

	 ================> DF-SCS-MP2 Energies <==================
	-----------------------------------------------------------
	 SCS Same-Spin Scale       =       0.3333333333333333 [-]
	 SCS Opposite-Spin Scale   =       1.2000000000000000 [-]
	 SCS Same-Spin Energy      =      -0.1186190669013039 [Eh]
	 SCS Opposite-Spin Energy  =      -1.4870960523897019 [Eh]
	 SCS Correlation Energy    =      -1.6057151192910057 [Eh]
	 SCS Total Energy          =    -672.4583125724783486 [Eh]
	-----------------------------------------------------------

  Dipole Moment: [D]
     X:    -1.2714      Y:     1.7796      Z:     0.0280     Total:     2.1873

*** Psi4 exiting successfully. Buy a developer a beer!
