                               Psi4 1.3.2 release

  ==> Input File <==

--------------------------------------------------------------------------
#psi4
#
memory 32 gb

molecule  {
0 1
  S        1.0039920    -1.8370330     0.0416350
  C       -0.5700301     0.0073211    -0.2389302
  C        0.8344880    -0.0270290     0.3757450
  C       -0.7993060    -1.5368490    -0.1403280
  C       -1.6389980     0.8445570     0.4478430
  C        1.8965050     0.8563820    -0.2511320
  C       -3.0139260     0.6977340    -0.2008490
  C        1.6197410     2.3450710    -0.0456480
  H       -0.4989150     0.2672930    -1.2933800
  H        0.7896660     0.1408860     1.4600880
  H       -1.3425120    -1.8245460     0.7655480
  H       -1.2523250    -2.0240820    -1.0064780
  H       -1.3288740     1.8959250     0.4270340
  H       -1.6941720     0.5567670     1.5060070
  H        2.8729810     0.5983550     0.1779310
  H        1.9538560     0.6259360    -1.3212150
  H       -2.9803430     0.9928380    -1.2542670
  H       -3.7577360     1.3235000     0.3006380
  H       -3.3631330    -0.3381970    -0.1530850
  H        0.6957430     2.6486760    -0.5454840
  H        2.4328210     2.9512940    -0.4556920
  H        1.5246440     2.5856330     1.0178510
units angstrom
no_reorient  #important for SAPT in psi4, default
symmetry c1  #important for SAPT in psi4, default
}

set PROPERTIES_ORIGIN ["COM"]
properties('MP2/aug-cc-pvtz', properties = ['dipole'])
--------------------------------------------------------------------------

    Molecular point group: c1
  Charge       = 0
  Multiplicity = 1
  Basis Set: AUG-CC-PVTZ
    Blend: AUG-CC-PVTZ
  Basis Set: (AUG-CC-PVTZ AUX)
    Blend: AUG-CC-PVTZ-JKFIT

    Orbital Energies [Eh]
    ---------------------

    Doubly Occupied:

       1A    -91.934837     2A    -11.256933     3A    -11.253134
       4A    -11.238703     5A    -11.226843     6A    -11.225176
       7A    -11.220343     8A    -11.219550     9A     -8.935247
      10A     -6.616058    11A     -6.615703    12A     -6.614472
      13A     -1.146744    14A     -1.050282    15A     -1.025740
      16A     -0.917467    17A     -0.909776    18A     -0.831505
      19A     -0.806729    20A     -0.748088    21A     -0.648554
      22A     -0.632949    23A     -0.600030    24A     -0.597087
      25A     -0.570865    26A     -0.555736    27A     -0.539610
      28A     -0.531000    29A     -0.518701    30A     -0.501438
      31A     -0.485426    32A     -0.474592    33A     -0.457863
      34A     -0.434599    35A     -0.393773    36A     -0.331081

  @DF-RHF Final Energy:  -670.85294032074171

   => Energetics <=

    Nuclear Repulsion Energy =            468.1055279482139326
    One-Electron Energy =               -1847.7836752270807210
    Two-Electron Energy =                 708.8252069581251362
    Total Energy =                       -670.8529403207417090
  Basis Set: (AUG-CC-PVTZ AUX)
    Blend: AUG-CC-PVTZ-RI
    Molecular point group: c1

    Geometry (in Angstrom), charge = 0, multiplicity = 1:

       Center              X                  Y                   Z               Mass
    ------------   -----------------  -----------------  -----------------  -----------------
         S            0.957509293407    -1.760113263068     0.039220114073    31.972071174400
         C           -0.616512806593     0.084240836932    -0.241345085927    12.000000000000
         C            0.788005293407     0.049890736932     0.373330114073    12.000000000000
         C           -0.845788706593    -1.459929263068    -0.142742885927    12.000000000000
         C           -1.685480706593     0.921476736932     0.445428114073    12.000000000000
         C            1.850022293407     0.933301736932    -0.253546885927    12.000000000000
         C           -3.060408706593     0.774653736932    -0.203263885927    12.000000000000
         C            1.573258293407     2.421990736932    -0.048062885927    12.000000000000
         H           -0.545397706593     0.344212736932    -1.295794885927     1.007825032230
         H            0.743183293407     0.217805736932     1.457673114073     1.007825032230
         H           -1.388994706593    -1.747626263068     0.763133114073     1.007825032230
         H           -1.298807706593    -1.947162263068    -1.008892885927     1.007825032230
         H           -1.375356706593     1.972844736932     0.424619114073     1.007825032230
         H           -1.740654706593     0.633686736932     1.503592114073     1.007825032230
         H            2.826498293407     0.675274736932     0.175516114073     1.007825032230
         H            1.907373293407     0.702855736932    -1.323629885927     1.007825032230
         H           -3.026825706593     1.069757736932    -1.256681885927     1.007825032230
         H           -3.804218706593     1.400419736932     0.298223114073     1.007825032230
         H           -3.409615706593    -0.261277263068    -0.155499885927     1.007825032230
         H            0.649260293407     2.725595736932    -0.547898885927     1.007825032230
         H            2.386338293407     3.028213736932    -0.458106885927     1.007825032230
         H            1.478161293407     2.662552736932     1.015436114073     1.007825032230

  Basis Set: AUG-CC-PVTZ
    Blend: AUG-CC-PVTZ
  Basis Set: (AUG-CC-PVTZ AUX)
    Blend: AUG-CC-PVTZ-JKFIT
	 Reference Energy          =    -670.8529403207417090 [Eh]
	 Singles Energy            =      -0.0000000000000000 [Eh]
	 Same-Spin Energy          =      -0.3557398207231242 [Eh]
	 Opposite-Spin Energy      =      -1.2391626820131059 [Eh]
	 Correlation Energy        =      -1.5949025027362300 [Eh]
	 Total Energy              =    -672.4478428234779130 [Eh]

	 ================> DF-SCS-MP2 Energies <==================
	-----------------------------------------------------------
	 SCS Same-Spin Scale       =       0.3333333333333333 [-]
	 SCS Opposite-Spin Scale   =       1.2000000000000000 [-]
	 SCS Same-Spin Energy      =      -0.1185799402410414 [Eh]
	 SCS Opposite-Spin Energy  =      -1.4869952184157269 [Eh]
	 SCS Correlation Energy    =      -1.6055751586567684 [Eh]
	 SCS Total Energy          =    -672.4585154793984429 [Eh]
	-----------------------------------------------------------

  Dipole Moment: [D]
     X:    -1.2832      Y:     1.7768      Z:     0.0387     Total:     2.1921

*** Psi4 exiting successfully. Buy a developer a beer!
