                               Psi4 1.3.2 release

  ==> Input File <==

--------------------------------------------------------------------------
#psi4
#
memory 32 gb

molecule  {
0 1
  S        1.0039920    -1.8370330     0.0416350
  C       -0.5844320    -0.0144930    -0.2342400
  C        0.8344880    -0.0270290     0.3757450
  C       -0.7993060    -1.5368490    -0.1403280
  C       -1.6473149     0.8693920     0.4016380
  C        1.8965050     0.8563820    -0.2511320
  C       -3.0139260     0.6977340    -0.2008490
  C        1.6197410     2.3450710    -0.0456480
  H       -0.4989150     0.2672930    -1.2933800
  H        0.7896660     0.1408860     1.4600880
  H       -1.3425120    -1.8245460     0.7655480
  H       -1.2523250    -2.0240820    -1.0064780
  H       -1.3288740     1.8959250     0.4270340
  H       -1.6941720     0.5567670     1.5060070
  H        2.8729810     0.5983550     0.1779310
  H        1.9538560     0.6259360    -1.3212150
  H       -2.9803430     0.9928380    -1.2542670
  H       -3.7577360     1.3235000     0.3006380
  H       -3.3631330    -0.3381970    -0.1530850
  H        0.6957430     2.6486760    -0.5454840
  H        2.4328210     2.9512940    -0.4556920
  H        1.5246440     2.5856330     1.0178510
units angstrom
no_reorient  #important for SAPT in psi4, default
symmetry c1  #important for SAPT in psi4, default
}

set PROPERTIES_ORIGIN ["COM"]
properties('MP2/aug-cc-pvtz', properties = ['dipole'])
--------------------------------------------------------------------------

    Molecular point group: c1
  Charge       = 0
  Multiplicity = 1
  Basis Set: AUG-CC-PVTZ
    Blend: AUG-CC-PVTZ
  Basis Set: (AUG-CC-PVTZ AUX)
    Blend: AUG-CC-PVTZ-JKFIT

    Orbital Energies [Eh]
    ---------------------

    Doubly Occupied:

       1A    -91.935330     2A    -11.257707     3A    -11.253183
       4A    -11.239101     5A    -11.228421     6A    -11.225655
       7A    -11.219815     8A    -11.219638     9A     -8.935753
      10A     -6.616562    11A     -6.616207    12A     -6.614967
      13A     -1.147693    14A     -1.052647    15A     -1.028753
      16A     -0.917937    17A     -0.910681    18A     -0.832391
      19A     -0.803879    20A     -0.746390    21A     -0.650612
      22A     -0.633003    23A     -0.603594    24A     -0.595067
      25A     -0.571789    26A     -0.558349    27A     -0.542888
      28A     -0.531082    29A     -0.520291    30A     -0.501405
      31A     -0.483209    32A     -0.463359    33A     -0.458752
      34A     -0.436176    35A     -0.396511    36A     -0.331440

  @DF-RHF Final Energy:  -670.85026484874822

   => Energetics <=

    Nuclear Repulsion Energy =            468.1923701982845500
    One-Electron Energy =               -1847.9247971868155673
    Two-Electron Energy =                 708.8821621397827357
    Total Energy =                       -670.8502648487482247
  Basis Set: (AUG-CC-PVTZ AUX)
    Blend: AUG-CC-PVTZ-RI
    Molecular point group: c1

    Geometry (in Angstrom), charge = 0, multiplicity = 1:

       Center              X                  Y                   Z               Mass
    ------------   -----------------  -----------------  -----------------  -----------------
         S            0.959605097538    -1.760391940405     0.043049844928    31.972071174400
         C           -0.628818902462     0.062148059595    -0.232825155072    12.000000000000
         C            0.790101097538     0.049612059595     0.377159844928    12.000000000000
         C           -0.843692902462    -1.460207940405    -0.138913155072    12.000000000000
         C           -1.691701802462     0.946033059595     0.403052844928    12.000000000000
         C            1.852118097538     0.933023059595    -0.249717155072    12.000000000000
         C           -3.058312902462     0.774375059595    -0.199434155072    12.000000000000
         C            1.575354097538     2.421712059595    -0.044233155072    12.000000000000
         H           -0.543301902462     0.343934059595    -1.291965155072     1.007825032230
         H            0.745279097538     0.217527059595     1.461502844928     1.007825032230
         H           -1.386898902462    -1.747904940405     0.766962844928     1.007825032230
         H           -1.296711902462    -1.947440940405    -1.005063155072     1.007825032230
         H           -1.373260902462     1.972566059595     0.428448844928     1.007825032230
         H           -1.738558902462     0.633408059595     1.507421844928     1.007825032230
         H            2.828594097538     0.674996059595     0.179345844928     1.007825032230
         H            1.909469097538     0.702577059595    -1.319800155072     1.007825032230
         H           -3.024729902462     1.069479059595    -1.252852155072     1.007825032230
         H           -3.802122902462     1.400141059595     0.302052844928     1.007825032230
         H           -3.407519902462    -0.261555940405    -0.151670155072     1.007825032230
         H            0.651356097538     2.725317059595    -0.544069155072     1.007825032230
         H            2.388434097538     3.027935059595    -0.454277155072     1.007825032230
         H            1.480257097538     2.662274059595     1.019265844928     1.007825032230

  Basis Set: AUG-CC-PVTZ
    Blend: AUG-CC-PVTZ
  Basis Set: (AUG-CC-PVTZ AUX)
    Blend: AUG-CC-PVTZ-JKFIT
	 Reference Energy          =    -670.8502648487482247 [Eh]
	 Singles Energy            =      -0.0000000000000000 [Eh]
	 Same-Spin Energy          =      -0.3559722057007981 [Eh]
	 Opposite-Spin Energy      =      -1.2394265324557641 [Eh]
	 Correlation Energy        =      -1.5953987381565622 [Eh]
	 Total Energy              =    -672.4456635869047432 [Eh]

	 ================> DF-SCS-MP2 Energies <==================
	-----------------------------------------------------------
	 SCS Same-Spin Scale       =       0.3333333333333333 [-]
	 SCS Opposite-Spin Scale   =       1.2000000000000000 [-]
	 SCS Same-Spin Energy      =      -0.1186574019002660 [Eh]
	 SCS Opposite-Spin Energy  =      -1.4873118389469169 [Eh]
	 SCS Correlation Energy    =      -1.6059692408471828 [Eh]
	 SCS Total Energy          =    -672.4562340895954549 [Eh]
	-----------------------------------------------------------

  Dipole Moment: [D]
     X:    -1.2685      Y:     1.7822      Z:     0.0100     Total:     2.1875

*** Psi4 exiting successfully. Buy a developer a beer!
