                               Psi4 1.3.2 release

  ==> Input File <==

--------------------------------------------------------------------------
#psi4
#
memory 32 gb

molecule  {
0 1
  S        1.0039920    -1.8370330     0.0416350
  C       -0.5844320    -0.0144930    -0.2342400
  C        0.8498468    -0.0611509     0.3369345
  C       -0.7993060    -1.5368490    -0.1403280
  C       -1.6389980     0.8445570     0.4478430
  C        1.8965050     0.8563820    -0.2511320
  C       -3.0139260     0.6977340    -0.2008490
  C        1.6197410     2.3450710    -0.0456480
  H       -0.4989150     0.2672930    -1.2933800
  H        0.7896660     0.1408860     1.4600880
  H       -1.3425120    -1.8245460     0.7655480
  H       -1.2523250    -2.0240820    -1.0064780
  H       -1.3288740     1.8959250     0.4270340
  H       -1.6941720     0.5567670     1.5060070
  H        2.8729810     0.5983550     0.1779310
  H        1.9538560     0.6259360    -1.3212150
  H       -2.9803430     0.9928380    -1.2542670
  H       -3.7577360     1.3235000     0.3006380
  H       -3.3631330    -0.3381970    -0.1530850
  H        0.6957430     2.6486760    -0.5454840
  H        2.4328210     2.9512940    -0.4556920
  H        1.5246440     2.5856330     1.0178510
units angstrom
no_reorient  #important for SAPT in psi4, default
symmetry c1  #important for SAPT in psi4, default
}

set PROPERTIES_ORIGIN ["COM"]
properties('MP2/aug-cc-pvtz', properties = ['dipole'])
--------------------------------------------------------------------------

    Molecular point group: c1
  Charge       = 0
  Multiplicity = 1
  Basis Set: AUG-CC-PVTZ
    Blend: AUG-CC-PVTZ
  Basis Set: (AUG-CC-PVTZ AUX)
    Blend: AUG-CC-PVTZ-JKFIT

    Orbital Energies [Eh]
    ---------------------

    Doubly Occupied:

       1A    -91.936417     2A    -11.257662     3A    -11.253464
       4A    -11.238311     5A    -11.227281     6A    -11.224663
       7A    -11.220471     8A    -11.219891     9A     -8.937339
      10A     -6.618182    11A     -6.617855    12A     -6.616566
      13A     -1.150712    14A     -1.050930    15A     -1.028053
      16A     -0.918060    17A     -0.910894    18A     -0.835025
      19A     -0.806156    20A     -0.739010    21A     -0.649867
      22A     -0.631732    23A     -0.602335    24A     -0.597416
      25A     -0.570931    26A     -0.554877    27A     -0.540563
      28A     -0.528356    29A     -0.518720    30A     -0.502884
      31A     -0.481856    32A     -0.467925    33A     -0.463021
      34A     -0.435970    35A     -0.399276    36A     -0.330882

  @DF-RHF Final Energy:  -670.85047574051737

   => Energetics <=

    Nuclear Repulsion Energy =            468.6289373196768793
    One-Electron Energy =               -1848.7917196820785648
    Two-Electron Energy =                 709.3123066218843178
    Total Energy =                       -670.8504757405173677
  Basis Set: (AUG-CC-PVTZ AUX)
    Blend: AUG-CC-PVTZ-RI
    Molecular point group: c1

    Geometry (in Angstrom), charge = 0, multiplicity = 1:

       Center              X                  Y                   Z               Mass
    ------------   -----------------  -----------------  -----------------  -----------------
         S            0.957421019600    -1.754953179794     0.042367703985    31.972071174400
         C           -0.631002980400     0.067586820206    -0.233507296015    12.000000000000
         C            0.803275819600     0.020928920206     0.337667203985    12.000000000000
         C           -0.845876980400    -1.454769179794    -0.139595296015    12.000000000000
         C           -1.685568980400     0.926636820206     0.448575703985    12.000000000000
         C            1.849934019600     0.938461820206    -0.250399296015    12.000000000000
         C           -3.060496980400     0.779813820206    -0.200116296015    12.000000000000
         C            1.573170019600     2.427150820206    -0.044915296015    12.000000000000
         H           -0.545485980400     0.349372820206    -1.292647296015     1.007825032230
         H            0.743095019600     0.222965820206     1.460820703985     1.007825032230
         H           -1.389082980400    -1.742466179794     0.766280703985     1.007825032230
         H           -1.298895980400    -1.942002179794    -1.005745296015     1.007825032230
         H           -1.375444980400     1.978004820206     0.427766703985     1.007825032230
         H           -1.740742980400     0.638846820206     1.506739703985     1.007825032230
         H            2.826410019600     0.680434820206     0.178663703985     1.007825032230
         H            1.907285019600     0.708015820206    -1.320482296015     1.007825032230
         H           -3.026913980400     1.074917820206    -1.253534296015     1.007825032230
         H           -3.804306980400     1.405579820206     0.301370703985     1.007825032230
         H           -3.409703980400    -0.256117179794    -0.152352296015     1.007825032230
         H            0.649172019600     2.730755820206    -0.544751296015     1.007825032230
         H            2.386250019600     3.033373820206    -0.454959296015     1.007825032230
         H            1.478073019600     2.667712820206     1.018583703985     1.007825032230

  Basis Set: AUG-CC-PVTZ
    Blend: AUG-CC-PVTZ
  Basis Set: (AUG-CC-PVTZ AUX)
    Blend: AUG-CC-PVTZ-JKFIT
	 Reference Energy          =    -670.8504757405173677 [Eh]
	 Singles Energy            =      -0.0000000000000000 [Eh]
	 Same-Spin Energy          =      -0.3560801536671147 [Eh]
	 Opposite-Spin Energy      =      -1.2393926921383578 [Eh]
	 Correlation Energy        =      -1.5954728458054723 [Eh]
	 Total Energy              =    -672.4459485863228565 [Eh]

	 ================> DF-SCS-MP2 Energies <==================
	-----------------------------------------------------------
	 SCS Same-Spin Scale       =       0.3333333333333333 [-]
	 SCS Opposite-Spin Scale   =       1.2000000000000000 [-]
	 SCS Same-Spin Energy      =      -0.1186933845557049 [Eh]
	 SCS Opposite-Spin Energy  =      -1.4872712305660294 [Eh]
	 SCS Correlation Energy    =      -1.6059646151217342 [Eh]
	 SCS Total Energy          =    -672.4564403556390744 [Eh]
	-----------------------------------------------------------

  Dipole Moment: [D]
     X:    -1.2949      Y:     1.7093      Z:     0.0226     Total:     2.1445

*** Psi4 exiting successfully. Buy a developer a beer!
