                               Psi4 1.3.2 release

  ==> Input File <==

--------------------------------------------------------------------------
#psi4
#
memory 32 gb

molecule  {
0 1
  S        1.0039920    -1.8370330     0.0416350
  C       -0.5844320    -0.0144930    -0.2342400
  C        0.6446719    -0.0496373     0.3459068
  C       -0.7993060    -1.5368490    -0.1403280
  C       -1.6389980     0.8445570     0.4478430
  C        1.8965050     0.8563820    -0.2511320
  C       -3.0139260     0.6977340    -0.2008490
  C        1.6197410     2.3450710    -0.0456480
  H       -0.4989150     0.2672930    -1.2933800
  H        0.7896660     0.1408860     1.4600880
  H       -1.3425120    -1.8245460     0.7655480
  H       -1.2523250    -2.0240820    -1.0064780
  H       -1.3288740     1.8959250     0.4270340
  H       -1.6941720     0.5567670     1.5060070
  H        2.8729810     0.5983550     0.1779310
  H        1.9538560     0.6259360    -1.3212150
  H       -2.9803430     0.9928380    -1.2542670
  H       -3.7577360     1.3235000     0.3006380
  H       -3.3631330    -0.3381970    -0.1530850
  H        0.6957430     2.6486760    -0.5454840
  H        2.4328210     2.9512940    -0.4556920
  H        1.5246440     2.5856330     1.0178510
units angstrom
no_reorient  #important for SAPT in psi4, default
symmetry c1  #important for SAPT in psi4, default
}

set PROPERTIES_ORIGIN ["COM"]
properties('MP2/aug-cc-pvtz', properties = ['dipole'])
--------------------------------------------------------------------------

    Molecular point group: c1
  Charge       = 0
  Multiplicity = 1
  Basis Set: AUG-CC-PVTZ
    Blend: AUG-CC-PVTZ
  Basis Set: (AUG-CC-PVTZ AUX)
    Blend: AUG-CC-PVTZ-JKFIT

    Orbital Energies [Eh]
    ---------------------

    Doubly Occupied:

       1A    -91.932079     2A    -11.260889     3A    -11.255818
       4A    -11.230567     5A    -11.228816     6A    -11.228153
       7A    -11.220505     8A    -11.217111     9A     -8.933101
      10A     -6.613868    11A     -6.613490    12A     -6.612175
      13A     -1.176391    14A     -1.042080    15A     -1.024808
      16A     -0.929781    17A     -0.902433    18A     -0.828018
      19A     -0.817391    20A     -0.743595    21A     -0.655231
      22A     -0.637736    23A     -0.603860    24A     -0.598939
      25A     -0.569090    26A     -0.557408    27A     -0.540764
      28A     -0.531518    29A     -0.518670    30A     -0.501882
      31A     -0.485813    32A     -0.476308    33A     -0.455687
      34A     -0.422224    35A     -0.392966    36A     -0.326288

  @DF-RHF Final Energy:  -670.81265491625766

   => Energetics <=

    Nuclear Repulsion Energy =            469.9515021488539332
    One-Electron Energy =               -1851.3574111296345563
    Two-Electron Energy =                 710.5932540645229665
    Total Energy =                       -670.8126549162576566
  Basis Set: (AUG-CC-PVTZ AUX)
    Blend: AUG-CC-PVTZ-RI
    Molecular point group: c1

    Geometry (in Angstrom), charge = 0, multiplicity = 1:

       Center              X                  Y                   Z               Mass
    ------------   -----------------  -----------------  -----------------  -----------------
         S            0.976348357445    -1.756015306774     0.041540011351    31.972071174400
         C           -0.612075642555     0.066524693226    -0.234334988649    12.000000000000
         C            0.617028257445     0.031380393226     0.345811811351    12.000000000000
         C           -0.826949642555    -1.455831306774    -0.140422988649    12.000000000000
         C           -1.666641642555     0.925574693226     0.447748011351    12.000000000000
         C            1.868861357445     0.937399693226    -0.251226988649    12.000000000000
         C           -3.041569642555     0.778751693226    -0.200943988649    12.000000000000
         C            1.592097357445     2.426088693226    -0.045742988649    12.000000000000
         H           -0.526558642555     0.348310693226    -1.293474988649     1.007825032230
         H            0.762022357445     0.221903693226     1.459993011351     1.007825032230
         H           -1.370155642555    -1.743528306774     0.765453011351     1.007825032230
         H           -1.279968642555    -1.943064306774    -1.006572988649     1.007825032230
         H           -1.356517642555     1.976942693226     0.426939011351     1.007825032230
         H           -1.721815642555     0.637784693226     1.505912011351     1.007825032230
         H            2.845337357445     0.679372693226     0.177836011351     1.007825032230
         H            1.926212357445     0.706953693226    -1.321309988649     1.007825032230
         H           -3.007986642555     1.073855693226    -1.254361988649     1.007825032230
         H           -3.785379642555     1.404517693226     0.300543011351     1.007825032230
         H           -3.390776642555    -0.257179306774    -0.153179988649     1.007825032230
         H            0.668099357445     2.729693693226    -0.545578988649     1.007825032230
         H            2.405177357445     3.032311693226    -0.455786988649     1.007825032230
         H            1.497000357445     2.666650693226     1.017756011351     1.007825032230

  Basis Set: AUG-CC-PVTZ
    Blend: AUG-CC-PVTZ
  Basis Set: (AUG-CC-PVTZ AUX)
    Blend: AUG-CC-PVTZ-JKFIT
	 Reference Energy          =    -670.8126549162576566 [Eh]
	 Singles Energy            =      -0.0000000000000000 [Eh]
	 Same-Spin Energy          =      -0.3582925649344760 [Eh]
	 Opposite-Spin Energy      =      -1.2427081420308004 [Eh]
	 Correlation Energy        =      -1.6010007069652763 [Eh]
	 Total Energy              =    -672.4136556232228941 [Eh]

	 ================> DF-SCS-MP2 Energies <==================
	-----------------------------------------------------------
	 SCS Same-Spin Scale       =       0.3333333333333333 [-]
	 SCS Opposite-Spin Scale   =       1.2000000000000000 [-]
	 SCS Same-Spin Energy      =      -0.1194308549781587 [Eh]
	 SCS Opposite-Spin Energy  =      -1.4912497704369605 [Eh]
	 SCS Correlation Energy    =      -1.6106806254151191 [Eh]
	 SCS Total Energy          =    -672.4233355416728273 [Eh]
	-----------------------------------------------------------

  Dipole Moment: [D]
     X:    -1.3549      Y:     1.6592      Z:     0.0553     Total:     2.1429

*** Psi4 exiting successfully. Buy a developer a beer!
