                               Psi4 1.3.2 release

  ==> Input File <==

--------------------------------------------------------------------------
#psi4
#
memory 32 gb

molecule  {
0 1
  S        1.0039920    -1.8370330     0.0416350
  C       -0.5844320    -0.0144930    -0.2342400
  C        0.8634581    -0.0952159     0.2974280
  C       -0.7993060    -1.5368490    -0.1403280
  C       -1.6389980     0.8445570     0.4478430
  C        1.8965050     0.8563820    -0.2511320
  C       -3.0139260     0.6977340    -0.2008490
  C        1.6197410     2.3450710    -0.0456480
  H       -0.4989150     0.2672930    -1.2933800
  H        0.7896660     0.1408860     1.4600880
  H       -1.3425120    -1.8245460     0.7655480
  H       -1.2523250    -2.0240820    -1.0064780
  H       -1.3288740     1.8959250     0.4270340
  H       -1.6941720     0.5567670     1.5060070
  H        2.8729810     0.5983550     0.1779310
  H        1.9538560     0.6259360    -1.3212150
  H       -2.9803430     0.9928380    -1.2542670
  H       -3.7577360     1.3235000     0.3006380
  H       -3.3631330    -0.3381970    -0.1530850
  H        0.6957430     2.6486760    -0.5454840
  H        2.4328210     2.9512940    -0.4556920
  H        1.5246440     2.5856330     1.0178510
units angstrom
no_reorient  #important for SAPT in psi4, default
symmetry c1  #important for SAPT in psi4, default
}

set PROPERTIES_ORIGIN ["COM"]
properties('MP2/aug-cc-pvtz', properties = ['dipole'])
--------------------------------------------------------------------------

    Molecular point group: c1
  Charge       = 0
  Multiplicity = 1
  Basis Set: AUG-CC-PVTZ
    Blend: AUG-CC-PVTZ
  Basis Set: (AUG-CC-PVTZ AUX)
    Blend: AUG-CC-PVTZ-JKFIT

    Orbital Energies [Eh]
    ---------------------

    Doubly Occupied:

       1A    -91.937713     2A    -11.258970     3A    -11.254371
       4A    -11.238123     5A    -11.227855     6A    -11.224366
       7A    -11.220900     8A    -11.220365     9A     -8.939233
      10A     -6.620145    11A     -6.619778    12A     -6.618456
      13A     -1.154431    14A     -1.051266    15A     -1.029676
      16A     -0.919941    17A     -0.911554    18A     -0.837748
      19A     -0.806800    20A     -0.731699    21A     -0.650027
      22A     -0.631268    23A     -0.603501    24A     -0.597895
      25A     -0.572832    26A     -0.552643    27A     -0.541476
      28A     -0.526844    29A     -0.519023    30A     -0.503729
      31A     -0.479472    32A     -0.468210    33A     -0.462848
      34A     -0.435462    35A     -0.403309    36A     -0.329409

  @DF-RHF Final Energy:  -670.84252016300729

   => Energetics <=

    Nuclear Repulsion Energy =            469.1032847546912308
    One-Electron Energy =               -1849.6889324111584756
    Two-Electron Energy =                 709.7431274934599514
    Total Energy =                       -670.8425201630072934
  Basis Set: (AUG-CC-PVTZ AUX)
    Blend: AUG-CC-PVTZ-RI
    Molecular point group: c1

    Geometry (in Angstrom), charge = 0, multiplicity = 1:

       Center              X                  Y                   Z               Mass
    ------------   -----------------  -----------------  -----------------  -----------------
         S            0.956165380272    -1.751810691294     0.046012169622    31.972071174400
         C           -0.632258619728     0.070729308706    -0.229862830378    12.000000000000
         C            0.815631480272    -0.009993591294     0.301805169622    12.000000000000
         C           -0.847132619728    -1.451626691294    -0.135950830378    12.000000000000
         C           -1.686824619728     0.929779308706     0.452220169622    12.000000000000
         C            1.848678380272     0.941604308706    -0.246754830378    12.000000000000
         C           -3.061752619728     0.782956308706    -0.196471830378    12.000000000000
         C            1.571914380272     2.430293308706    -0.041270830378    12.000000000000
         H           -0.546741619728     0.352515308706    -1.289002830378     1.007825032230
         H            0.741839380272     0.226108308706     1.464465169622     1.007825032230
         H           -1.390338619728    -1.739323691294     0.769925169622     1.007825032230
         H           -1.300151619728    -1.938859691294    -1.002100830378     1.007825032230
         H           -1.376700619728     1.981147308706     0.431411169622     1.007825032230
         H           -1.741998619728     0.641989308706     1.510384169622     1.007825032230
         H            2.825154380272     0.683577308706     0.182308169622     1.007825032230
         H            1.906029380272     0.711158308706    -1.316837830378     1.007825032230
         H           -3.028169619728     1.078060308706    -1.249889830378     1.007825032230
         H           -3.805562619728     1.408722308706     0.305015169622     1.007825032230
         H           -3.410959619728    -0.252974691294    -0.148707830378     1.007825032230
         H            0.647916380272     2.733898308706    -0.541106830378     1.007825032230
         H            2.384994380272     3.036516308706    -0.451314830378     1.007825032230
         H            1.476817380272     2.670855308706     1.022228169622     1.007825032230

  Basis Set: AUG-CC-PVTZ
    Blend: AUG-CC-PVTZ
  Basis Set: (AUG-CC-PVTZ AUX)
    Blend: AUG-CC-PVTZ-JKFIT
	 Reference Energy          =    -670.8425201630072934 [Eh]
	 Singles Energy            =      -0.0000000000000000 [Eh]
	 Same-Spin Energy          =      -0.3565312971665840 [Eh]
	 Opposite-Spin Energy      =      -1.2399571778680083 [Eh]
	 Correlation Energy        =      -1.5964884750345922 [Eh]
	 Total Energy              =    -672.4390086380418552 [Eh]

	 ================> DF-SCS-MP2 Energies <==================
	-----------------------------------------------------------
	 SCS Same-Spin Scale       =       0.3333333333333333 [-]
	 SCS Opposite-Spin Scale   =       1.2000000000000000 [-]
	 SCS Same-Spin Energy      =      -0.1188437657221947 [Eh]
	 SCS Opposite-Spin Energy  =      -1.4879486134416100 [Eh]
	 SCS Correlation Energy    =      -1.6067923791638046 [Eh]
	 SCS Total Energy          =    -672.4493125421711284 [Eh]
	-----------------------------------------------------------

  Dipole Moment: [D]
     X:    -1.3184      Y:     1.6387      Z:    -0.0073     Total:     2.1032

*** Psi4 exiting successfully. Buy a developer a beer!
