                               Psi4 1.3.2 release

  ==> Input File <==

--------------------------------------------------------------------------
#psi4
#
memory 32 gb

molecule  {
0 1
  S        1.0039920    -1.8370330     0.0416350
  C       -0.5844320    -0.0144930    -0.2342400
  C        0.8344880    -0.0270290     0.3757450
  C       -0.7993060    -1.5368490    -0.1403280
  C       -1.6343570     0.8317451     0.4706374
  C        1.8965050     0.8563820    -0.2511320
  C       -3.0139260     0.6977340    -0.2008490
  C        1.6197410     2.3450710    -0.0456480
  H       -0.4989150     0.2672930    -1.2933800
  H        0.7896660     0.1408860     1.4600880
  H       -1.3425120    -1.8245460     0.7655480
  H       -1.2523250    -2.0240820    -1.0064780
  H       -1.3288740     1.8959250     0.4270340
  H       -1.6941720     0.5567670     1.5060070
  H        2.8729810     0.5983550     0.1779310
  H        1.9538560     0.6259360    -1.3212150
  H       -2.9803430     0.9928380    -1.2542670
  H       -3.7577360     1.3235000     0.3006380
  H       -3.3631330    -0.3381970    -0.1530850
  H        0.6957430     2.6486760    -0.5454840
  H        2.4328210     2.9512940    -0.4556920
  H        1.5246440     2.5856330     1.0178510
units angstrom
no_reorient  #important for SAPT in psi4, default
symmetry c1  #important for SAPT in psi4, default
}

set PROPERTIES_ORIGIN ["COM"]
properties('MP2/aug-cc-pvtz', properties = ['dipole'])
--------------------------------------------------------------------------

    Molecular point group: c1
  Charge       = 0
  Multiplicity = 1
  Basis Set: AUG-CC-PVTZ
    Blend: AUG-CC-PVTZ
  Basis Set: (AUG-CC-PVTZ AUX)
    Blend: AUG-CC-PVTZ-JKFIT

    Orbital Energies [Eh]
    ---------------------

    Doubly Occupied:

       1A    -91.934756     2A    -11.256854     3A    -11.252452
       4A    -11.238916     5A    -11.226302     6A    -11.225423
       7A    -11.220452     8A    -11.219398     9A     -8.935190
      10A     -6.615995    11A     -6.615648    12A     -6.614413
      13A     -1.147663    14A     -1.049891    15A     -1.025295
      16A     -0.917694    17A     -0.908742    18A     -0.832686
      19A     -0.807091    20A     -0.746937    21A     -0.649475
      22A     -0.632370    23A     -0.600930    24A     -0.597493
      25A     -0.570548    26A     -0.555138    27A     -0.538638
      28A     -0.529710    29A     -0.517767    30A     -0.502488
      31A     -0.487209    32A     -0.475895    33A     -0.457771
      34A     -0.434492    35A     -0.392955    36A     -0.331046

  @DF-RHF Final Energy:  -670.85286563559453

   => Energetics <=

    Nuclear Repulsion Energy =            468.1433672889725131
    One-Electron Energy =               -1847.8610119236623177
    Two-Electron Energy =                 708.8647789990952788
    Total Energy =                       -670.8528656355945259
  Basis Set: (AUG-CC-PVTZ AUX)
    Blend: AUG-CC-PVTZ-RI
    Molecular point group: c1

    Geometry (in Angstrom), charge = 0, multiplicity = 1:

       Center              X                  Y                   Z               Mass
    ------------   -----------------  -----------------  -----------------  -----------------
         S            0.958409734211    -1.756919022445     0.036684665976    31.972071174400
         C           -0.630014265789     0.065620977555    -0.239190334024    12.000000000000
         C            0.788905734211     0.053084977555     0.370794665976    12.000000000000
         C           -0.844888265789    -1.456735022445    -0.145278334024    12.000000000000
         C           -1.679939265789     0.911859077555     0.465687065976    12.000000000000
         C            1.850922734211     0.936495977555    -0.256082334024    12.000000000000
         C           -3.059508265789     0.777847977555    -0.205799334024    12.000000000000
         C            1.574158734211     2.425184977555    -0.050598334024    12.000000000000
         H           -0.544497265789     0.347406977555    -1.298330334024     1.007825032230
         H            0.744083734211     0.220999977555     1.455137665976     1.007825032230
         H           -1.388094265789    -1.744432022445     0.760597665976     1.007825032230
         H           -1.297907265789    -1.943968022445    -1.011428334024     1.007825032230
         H           -1.374456265789     1.976038977555     0.422083665976     1.007825032230
         H           -1.739754265789     0.636880977555     1.501056665976     1.007825032230
         H            2.827398734211     0.678468977555     0.172980665976     1.007825032230
         H            1.908273734211     0.706049977555    -1.326165334024     1.007825032230
         H           -3.025925265789     1.072951977555    -1.259217334024     1.007825032230
         H           -3.803318265789     1.403613977555     0.295687665976     1.007825032230
         H           -3.408715265789    -0.258083022445    -0.158035334024     1.007825032230
         H            0.650160734211     2.728789977555    -0.550434334024     1.007825032230
         H            2.387238734211     3.031407977555    -0.460642334024     1.007825032230
         H            1.479061734211     2.665746977555     1.012900665976     1.007825032230

  Basis Set: AUG-CC-PVTZ
    Blend: AUG-CC-PVTZ
  Basis Set: (AUG-CC-PVTZ AUX)
    Blend: AUG-CC-PVTZ-JKFIT
	 Reference Energy          =    -670.8528656355945259 [Eh]
	 Singles Energy            =      -0.0000000000000000 [Eh]
	 Same-Spin Energy          =      -0.3557142909875839 [Eh]
	 Opposite-Spin Energy      =      -1.2391223437532568 [Eh]
	 Correlation Energy        =      -1.5948366347408407 [Eh]
	 Total Energy              =    -672.4477022703354123 [Eh]

	 ================> DF-SCS-MP2 Energies <==================
	-----------------------------------------------------------
	 SCS Same-Spin Scale       =       0.3333333333333333 [-]
	 SCS Opposite-Spin Scale   =       1.2000000000000000 [-]
	 SCS Same-Spin Energy      =      -0.1185714303291946 [Eh]
	 SCS Opposite-Spin Energy  =      -1.4869468125039080 [Eh]
	 SCS Correlation Energy    =      -1.6055182428331027 [Eh]
	 SCS Total Energy          =    -672.4583838784276395 [Eh]
	-----------------------------------------------------------

  Dipole Moment: [D]
     X:    -1.2768      Y:     1.7723      Z:     0.0555     Total:     2.1850

*** Psi4 exiting successfully. Buy a developer a beer!
