                               Psi4 1.3.2 release

  ==> Input File <==

--------------------------------------------------------------------------
#psi4
#
memory 32 gb

molecule  {
0 1
  S        1.0039920    -1.8370330     0.0416350
  C       -0.6132426    -0.0863045    -0.1591712
  C        0.8344880    -0.0270290     0.3757450
  C       -0.7993060    -1.5368490    -0.1403280
  C       -1.6389980     0.8445570     0.4478430
  C        1.8965050     0.8563820    -0.2511320
  C       -3.0139260     0.6977340    -0.2008490
  C        1.6197410     2.3450710    -0.0456480
  H       -0.4989150     0.2672930    -1.2933800
  H        0.7896660     0.1408860     1.4600880
  H       -1.3425120    -1.8245460     0.7655480
  H       -1.2523250    -2.0240820    -1.0064780
  H       -1.3288740     1.8959250     0.4270340
  H       -1.6941720     0.5567670     1.5060070
  H        2.8729810     0.5983550     0.1779310
  H        1.9538560     0.6259360    -1.3212150
  H       -2.9803430     0.9928380    -1.2542670
  H       -3.7577360     1.3235000     0.3006380
  H       -3.3631330    -0.3381970    -0.1530850
  H        0.6957430     2.6486760    -0.5454840
  H        2.4328210     2.9512940    -0.4556920
  H        1.5246440     2.5856330     1.0178510
units angstrom
no_reorient  #important for SAPT in psi4, default
symmetry c1  #important for SAPT in psi4, default
}

set PROPERTIES_ORIGIN ["COM"]
properties('MP2/aug-cc-pvtz', properties = ['dipole'])
--------------------------------------------------------------------------

    Molecular point group: c1
  Charge       = 0
  Multiplicity = 1
  Basis Set: AUG-CC-PVTZ
    Blend: AUG-CC-PVTZ
  Basis Set: (AUG-CC-PVTZ AUX)
    Blend: AUG-CC-PVTZ-JKFIT

    Orbital Energies [Eh]
    ---------------------

    Doubly Occupied:

       1A    -91.936133     2A    -11.257767     3A    -11.250966
       4A    -11.243212     5A    -11.227611     6A    -11.227308
       7A    -11.220487     8A    -11.219716     9A     -8.936632
      10A     -6.617407    11A     -6.617087    12A     -6.615809
      13A     -1.156811    14A     -1.052911    15A     -1.030411
      16A     -0.923047    17A     -0.908034    18A     -0.836334
      19A     -0.805209    20A     -0.738009    21A     -0.656117
      22A     -0.631823    23A     -0.607189    24A     -0.597471
      25A     -0.571743    26A     -0.561839    27A     -0.540597
      28A     -0.526859    29A     -0.519544    30A     -0.505129
      31A     -0.485584    32A     -0.467991    33A     -0.445650
      34A     -0.440935    35A     -0.394326    36A     -0.331631

  @DF-RHF Final Energy:  -670.84053046741667

   => Energetics <=

    Nuclear Repulsion Energy =            468.8321388964948824
    One-Electron Energy =               -1849.1346768835396688
    Two-Electron Energy =                 709.4620075196281732
    Total Energy =                       -670.8405304674166700
  Basis Set: (AUG-CC-PVTZ AUX)
    Blend: AUG-CC-PVTZ-RI
    Molecular point group: c1

    Geometry (in Angstrom), charge = 0, multiplicity = 1:

       Center              X                  Y                   Z               Mass
    ------------   -----------------  -----------------  -----------------  -----------------
         S            0.961495636701    -1.751476322769     0.031862364469    31.972071174400
         C           -0.655738963299    -0.000747822769    -0.168943835531    12.000000000000
         C            0.791991636701     0.058527677231     0.365972364469    12.000000000000
         C           -0.841802363299    -1.451292322769    -0.150100635531    12.000000000000
         C           -1.681494363299     0.930113677231     0.438070364469    12.000000000000
         C            1.854008636701     0.941938677231    -0.260904635531    12.000000000000
         C           -3.056422363299     0.783290677231    -0.210621635531    12.000000000000
         C            1.577244636701     2.430627677231    -0.055420635531    12.000000000000
         H           -0.541411363299     0.352849677231    -1.303152635531     1.007825032230
         H            0.747169636701     0.226442677231     1.450315364469     1.007825032230
         H           -1.385008363299    -1.738989322769     0.755775364469     1.007825032230
         H           -1.294821363299    -1.938525322769    -1.016250635531     1.007825032230
         H           -1.371370363299     1.981481677231     0.417261364469     1.007825032230
         H           -1.736668363299     0.642323677231     1.496234364469     1.007825032230
         H            2.830484636701     0.683911677231     0.168158364469     1.007825032230
         H            1.911359636701     0.711492677231    -1.330987635531     1.007825032230
         H           -3.022839363299     1.078394677231    -1.264039635531     1.007825032230
         H           -3.800232363299     1.409056677231     0.290865364469     1.007825032230
         H           -3.405629363299    -0.252640322769    -0.162857635531     1.007825032230
         H            0.653246636701     2.734232677231    -0.555256635531     1.007825032230
         H            2.390324636701     3.036850677231    -0.465464635531     1.007825032230
         H            1.482147636701     2.671189677231     1.008078364469     1.007825032230

  Basis Set: AUG-CC-PVTZ
    Blend: AUG-CC-PVTZ
  Basis Set: (AUG-CC-PVTZ AUX)
    Blend: AUG-CC-PVTZ-JKFIT
	 Reference Energy          =    -670.8405304674166700 [Eh]
	 Singles Energy            =      -0.0000000000000000 [Eh]
	 Same-Spin Energy          =      -0.3566812542105939 [Eh]
	 Opposite-Spin Energy      =      -1.2403561551808049 [Eh]
	 Correlation Energy        =      -1.5970374093913988 [Eh]
	 Total Energy              =    -672.4375678768080888 [Eh]

	 ================> DF-SCS-MP2 Energies <==================
	-----------------------------------------------------------
	 SCS Same-Spin Scale       =       0.3333333333333333 [-]
	 SCS Opposite-Spin Scale   =       1.2000000000000000 [-]
	 SCS Same-Spin Energy      =      -0.1188937514035313 [Eh]
	 SCS Opposite-Spin Energy  =      -1.4884273862169659 [Eh]
	 SCS Correlation Energy    =      -1.6073211376204972 [Eh]
	 SCS Total Energy          =    -672.4478516050371582 [Eh]
	-----------------------------------------------------------

  Dipole Moment: [D]
     X:    -1.2463      Y:     1.7548      Z:     0.0856     Total:     2.1541

*** Psi4 exiting successfully. Buy a developer a beer!
