                               Psi4 1.3.2 release

  ==> Input File <==

--------------------------------------------------------------------------
#psi4
#
memory 32 gb

molecule  {
0 1
  S        1.0039920    -1.8370330     0.0416350
  C       -0.5844320    -0.0144930    -0.2342400
  C        0.7980434    -0.0027547     0.3459743
  C       -0.7993060    -1.5368490    -0.1403280
  C       -1.6389980     0.8445570     0.4478430
  C        1.8965050     0.8563820    -0.2511320
  C       -3.0139260     0.6977340    -0.2008490
  C        1.6197410     2.3450710    -0.0456480
  H       -0.4989150     0.2672930    -1.2933800
  H        0.7896660     0.1408860     1.4600880
  H       -1.3425120    -1.8245460     0.7655480
  H       -1.2523250    -2.0240820    -1.0064780
  H       -1.3288740     1.8959250     0.4270340
  H       -1.6941720     0.5567670     1.5060070
  H        2.8729810     0.5983550     0.1779310
  H        1.9538560     0.6259360    -1.3212150
  H       -2.9803430     0.9928380    -1.2542670
  H       -3.7577360     1.3235000     0.3006380
  H       -3.3631330    -0.3381970    -0.1530850
  H        0.6957430     2.6486760    -0.5454840
  H        2.4328210     2.9512940    -0.4556920
  H        1.5246440     2.5856330     1.0178510
units angstrom
no_reorient  #important for SAPT in psi4, default
symmetry c1  #important for SAPT in psi4, default
}

set PROPERTIES_ORIGIN ["COM"]
properties('MP2/aug-cc-pvtz', properties = ['dipole'])
--------------------------------------------------------------------------

    Molecular point group: c1
  Charge       = 0
  Multiplicity = 1
  Basis Set: AUG-CC-PVTZ
    Blend: AUG-CC-PVTZ
  Basis Set: (AUG-CC-PVTZ AUX)
    Blend: AUG-CC-PVTZ-JKFIT

    Orbital Energies [Eh]
    ---------------------

    Doubly Occupied:

       1A    -91.933543     2A    -11.259561     3A    -11.252870
       4A    -11.237568     5A    -11.227233     6A    -11.226485
       7A    -11.220232     8A    -11.219573     9A     -8.933888
      10A     -6.614679    11A     -6.614291    12A     -6.613072
      13A     -1.152128    14A     -1.050996    15A     -1.026771
      16A     -0.918991    17A     -0.909291    18A     -0.831274
      19A     -0.809637    20A     -0.743923    21A     -0.652300
      22A     -0.633925    23A     -0.603327    24A     -0.597721
      25A     -0.569728    26A     -0.555442    27A     -0.540377
      28A     -0.530303    29A     -0.520482    30A     -0.502721
      31A     -0.484231    32A     -0.469276    33A     -0.461517
      34A     -0.437101    35A     -0.391707    36A     -0.330117

  @DF-RHF Final Energy:  -670.85072879735685

   => Energetics <=

    Nuclear Repulsion Energy =            468.5161807517534385
    One-Electron Energy =               -1848.5812578760182987
    Two-Electron Energy =                 709.2143483269080662
    Total Energy =                       -670.8507287973568509
  Basis Set: (AUG-CC-PVTZ AUX)
    Blend: AUG-CC-PVTZ-RI
    Molecular point group: c1

    Geometry (in Angstrom), charge = 0, multiplicity = 1:

       Center              X                  Y                   Z               Mass
    ------------   -----------------  -----------------  -----------------  -----------------
         S            0.962199871464    -1.760340215958     0.041533784492    31.972071174400
         C           -0.626224128536     0.062199784042    -0.234341215508    12.000000000000
         C            0.756251271464     0.073938084042     0.345873084492    12.000000000000
         C           -0.841098128536    -1.460156215958    -0.140429215508    12.000000000000
         C           -1.680790128536     0.921249784042     0.447741784492    12.000000000000
         C            1.854712871464     0.933074784042    -0.251233215508    12.000000000000
         C           -3.055718128536     0.774426784042    -0.200950215508    12.000000000000
         C            1.577948871464     2.421763784042    -0.045749215508    12.000000000000
         H           -0.540707128536     0.343985784042    -1.293481215508     1.007825032230
         H            0.747873871464     0.217578784042     1.459986784492     1.007825032230
         H           -1.384304128536    -1.747853215958     0.765446784492     1.007825032230
         H           -1.294117128536    -1.947389215958    -1.006579215508     1.007825032230
         H           -1.370666128536     1.972617784042     0.426932784492     1.007825032230
         H           -1.735964128536     0.633459784042     1.505905784492     1.007825032230
         H            2.831188871464     0.675047784042     0.177829784492     1.007825032230
         H            1.912063871464     0.702628784042    -1.321316215508     1.007825032230
         H           -3.022135128536     1.069530784042    -1.254368215508     1.007825032230
         H           -3.799528128536     1.400192784042     0.300536784492     1.007825032230
         H           -3.404925128536    -0.261504215958    -0.153186215508     1.007825032230
         H            0.653950871464     2.725368784042    -0.545585215508     1.007825032230
         H            2.391028871464     3.027986784042    -0.455793215508     1.007825032230
         H            1.482851871464     2.662325784042     1.017749784492     1.007825032230

  Basis Set: AUG-CC-PVTZ
    Blend: AUG-CC-PVTZ
  Basis Set: (AUG-CC-PVTZ AUX)
    Blend: AUG-CC-PVTZ-JKFIT
	 Reference Energy          =    -670.8507287973568509 [Eh]
	 Singles Energy            =      -0.0000000000000000 [Eh]
	 Same-Spin Energy          =      -0.3561517811175697 [Eh]
	 Opposite-Spin Energy      =      -1.2396476114344790 [Eh]
	 Correlation Energy        =      -1.5957993925520486 [Eh]
	 Total Energy              =    -672.4465281899089177 [Eh]

	 ================> DF-SCS-MP2 Energies <==================
	-----------------------------------------------------------
	 SCS Same-Spin Scale       =       0.3333333333333333 [-]
	 SCS Opposite-Spin Scale   =       1.2000000000000000 [-]
	 SCS Same-Spin Energy      =      -0.1187172603725232 [Eh]
	 SCS Opposite-Spin Energy  =      -1.4875771337213748 [Eh]
	 SCS Correlation Energy    =      -1.6062943940938981 [Eh]
	 SCS Total Energy          =    -672.4570231914507303 [Eh]
	-----------------------------------------------------------

  Dipole Moment: [D]
     X:    -1.2697      Y:     1.8003      Z:     0.0347     Total:     2.2033

*** Psi4 exiting successfully. Buy a developer a beer!
