                               Psi4 1.4a3.dev225

  ==> Input File <==

--------------------------------------------------------------------------
#psi4
#
memory 32 gb

molecule  {
0 1
  S        1.0039920    -1.8370330     0.0416350
  C       -0.5844320    -0.0144930    -0.2342400
  C        0.8299028     0.0219331     0.3847830
  C       -0.7993060    -1.5368490    -0.1403280
  C       -1.6389980     0.8445570     0.4478430
  C        1.8965050     0.8563820    -0.2511320
  C       -3.0139260     0.6977340    -0.2008490
  C        1.6197410     2.3450710    -0.0456480
  H       -0.4989150     0.2672930    -1.2933800
  H        0.7896660     0.1408860     1.4600880
  H       -1.3425120    -1.8245460     0.7655480
  H       -1.2523250    -2.0240820    -1.0064780
  H       -1.3288740     1.8959250     0.4270340
  H       -1.6941720     0.5567670     1.5060070
  H        2.8729810     0.5983550     0.1779310
  H        1.9538560     0.6259360    -1.3212150
  H       -2.9803430     0.9928380    -1.2542670
  H       -3.7577360     1.3235000     0.3006380
  H       -3.3631330    -0.3381970    -0.1530850
  H        0.6957430     2.6486760    -0.5454840
  H        2.4328210     2.9512940    -0.4556920
  H        1.5246440     2.5856330     1.0178510
units angstrom
no_reorient  #important for SAPT in psi4, default
symmetry c1  #important for SAPT in psi4, default
}

set PROPERTIES_ORIGIN ["COM"]
properties('MP2/aug-cc-pvtz', properties = ['dipole'])
--------------------------------------------------------------------------

    Molecular point group: c1
  Charge       = 0
  Multiplicity = 1
  Basis Set: AUG-CC-PVTZ
    Blend: AUG-CC-PVTZ
  Basis Set: (AUG-CC-PVTZ AUX)
    Blend: AUG-CC-PVTZ-JKFIT

    Orbital Energies [Eh]
    ---------------------

    Doubly Occupied:

       1A    -91.932940     2A    -11.259018     3A    -11.252001
       4A    -11.240168     5A    -11.226701     6A    -11.225961
       7A    -11.219973     8A    -11.219937     9A     -8.932918
      10A     -6.613700    11A     -6.613292    12A     -6.612118
      13A     -1.145500    14A     -1.053610    15A     -1.025398
      16A     -0.919367    17A     -0.907388    18A     -0.831027
      19A     -0.806263    20A     -0.750501    21A     -0.651291
      22A     -0.633772    23A     -0.601653    24A     -0.597672
      25A     -0.572272    26A     -0.556305    27A     -0.539852
      28A     -0.530873    29A     -0.520412    30A     -0.502031
      31A     -0.488968    32A     -0.473598    33A     -0.457495
      34A     -0.435817    35A     -0.385581    36A     -0.330282

  @DF-RHF Final Energy:  -670.85182438876632

   => Energetics <=

    Nuclear Repulsion Energy =            467.8035646451918979
    One-Electron Energy =               -1847.1794718811115672
    Two-Electron Energy =                 708.5240828471532950
    Total Energy =                       -670.8518243887663175
  Basis Set: (AUG-CC-PVTZ AUX)
    Blend: AUG-CC-PVTZ-RI
    Molecular point group: c1

    Geometry (in Angstrom), charge = 0, multiplicity = 1:

       Center              X                  Y                   Z               Mass
    ------------   -----------------  -----------------  -----------------  -----------------
         S            0.959260849062    -1.762617659891     0.037953690746    31.972071174400
         C           -0.629163150938     0.059922340109    -0.237921309254    12.000000000000
         C            0.785171649062     0.096348440109     0.381101690746    12.000000000000
         C           -0.844037150938    -1.462433659891    -0.144009309254    12.000000000000
         C           -1.683729150938     0.918972340109     0.444161690746    12.000000000000
         C            1.851773849062     0.930797340109    -0.254813309254    12.000000000000
         C           -3.058657150938     0.772149340109    -0.204530309254    12.000000000000
         C            1.575009849062     2.419486340109    -0.049329309254    12.000000000000
         H           -0.543646150938     0.341708340109    -1.297061309254     1.007825032230
         H            0.744934849062     0.215301340109     1.456406690746     1.007825032230
         H           -1.387243150938    -1.750130659891     0.761866690746     1.007825032230
         H           -1.297056150938    -1.949666659891    -1.010159309254     1.007825032230
         H           -1.373605150938     1.970340340109     0.423352690746     1.007825032230
         H           -1.738903150938     0.631182340109     1.502325690746     1.007825032230
         H            2.828249849062     0.672770340109     0.174249690746     1.007825032230
         H            1.909124849062     0.700351340109    -1.324896309254     1.007825032230
         H           -3.025074150938     1.067253340109    -1.257948309254     1.007825032230
         H           -3.802467150938     1.397915340109     0.296956690746     1.007825032230
         H           -3.407864150938    -0.263781659891    -0.156766309254     1.007825032230
         H            0.651011849062     2.723091340109    -0.549165309254     1.007825032230
         H            2.388089849062     3.025709340109    -0.459373309254     1.007825032230
         H            1.479912849062     2.660048340109     1.014169690746     1.007825032230

  Basis Set: AUG-CC-PVTZ
    Blend: AUG-CC-PVTZ
  Basis Set: (AUG-CC-PVTZ AUX)
    Blend: AUG-CC-PVTZ-JKFIT
	 Reference Energy          =    -670.8518243887663175 [Eh]
	 Singles Energy            =      -0.0000000000000000 [Eh]
	 Same-Spin Energy          =      -0.3558428789623000 [Eh]
	 Opposite-Spin Energy      =      -1.2394379977447669 [Eh]
	 Correlation Energy        =      -1.5952808767070670 [Eh]
	 Total Energy              =    -672.4471052654733967 [Eh]

	 ================> DF-SCS-MP2 Energies <==================
	-----------------------------------------------------------
	 SCS Same-Spin Scale       =       0.3333333333333333 [-]
	 SCS Opposite-Spin Scale   =       1.2000000000000000 [-]
	 SCS Same-Spin Energy      =      -0.1186142929874333 [Eh]
	 SCS Opposite-Spin Energy  =      -1.4873255972937203 [Eh]
	 SCS Correlation Energy    =      -1.6059398902811537 [Eh]
	 SCS Total Energy          =    -672.4577642790475238 [Eh]
	-----------------------------------------------------------

  Dipole Moment: [D]
     X:    -1.2487      Y:     1.8706      Z:     0.0444     Total:     2.2495

*** Psi4 exiting successfully. Buy a developer a beer!
