                               Psi4 1.3.2 release

  ==> Input File <==

--------------------------------------------------------------------------
#psi4
#
memory 32 gb

molecule  {
0 1
  S        1.0039920    -1.8370330     0.0416350
  C       -0.5283076     0.0930005    -0.3411607
  C        0.8344880    -0.0270290     0.3757450
  C       -0.7993060    -1.5368490    -0.1403280
  C       -1.6389980     0.8445570     0.4478430
  C        1.8965050     0.8563820    -0.2511320
  C       -3.0139260     0.6977340    -0.2008490
  C        1.6197410     2.3450710    -0.0456480
  H       -0.4989150     0.2672930    -1.2933800
  H        0.7896660     0.1408860     1.4600880
  H       -1.3425120    -1.8245460     0.7655480
  H       -1.2523250    -2.0240820    -1.0064780
  H       -1.3288740     1.8959250     0.4270340
  H       -1.6941720     0.5567670     1.5060070
  H        2.8729810     0.5983550     0.1779310
  H        1.9538560     0.6259360    -1.3212150
  H       -2.9803430     0.9928380    -1.2542670
  H       -3.7577360     1.3235000     0.3006380
  H       -3.3631330    -0.3381970    -0.1530850
  H        0.6957430     2.6486760    -0.5454840
  H        2.4328210     2.9512940    -0.4556920
  H        1.5246440     2.5856330     1.0178510
units angstrom
no_reorient  #important for SAPT in psi4, default
symmetry c1  #important for SAPT in psi4, default
}

set PROPERTIES_ORIGIN ["COM"]
properties('MP2/aug-cc-pvtz', properties = ['dipole'])
--------------------------------------------------------------------------

    Molecular point group: c1
  Charge       = 0
  Multiplicity = 1
  Basis Set: AUG-CC-PVTZ
    Blend: AUG-CC-PVTZ
  Basis Set: (AUG-CC-PVTZ AUX)
    Blend: AUG-CC-PVTZ-JKFIT

    Orbital Energies [Eh]
    ---------------------

    Doubly Occupied:

       1A    -91.934028     2A    -11.258820     3A    -11.254812
       4A    -11.237257     5A    -11.229115     6A    -11.223337
       7A    -11.219695     8A    -11.219607     9A     -8.934308
      10A     -6.615145    11A     -6.614761    12A     -6.613571
      13A     -1.138246    14A     -1.047151    15A     -1.021304
      16A     -0.917425    17A     -0.909153    18A     -0.829387
      19A     -0.810127    20A     -0.760548    21A     -0.641667
      22A     -0.634116    23A     -0.599812    24A     -0.592308
      25A     -0.570450    26A     -0.554158    27A     -0.552438
      28A     -0.529007    29A     -0.516499    30A     -0.496458
      31A     -0.494285    32A     -0.483955    33A     -0.451851
      34A     -0.424684    35A     -0.382558    36A     -0.330197

  @DF-RHF Final Energy:  -670.82563302467224

   => Energetics <=

    Nuclear Repulsion Energy =            467.1177035846159811
    One-Electron Energy =               -1845.8021968431776259
    Two-Electron Energy =                 707.8588602338893452
    Total Energy =                       -670.8256330246722428
  Basis Set: (AUG-CC-PVTZ AUX)
    Blend: AUG-CC-PVTZ-RI
    Molecular point group: c1

    Geometry (in Angstrom), charge = 0, multiplicity = 1:

       Center              X                  Y                   Z               Mass
    ------------   -----------------  -----------------  -----------------  -----------------
         S            0.953660402275    -1.768017168225     0.048650854439    31.972071174400
         C           -0.578639197725     0.162016331775    -0.334144845561    12.000000000000
         C            0.784156402275     0.041986831775     0.382760854439    12.000000000000
         C           -0.849637597725    -1.467833168225    -0.133312145561    12.000000000000
         C           -1.689329597725     0.913572831775     0.454858854439    12.000000000000
         C            1.846173402275     0.925397831775    -0.244116145561    12.000000000000
         C           -3.064257597725     0.766749831775    -0.193833145561    12.000000000000
         C            1.569409402275     2.414086831775    -0.038632145561    12.000000000000
         H           -0.549246597725     0.336308831775    -1.286364145561     1.007825032230
         H            0.739334402275     0.209901831775     1.467103854439     1.007825032230
         H           -1.392843597725    -1.755530168225     0.772563854439     1.007825032230
         H           -1.302656597725    -1.955066168225    -0.999462145561     1.007825032230
         H           -1.379205597725     1.964940831775     0.434049854439     1.007825032230
         H           -1.744503597725     0.625782831775     1.513022854439     1.007825032230
         H            2.822649402275     0.667370831775     0.184946854439     1.007825032230
         H            1.903524402275     0.694951831775    -1.314199145561     1.007825032230
         H           -3.030674597725     1.061853831775    -1.247251145561     1.007825032230
         H           -3.808067597725     1.392515831775     0.307653854439     1.007825032230
         H           -3.413464597725    -0.269181168225    -0.146069145561     1.007825032230
         H            0.645411402275     2.717691831775    -0.538468145561     1.007825032230
         H            2.382489402275     3.020309831775    -0.448676145561     1.007825032230
         H            1.474312402275     2.654648831775     1.024866854439     1.007825032230

  Basis Set: AUG-CC-PVTZ
    Blend: AUG-CC-PVTZ
  Basis Set: (AUG-CC-PVTZ AUX)
    Blend: AUG-CC-PVTZ-JKFIT
	 Reference Energy          =    -670.8256330246722428 [Eh]
	 Singles Energy            =      -0.0000000000000000 [Eh]
	 Same-Spin Energy          =      -0.3557278711781688 [Eh]
	 Opposite-Spin Energy      =      -1.2404060307416698 [Eh]
	 Correlation Energy        =      -1.5961339019198386 [Eh]
	 Total Energy              =    -672.4217669265921131 [Eh]

	 ================> DF-SCS-MP2 Energies <==================
	-----------------------------------------------------------
	 SCS Same-Spin Scale       =       0.3333333333333333 [-]
	 SCS Opposite-Spin Scale   =       1.2000000000000000 [-]
	 SCS Same-Spin Energy      =      -0.1185759570593896 [Eh]
	 SCS Opposite-Spin Energy  =      -1.4884872368900037 [Eh]
	 SCS Correlation Energy    =      -1.6070631939493933 [Eh]
	 SCS Total Energy          =    -672.4326962186216861 [Eh]
	-----------------------------------------------------------

  Dipole Moment: [D]
     X:    -1.2944      Y:     1.7927      Z:     0.0210     Total:     2.2113

*** Psi4 exiting successfully. Buy a developer a beer!
