                               Psi4 1.3.2 release

  ==> Input File <==

--------------------------------------------------------------------------
#psi4
#
memory 32 gb

molecule  {
0 1
  S        1.0039920    -1.8370330     0.0416350
  C       -0.4806492     0.0435399    -0.1282760
  C        0.8344880    -0.0270290     0.3757450
  C       -0.7993060    -1.5368490    -0.1403280
  C       -1.6389980     0.8445570     0.4478430
  C        1.8965050     0.8563820    -0.2511320
  C       -3.0139260     0.6977340    -0.2008490
  C        1.6197410     2.3450710    -0.0456480
  H       -0.4989150     0.2672930    -1.2933800
  H        0.7896660     0.1408860     1.4600880
  H       -1.3425120    -1.8245460     0.7655480
  H       -1.2523250    -2.0240820    -1.0064780
  H       -1.3288740     1.8959250     0.4270340
  H       -1.6941720     0.5567670     1.5060070
  H        2.8729810     0.5983550     0.1779310
  H        1.9538560     0.6259360    -1.3212150
  H       -2.9803430     0.9928380    -1.2542670
  H       -3.7577360     1.3235000     0.3006380
  H       -3.3631330    -0.3381970    -0.1530850
  H        0.6957430     2.6486760    -0.5454840
  H        2.4328210     2.9512940    -0.4556920
  H        1.5246440     2.5856330     1.0178510
units angstrom
no_reorient  #important for SAPT in psi4, default
symmetry c1  #important for SAPT in psi4, default
}

set PROPERTIES_ORIGIN ["COM"]
properties('MP2/aug-cc-pvtz', properties = ['dipole'])
--------------------------------------------------------------------------

    Molecular point group: c1
  Charge       = 0
  Multiplicity = 1
  Basis Set: AUG-CC-PVTZ
    Blend: AUG-CC-PVTZ
  Basis Set: (AUG-CC-PVTZ AUX)
    Blend: AUG-CC-PVTZ-JKFIT

    Orbital Energies [Eh]
    ---------------------

    Doubly Occupied:

       1A    -91.936283     2A    -11.254368     3A    -11.252824
       4A    -11.245415     5A    -11.229070     6A    -11.225985
       7A    -11.223829     8A    -11.219886     9A     -8.936680
      10A     -6.617451    11A     -6.617136    12A     -6.615862
      13A     -1.160606    14A     -1.049600    15A     -1.026932
      16A     -0.928253    17A     -0.907920    18A     -0.829796
      19A     -0.815831    20A     -0.740740    21A     -0.650435
      22A     -0.635216    23A     -0.601415    24A     -0.595375
      25A     -0.572467    26A     -0.563354    27A     -0.538030
      28A     -0.532756    29A     -0.521111    30A     -0.502886
      31A     -0.486116    32A     -0.466187    33A     -0.447419
      34A     -0.444218    35A     -0.385669    36A     -0.331107

  @DF-RHF Final Energy:  -670.82685292570898

   => Energetics <=

    Nuclear Repulsion Energy =            469.2585195695001516
    One-Electron Energy =               -1849.9542882063733487
    Two-Electron Energy =                 709.8689157111642771
    Total Energy =                       -670.8268529257089767
  Basis Set: (AUG-CC-PVTZ AUX)
    Blend: AUG-CC-PVTZ-RI
    Molecular point group: c1

    Geometry (in Angstrom), charge = 0, multiplicity = 1:

       Center              X                  Y                   Z               Mass
    ------------   -----------------  -----------------  -----------------  -----------------
         S            0.949263925717    -1.763454439128     0.029012289298    31.972071174400
         C           -0.535377274283     0.117118460872    -0.140898710702    12.000000000000
         C            0.779759925717     0.046549560872     0.363122289298    12.000000000000
         C           -0.854034074283    -1.463270439128    -0.152950710702    12.000000000000
         C           -1.693726074283     0.918135560872     0.435220289298    12.000000000000
         C            1.841776925717     0.929960560872    -0.263754710702    12.000000000000
         C           -3.068654074283     0.771312560872    -0.213471710702    12.000000000000
         C            1.565012925717     2.418649560872    -0.058270710702    12.000000000000
         H           -0.553643074283     0.340871560872    -1.306002710702     1.007825032230
         H            0.734937925717     0.214464560872     1.447465289298     1.007825032230
         H           -1.397240074283    -1.750967439128     0.752925289298     1.007825032230
         H           -1.307053074283    -1.950503439128    -1.019100710702     1.007825032230
         H           -1.383602074283     1.969503560872     0.414411289298     1.007825032230
         H           -1.748900074283     0.630345560872     1.493384289298     1.007825032230
         H            2.818252925717     0.671933560872     0.165308289298     1.007825032230
         H            1.899127925717     0.699514560872    -1.333837710702     1.007825032230
         H           -3.035071074283     1.066416560872    -1.266889710702     1.007825032230
         H           -3.812464074283     1.397078560872     0.288015289298     1.007825032230
         H           -3.417861074283    -0.264618439128    -0.165707710702     1.007825032230
         H            0.641014925717     2.722254560872    -0.558106710702     1.007825032230
         H            2.378092925717     3.024872560872    -0.468314710702     1.007825032230
         H            1.469915925717     2.659211560872     1.005228289298     1.007825032230

  Basis Set: AUG-CC-PVTZ
    Blend: AUG-CC-PVTZ
  Basis Set: (AUG-CC-PVTZ AUX)
    Blend: AUG-CC-PVTZ-JKFIT
	 Reference Energy          =    -670.8268529257089767 [Eh]
	 Singles Energy            =      -0.0000000000000000 [Eh]
	 Same-Spin Energy          =      -0.3573990445186821 [Eh]
	 Opposite-Spin Energy      =      -1.2417025416554910 [Eh]
	 Correlation Energy        =      -1.5991015861741731 [Eh]
	 Total Energy              =    -672.4259545118831056 [Eh]

	 ================> DF-SCS-MP2 Energies <==================
	-----------------------------------------------------------
	 SCS Same-Spin Scale       =       0.3333333333333333 [-]
	 SCS Opposite-Spin Scale   =       1.2000000000000000 [-]
	 SCS Same-Spin Energy      =      -0.1191330148395607 [Eh]
	 SCS Opposite-Spin Energy  =      -1.4900430499865891 [Eh]
	 SCS Correlation Energy    =      -1.6091760648261497 [Eh]
	 SCS Total Energy          =    -672.4360289905350783 [Eh]
	-----------------------------------------------------------

  Dipole Moment: [D]
     X:    -1.3158      Y:     1.7262      Z:     0.0659     Total:     2.1715

*** Psi4 exiting successfully. Buy a developer a beer!
