                               Psi4 1.3.2 release

  ==> Input File <==

--------------------------------------------------------------------------
#psi4
#
memory 32 gb

molecule  {
0 1
  S        1.0039920    -1.8370330     0.0416350
  C       -0.5844320    -0.0144930    -0.2342400
  C        0.8609843    -0.0695157     0.3585239
  C       -0.7993060    -1.5368490    -0.1403280
  C       -1.6389980     0.8445570     0.4478430
  C        1.8965050     0.8563820    -0.2511320
  C       -3.0139260     0.6977340    -0.2008490
  C        1.6197410     2.3450710    -0.0456480
  H       -0.4989150     0.2672930    -1.2933800
  H        0.7896660     0.1408860     1.4600880
  H       -1.3425120    -1.8245460     0.7655480
  H       -1.2523250    -2.0240820    -1.0064780
  H       -1.3288740     1.8959250     0.4270340
  H       -1.6941720     0.5567670     1.5060070
  H        2.8729810     0.5983550     0.1779310
  H        1.9538560     0.6259360    -1.3212150
  H       -2.9803430     0.9928380    -1.2542670
  H       -3.7577360     1.3235000     0.3006380
  H       -3.3631330    -0.3381970    -0.1530850
  H        0.6957430     2.6486760    -0.5454840
  H        2.4328210     2.9512940    -0.4556920
  H        1.5246440     2.5856330     1.0178510
units angstrom
no_reorient  #important for SAPT in psi4, default
symmetry c1  #important for SAPT in psi4, default
}

set PROPERTIES_ORIGIN ["COM"]
properties('MP2/aug-cc-pvtz', properties = ['dipole'])
--------------------------------------------------------------------------

    Molecular point group: c1
  Charge       = 0
  Multiplicity = 1
  Basis Set: AUG-CC-PVTZ
    Blend: AUG-CC-PVTZ
  Basis Set: (AUG-CC-PVTZ AUX)
    Blend: AUG-CC-PVTZ-JKFIT

    Orbital Energies [Eh]
    ---------------------

    Doubly Occupied:

       1A    -91.936652     2A    -11.256602     3A    -11.253290
       4A    -11.238773     5A    -11.227033     6A    -11.224601
       7A    -11.220355     8A    -11.219785     9A     -8.937599
      10A     -6.618454    11A     -6.618126    12A     -6.616839
      13A     -1.148724    14A     -1.050386    15A     -1.027628
      16A     -0.918480    17A     -0.909743    18A     -0.835052
      19A     -0.804370    20A     -0.741558    21A     -0.648751
      22A     -0.631078    23A     -0.601250    24A     -0.597103
      25A     -0.571132    26A     -0.555636    27A     -0.540231
      28A     -0.528619    29A     -0.517681    30A     -0.502417
      31A     -0.482536    32A     -0.469797    33A     -0.463514
      34A     -0.434237    35A     -0.398282    36A     -0.331361

  @DF-RHF Final Energy:  -670.85118296678013

   => Energetics <=

    Nuclear Repulsion Energy =            468.4142747407929050
    One-Electron Energy =               -1848.3755659927903707
    Two-Electron Energy =                 709.1101082852172794
    Total Energy =                       -670.8511829667801294
  Basis Set: (AUG-CC-PVTZ AUX)
    Blend: AUG-CC-PVTZ-RI
    Molecular point group: c1

    Geometry (in Angstrom), charge = 0, multiplicity = 1:

       Center              X                  Y                   Z               Mass
    ------------   -----------------  -----------------  -----------------  -----------------
         S            0.956393587759    -1.754181528897     0.040376086747    31.972071174400
         C           -0.632030412241     0.068358471103    -0.235498913253    12.000000000000
         C            0.813385887759     0.013335771103     0.357264986747    12.000000000000
         C           -0.846904412241    -1.453997528897    -0.141586913253    12.000000000000
         C           -1.686596412241     0.927408471103     0.446584086747    12.000000000000
         C            1.848906587759     0.939233471103    -0.252390913253    12.000000000000
         C           -3.061524412241     0.780585471103    -0.202107913253    12.000000000000
         C            1.572142587759     2.427922471103    -0.046906913253    12.000000000000
         H           -0.546513412241     0.350144471103    -1.294638913253     1.007825032230
         H            0.742067587759     0.223737471103     1.458829086747     1.007825032230
         H           -1.390110412241    -1.741694528897     0.764289086747     1.007825032230
         H           -1.299923412241    -1.941230528897    -1.007736913253     1.007825032230
         H           -1.376472412241     1.978776471103     0.425775086747     1.007825032230
         H           -1.741770412241     0.639618471103     1.504748086747     1.007825032230
         H            2.825382587759     0.681206471103     0.176672086747     1.007825032230
         H            1.906257587759     0.708787471103    -1.322473913253     1.007825032230
         H           -3.027941412241     1.075689471103    -1.255525913253     1.007825032230
         H           -3.805334412241     1.406351471103     0.299379086747     1.007825032230
         H           -3.410731412241    -0.255345528897    -0.154343913253     1.007825032230
         H            0.648144587759     2.731527471103    -0.546742913253     1.007825032230
         H            2.385222587759     3.034145471103    -0.456950913253     1.007825032230
         H            1.477045587759     2.668484471103     1.016592086747     1.007825032230

  Basis Set: AUG-CC-PVTZ
    Blend: AUG-CC-PVTZ
  Basis Set: (AUG-CC-PVTZ AUX)
    Blend: AUG-CC-PVTZ-JKFIT
	 Reference Energy          =    -670.8511829667801294 [Eh]
	 Singles Energy            =      -0.0000000000000000 [Eh]
	 Same-Spin Energy          =      -0.3559279830264431 [Eh]
	 Opposite-Spin Energy      =      -1.2392349230607160 [Eh]
	 Correlation Energy        =      -1.5951629060871593 [Eh]
	 Total Energy              =    -672.4463458728672549 [Eh]

	 ================> DF-SCS-MP2 Energies <==================
	-----------------------------------------------------------
	 SCS Same-Spin Scale       =       0.3333333333333333 [-]
	 SCS Opposite-Spin Scale   =       1.2000000000000000 [-]
	 SCS Same-Spin Energy      =      -0.1186426610088144 [Eh]
	 SCS Opposite-Spin Energy  =      -1.4870819076728592 [Eh]
	 SCS Correlation Energy    =      -1.6057245686816737 [Eh]
	 SCS Total Energy          =    -672.4569075354618235 [Eh]
	-----------------------------------------------------------

  Dipole Moment: [D]
     X:    -1.2974      Y:     1.7071      Z:     0.0313     Total:     2.1444

*** Psi4 exiting successfully. Buy a developer a beer!
