                               Psi4 1.3.2 release

  ==> Input File <==

--------------------------------------------------------------------------
#psi4
#
memory 32 gb

molecule  {
0 1
  S        1.0039920    -1.8370330     0.0416350
  C       -0.5844320    -0.0144930    -0.2342400
  C        0.8344880    -0.0270290     0.3757450
  C       -0.7993060    -1.5368490    -0.1403280
  C       -1.6063867     0.7638996     0.5812519
  C        1.8965050     0.8563820    -0.2511320
  C       -3.0139260     0.6977340    -0.2008490
  C        1.6197410     2.3450710    -0.0456480
  H       -0.4989150     0.2672930    -1.2933800
  H        0.7896660     0.1408860     1.4600880
  H       -1.3425120    -1.8245460     0.7655480
  H       -1.2523250    -2.0240820    -1.0064780
  H       -1.3288740     1.8959250     0.4270340
  H       -1.6941720     0.5567670     1.5060070
  H        2.8729810     0.5983550     0.1779310
  H        1.9538560     0.6259360    -1.3212150
  H       -2.9803430     0.9928380    -1.2542670
  H       -3.7577360     1.3235000     0.3006380
  H       -3.3631330    -0.3381970    -0.1530850
  H        0.6957430     2.6486760    -0.5454840
  H        2.4328210     2.9512940    -0.4556920
  H        1.5246440     2.5856330     1.0178510
units angstrom
no_reorient  #important for SAPT in psi4, default
symmetry c1  #important for SAPT in psi4, default
}

set PROPERTIES_ORIGIN ["COM"]
properties('MP2/aug-cc-pvtz', properties = ['dipole'])
--------------------------------------------------------------------------

    Molecular point group: c1
  Charge       = 0
  Multiplicity = 1
  Basis Set: AUG-CC-PVTZ
    Blend: AUG-CC-PVTZ
  Basis Set: (AUG-CC-PVTZ AUX)
    Blend: AUG-CC-PVTZ-JKFIT

    Orbital Energies [Eh]
    ---------------------

    Doubly Occupied:

       1A    -91.934117     2A    -11.255792     3A    -11.251687
       4A    -11.240802     5A    -11.226796     6A    -11.225224
       7A    -11.223440     8A    -11.218762     9A     -8.934567
      10A     -6.615363    11A     -6.615031    12A     -6.613801
      13A     -1.148574    14A     -1.047559    15A     -1.019886
      16A     -0.917657    17A     -0.906486    18A     -0.836928
      19A     -0.816792    20A     -0.747867    21A     -0.647787
      22A     -0.636856    23A     -0.607962    24A     -0.589826
      25A     -0.569513    26A     -0.553067    27A     -0.538166
      28A     -0.529229    29A     -0.516319    30A     -0.508184
      31A     -0.494256    32A     -0.480390    33A     -0.447475
      34A     -0.427706    35A     -0.386682    36A     -0.330686

  @DF-RHF Final Energy:  -670.82248999733679

   => Energetics <=

    Nuclear Repulsion Energy =            468.1050547520401892
    One-Electron Energy =               -1847.7326173962439952
    Two-Electron Energy =                 708.8050726468670746
    Total Energy =                       -670.8224899973367883
  Basis Set: (AUG-CC-PVTZ AUX)
    Blend: AUG-CC-PVTZ-RI
    Molecular point group: c1

    Geometry (in Angstrom), charge = 0, multiplicity = 1:

       Center              X                  Y                   Z               Mass
    ------------   -----------------  -----------------  -----------------  -----------------
         S            0.955829480400    -1.750660290506     0.026480503517    31.972071174400
         C           -0.632594519600     0.071879709494    -0.249394496483    12.000000000000
         C            0.786325480400     0.059343709494     0.360590503517    12.000000000000
         C           -0.847468519600    -1.450476290506    -0.155482496483    12.000000000000
         C           -1.654549219600     0.850272309494     0.566097403517    12.000000000000
         C            1.848342480400     0.942754709494    -0.266286496483    12.000000000000
         C           -3.062088519600     0.784106709494    -0.216003496483    12.000000000000
         C            1.571578480400     2.431443709494    -0.060802496483    12.000000000000
         H           -0.547077519600     0.353665709494    -1.308534496483     1.007825032230
         H            0.741503480400     0.227258709494     1.444933503517     1.007825032230
         H           -1.390674519600    -1.738173290506     0.750393503517     1.007825032230
         H           -1.300487519600    -1.937709290506    -1.021632496483     1.007825032230
         H           -1.377036519600     1.982297709494     0.411879503517     1.007825032230
         H           -1.742334519600     0.643139709494     1.490852503517     1.007825032230
         H            2.824818480400     0.684727709494     0.162776503517     1.007825032230
         H            1.905693480400     0.712308709494    -1.336369496483     1.007825032230
         H           -3.028505519600     1.079210709494    -1.269421496483     1.007825032230
         H           -3.805898519600     1.409872709494     0.285483503517     1.007825032230
         H           -3.411295519600    -0.251824290506    -0.168239496483     1.007825032230
         H            0.647580480400     2.735048709494    -0.560638496483     1.007825032230
         H            2.384658480400     3.037666709494    -0.470846496483     1.007825032230
         H            1.476481480400     2.672005709494     1.002696503517     1.007825032230

  Basis Set: AUG-CC-PVTZ
    Blend: AUG-CC-PVTZ
  Basis Set: (AUG-CC-PVTZ AUX)
    Blend: AUG-CC-PVTZ-JKFIT
	 Reference Energy          =    -670.8224899973367883 [Eh]
	 Singles Energy            =      -0.0000000000000000 [Eh]
	 Same-Spin Energy          =      -0.3559142921272300 [Eh]
	 Opposite-Spin Energy      =      -1.2403804633815581 [Eh]
	 Correlation Energy        =      -1.5962947555087881 [Eh]
	 Total Energy              =    -672.4187847528455677 [Eh]

	 ================> DF-SCS-MP2 Energies <==================
	-----------------------------------------------------------
	 SCS Same-Spin Scale       =       0.3333333333333333 [-]
	 SCS Opposite-Spin Scale   =       1.2000000000000000 [-]
	 SCS Same-Spin Energy      =      -0.1186380973757433 [Eh]
	 SCS Opposite-Spin Energy  =      -1.4884565560578695 [Eh]
	 SCS Correlation Energy    =      -1.6070946534336128 [Eh]
	 SCS Total Energy          =    -672.4295846507703800 [Eh]
	-----------------------------------------------------------

  Dipole Moment: [D]
     X:    -1.2846      Y:     1.7396      Z:     0.0769     Total:     2.1638

*** Psi4 exiting successfully. Buy a developer a beer!
