                               Psi4 1.3.2 release

  ==> Input File <==

--------------------------------------------------------------------------
#psi4
#
memory 32 gb

molecule  {
0 1
  S        1.0039920    -1.8370330     0.0416350
  C       -0.6393331     0.0122952    -0.0845567
  C        0.8344880    -0.0270290     0.3757450
  C       -0.7993060    -1.5368490    -0.1403280
  C       -1.6389980     0.8445570     0.4478430
  C        1.8965050     0.8563820    -0.2511320
  C       -3.0139260     0.6977340    -0.2008490
  C        1.6197410     2.3450710    -0.0456480
  H       -0.4989150     0.2672930    -1.2933800
  H        0.7896660     0.1408860     1.4600880
  H       -1.3425120    -1.8245460     0.7655480
  H       -1.2523250    -2.0240820    -1.0064780
  H       -1.3288740     1.8959250     0.4270340
  H       -1.6941720     0.5567670     1.5060070
  H        2.8729810     0.5983550     0.1779310
  H        1.9538560     0.6259360    -1.3212150
  H       -2.9803430     0.9928380    -1.2542670
  H       -3.7577360     1.3235000     0.3006380
  H       -3.3631330    -0.3381970    -0.1530850
  H        0.6957430     2.6486760    -0.5454840
  H        2.4328210     2.9512940    -0.4556920
  H        1.5246440     2.5856330     1.0178510
units angstrom
no_reorient  #important for SAPT in psi4, default
symmetry c1  #important for SAPT in psi4, default
}

set PROPERTIES_ORIGIN ["COM"]
properties('MP2/aug-cc-pvtz', properties = ['dipole'])
--------------------------------------------------------------------------

    Molecular point group: c1
  Charge       = 0
  Multiplicity = 1
  Basis Set: AUG-CC-PVTZ
    Blend: AUG-CC-PVTZ
  Basis Set: (AUG-CC-PVTZ AUX)
    Blend: AUG-CC-PVTZ-JKFIT

    Orbital Energies [Eh]
    ---------------------

    Doubly Occupied:

       1A    -91.937215     2A    -11.260312     3A    -11.255743
       4A    -11.247660     5A    -11.226741     6A    -11.224440
       7A    -11.223283     8A    -11.219505     9A     -8.937488
      10A     -6.618362    11A     -6.617909    12A     -6.616706
      13A     -1.151830    14A     -1.061495    15A     -1.029849
      16A     -0.921591    17A     -0.916279    18A     -0.833602
      19A     -0.807808    20A     -0.733736    21A     -0.658173
      22A     -0.636840    23A     -0.606321    24A     -0.595732
      25A     -0.572199    26A     -0.566899    27A     -0.539500
      28A     -0.526805    29A     -0.517648    30A     -0.509325
      31A     -0.485244    32A     -0.460212    33A     -0.443886
      34A     -0.431087    35A     -0.400378    36A     -0.331117

  @DF-RHF Final Energy:  -670.82365576390885

   => Energetics <=

    Nuclear Repulsion Energy =            468.5883866381739153
    One-Electron Energy =               -1848.5782465399629473
    Two-Electron Energy =                 709.1662041378801860
    Total Energy =                       -670.8236557639088460
  Basis Set: (AUG-CC-PVTZ AUX)
    Blend: AUG-CC-PVTZ-RI
    Molecular point group: c1

    Geometry (in Angstrom), charge = 0, multiplicity = 1:

       Center              X                  Y                   Z               Mass
    ------------   -----------------  -----------------  -----------------  -----------------
         S            0.963902479390    -1.760572122661     0.024979193819    31.972071174400
         C           -0.679422620610     0.088756077339    -0.101212506181    12.000000000000
         C            0.794398479390     0.049431877339     0.359089193819    12.000000000000
         C           -0.839395520610    -1.460388122661    -0.156983806181    12.000000000000
         C           -1.679087520610     0.921017877339     0.431187193819    12.000000000000
         C            1.856415479390     0.932842877339    -0.267787806181    12.000000000000
         C           -3.054015520610     0.774194877339    -0.217504806181    12.000000000000
         C            1.579651479390     2.421531877339    -0.062303806181    12.000000000000
         H           -0.539004520610     0.343753877339    -1.310035806181     1.007825032230
         H            0.749576479390     0.217346877339     1.443432193819     1.007825032230
         H           -1.382601520610    -1.748085122661     0.748892193819     1.007825032230
         H           -1.292414520610    -1.947621122661    -1.023133806181     1.007825032230
         H           -1.368963520610     1.972385877339     0.410378193819     1.007825032230
         H           -1.734261520610     0.633227877339     1.489351193819     1.007825032230
         H            2.832891479390     0.674815877339     0.161275193819     1.007825032230
         H            1.913766479390     0.702396877339    -1.337870806181     1.007825032230
         H           -3.020432520610     1.069298877339    -1.270922806181     1.007825032230
         H           -3.797825520610     1.399960877339     0.283982193819     1.007825032230
         H           -3.403222520610    -0.261736122661    -0.169740806181     1.007825032230
         H            0.655653479390     2.725136877339    -0.562139806181     1.007825032230
         H            2.392731479390     3.027754877339    -0.472347806181     1.007825032230
         H            1.484554479390     2.662093877339     1.001195193819     1.007825032230

  Basis Set: AUG-CC-PVTZ
    Blend: AUG-CC-PVTZ
  Basis Set: (AUG-CC-PVTZ AUX)
    Blend: AUG-CC-PVTZ-JKFIT
	 Reference Energy          =    -670.8236557639088460 [Eh]
	 Singles Energy            =      -0.0000000000000000 [Eh]
	 Same-Spin Energy          =      -0.3576437709940139 [Eh]
	 Opposite-Spin Energy      =      -1.2420824323905606 [Eh]
	 Correlation Energy        =      -1.5997262033845745 [Eh]
	 Total Energy              =    -672.4233819672933805 [Eh]

	 ================> DF-SCS-MP2 Energies <==================
	-----------------------------------------------------------
	 SCS Same-Spin Scale       =       0.3333333333333333 [-]
	 SCS Opposite-Spin Scale   =       1.2000000000000000 [-]
	 SCS Same-Spin Energy      =      -0.1192145903313380 [Eh]
	 SCS Opposite-Spin Energy  =      -1.4904989188686726 [Eh]
	 SCS Correlation Energy    =      -1.6097135092000106 [Eh]
	 SCS Total Energy          =    -672.4333692731088377 [Eh]
	-----------------------------------------------------------

  Dipole Moment: [D]
     X:    -1.3191      Y:     1.7718      Z:     0.1553     Total:     2.2144

*** Psi4 exiting successfully. Buy a developer a beer!
