                               Psi4 1.3.2 release

  ==> Input File <==

--------------------------------------------------------------------------
#psi4
#
memory 32 gb

molecule  {
0 1
  S        1.0039920    -1.8370330     0.0416350
  C       -0.5844320    -0.0144930    -0.2342400
  C        0.8161471     0.1688196     0.4118968
  C       -0.7993060    -1.5368490    -0.1403280
  C       -1.6389980     0.8445570     0.4478430
  C        1.8965050     0.8563820    -0.2511320
  C       -3.0139260     0.6977340    -0.2008490
  C        1.6197410     2.3450710    -0.0456480
  H       -0.4989150     0.2672930    -1.2933800
  H        0.7896660     0.1408860     1.4600880
  H       -1.3425120    -1.8245460     0.7655480
  H       -1.2523250    -2.0240820    -1.0064780
  H       -1.3288740     1.8959250     0.4270340
  H       -1.6941720     0.5567670     1.5060070
  H        2.8729810     0.5983550     0.1779310
  H        1.9538560     0.6259360    -1.3212150
  H       -2.9803430     0.9928380    -1.2542670
  H       -3.7577360     1.3235000     0.3006380
  H       -3.3631330    -0.3381970    -0.1530850
  H        0.6957430     2.6486760    -0.5454840
  H        2.4328210     2.9512940    -0.4556920
  H        1.5246440     2.5856330     1.0178510
units angstrom
no_reorient  #important for SAPT in psi4, default
symmetry c1  #important for SAPT in psi4, default
}

set PROPERTIES_ORIGIN ["COM"]
properties('MP2/aug-cc-pvtz', properties = ['dipole'])
--------------------------------------------------------------------------

    Molecular point group: c1
  Charge       = 0
  Multiplicity = 1
  Basis Set: AUG-CC-PVTZ
    Blend: AUG-CC-PVTZ
  Basis Set: (AUG-CC-PVTZ AUX)
    Blend: AUG-CC-PVTZ-JKFIT

    Orbital Energies [Eh]
    ---------------------

    Doubly Occupied:

       1A    -91.923418     2A    -11.269690     3A    -11.249992
       4A    -11.245836     5A    -11.229080     6A    -11.227047
       7A    -11.223073     8A    -11.219858     9A     -8.922845
      10A     -6.603580    11A     -6.603017    12A     -6.601958
      13A     -1.143162    14A     -1.065118    15A     -1.021507
      16A     -0.924686    17A     -0.903378    18A     -0.827451
      19A     -0.807361    20A     -0.760340    21A     -0.657974
      22A     -0.638840    23A     -0.605790    24A     -0.599524
      25A     -0.578790    26A     -0.556131    27A     -0.542386
      28A     -0.531379    29A     -0.527323    30A     -0.502025
      31A     -0.500176    32A     -0.477446    33A     -0.460306
      34A     -0.429585    35A     -0.354410    36A     -0.323977

  @DF-RHF Final Energy:  -670.82853698072176

   => Energetics <=

    Nuclear Repulsion Energy =            466.8004812830047854
    One-Electron Energy =               -1845.1411190874318891
    Two-Electron Energy =                 707.5121008237053957
    Total Energy =                       -670.8285369807217648
  Basis Set: (AUG-CC-PVTZ AUX)
    Blend: AUG-CC-PVTZ-RI
    Molecular point group: c1

    Geometry (in Angstrom), charge = 0, multiplicity = 1:

       Center              X                  Y                   Z               Mass
    ------------   -----------------  -----------------  -----------------  -----------------
         S            0.960529809258    -1.776167906098     0.035452448865    31.972071174400
         C           -0.627894190742     0.046372093902    -0.240422551135    12.000000000000
         C            0.772684909258     0.229684693902     0.405714248865    12.000000000000
         C           -0.842768190742    -1.475983906098    -0.146510551135    12.000000000000
         C           -1.682460190742     0.905422093902     0.441660448865    12.000000000000
         C            1.853042809258     0.917247093902    -0.257314551135    12.000000000000
         C           -3.057388190742     0.758599093902    -0.207031551135    12.000000000000
         C            1.576278809258     2.405936093902    -0.051830551135    12.000000000000
         H           -0.542377190742     0.328158093902    -1.299562551135     1.007825032230
         H            0.746203809258     0.201751093902     1.453905448865     1.007825032230
         H           -1.385974190742    -1.763680906098     0.759365448865     1.007825032230
         H           -1.295787190742    -1.963216906098    -1.012660551135     1.007825032230
         H           -1.372336190742     1.956790093902     0.420851448865     1.007825032230
         H           -1.737634190742     0.617632093902     1.499824448865     1.007825032230
         H            2.829518809258     0.659220093902     0.171748448865     1.007825032230
         H            1.910393809258     0.686801093902    -1.327397551135     1.007825032230
         H           -3.023805190742     1.053703093902    -1.260449551135     1.007825032230
         H           -3.801198190742     1.384365093902     0.294455448865     1.007825032230
         H           -3.406595190742    -0.277331906098    -0.159267551135     1.007825032230
         H            0.652280809258     2.709541093902    -0.551666551135     1.007825032230
         H            2.389358809258     3.012159093902    -0.461874551135     1.007825032230
         H            1.481181809258     2.646498093902     1.011668448865     1.007825032230

  Basis Set: AUG-CC-PVTZ
    Blend: AUG-CC-PVTZ
  Basis Set: (AUG-CC-PVTZ AUX)
    Blend: AUG-CC-PVTZ-JKFIT
	 Reference Energy          =    -670.8285369807217648 [Eh]
	 Singles Energy            =      -0.0000000000000000 [Eh]
	 Same-Spin Energy          =      -0.3570374335194842 [Eh]
	 Opposite-Spin Energy      =      -1.2418943206653741 [Eh]
	 Correlation Energy        =      -1.5989317541848584 [Eh]
	 Total Energy              =    -672.4274687349065971 [Eh]

	 ================> DF-SCS-MP2 Energies <==================
	-----------------------------------------------------------
	 SCS Same-Spin Scale       =       0.3333333333333333 [-]
	 SCS Opposite-Spin Scale   =       1.2000000000000000 [-]
	 SCS Same-Spin Energy      =      -0.1190124778398281 [Eh]
	 SCS Opposite-Spin Energy  =      -1.4902731847984489 [Eh]
	 SCS Correlation Energy    =      -1.6092856626382770 [Eh]
	 SCS Total Energy          =    -672.4378226433600503 [Eh]
	-----------------------------------------------------------

  Dipole Moment: [D]
     X:    -1.1791      Y:     2.1652      Z:     0.0319     Total:     2.4657

*** Psi4 exiting successfully. Buy a developer a beer!
