                               Psi4 1.3.2 release

  ==> Input File <==

--------------------------------------------------------------------------
#psi4
#
memory 32 gb

molecule  {
0 1
  S        1.0039920    -1.8370330     0.0416350
  C       -0.5844320    -0.0144930    -0.2342400
  C        0.8344880    -0.0270290     0.3757450
  C       -0.7993060    -1.5368490    -0.1403280
  C       -1.6543368     0.8931502     0.3546582
  C        1.8965050     0.8563820    -0.2511320
  C       -3.0139260     0.6977340    -0.2008490
  C        1.6197410     2.3450710    -0.0456480
  H       -0.4989150     0.2672930    -1.2933800
  H        0.7896660     0.1408860     1.4600880
  H       -1.3425120    -1.8245460     0.7655480
  H       -1.2523250    -2.0240820    -1.0064780
  H       -1.3288740     1.8959250     0.4270340
  H       -1.6941720     0.5567670     1.5060070
  H        2.8729810     0.5983550     0.1779310
  H        1.9538560     0.6259360    -1.3212150
  H       -2.9803430     0.9928380    -1.2542670
  H       -3.7577360     1.3235000     0.3006380
  H       -3.3631330    -0.3381970    -0.1530850
  H        0.6957430     2.6486760    -0.5454840
  H        2.4328210     2.9512940    -0.4556920
  H        1.5246440     2.5856330     1.0178510
units angstrom
no_reorient  #important for SAPT in psi4, default
symmetry c1  #important for SAPT in psi4, default
}

set PROPERTIES_ORIGIN ["COM"]
properties('MP2/aug-cc-pvtz', properties = ['dipole'])
--------------------------------------------------------------------------

    Molecular point group: c1
  Charge       = 0
  Multiplicity = 1
  Basis Set: AUG-CC-PVTZ
    Blend: AUG-CC-PVTZ
  Basis Set: (AUG-CC-PVTZ AUX)
    Blend: AUG-CC-PVTZ-JKFIT

    Orbital Energies [Eh]
    ---------------------

    Doubly Occupied:

       1A    -91.935782     2A    -11.258355     3A    -11.253772
       4A    -11.239744     5A    -11.230894     6A    -11.225855
       7A    -11.220106     8A    -11.219595     9A     -8.936199
      10A     -6.617010    11A     -6.616649    12A     -6.615406
      13A     -1.147951    14A     -1.055149    15A     -1.030830
      16A     -0.918176    17A     -0.912238    18A     -0.832560
      19A     -0.802916    20A     -0.746211    21A     -0.651399
      22A     -0.634327    23A     -0.605738    24A     -0.593056
      25A     -0.573469    26A     -0.561981    27A     -0.545743
      28A     -0.532302    29A     -0.521522    30A     -0.500499
      31A     -0.482292    32A     -0.465422    33A     -0.444253
      34A     -0.436773    35A     -0.398742    36A     -0.331766

  @DF-RHF Final Energy:  -670.84177638328651

   => Energetics <=

    Nuclear Repulsion Energy =            468.2261768326247875
    One-Electron Energy =               -1847.9465466480517080
    Two-Electron Energy =                 708.8785934321404056
    Total Energy =                       -670.8417763832865148
  Basis Set: (AUG-CC-PVTZ AUX)
    Blend: AUG-CC-PVTZ-RI
    Molecular point group: c1

    Geometry (in Angstrom), charge = 0, multiplicity = 1:

       Center              X                  Y                   Z               Mass
    ------------   -----------------  -----------------  -----------------  -----------------
         S            0.960252866216    -1.762583628950     0.047383720789    31.972071174400
         C           -0.628171133784     0.059956371050    -0.228491279211    12.000000000000
         C            0.790748866216     0.047420371050     0.381493720789    12.000000000000
         C           -0.843045133784    -1.462399628950    -0.134579279211    12.000000000000
         C           -1.698075933784     0.967599571050     0.360406920789    12.000000000000
         C            1.852765866216     0.930831371050    -0.245383279211    12.000000000000
         C           -3.057665133784     0.772183371050    -0.195100279211    12.000000000000
         C            1.576001866216     2.419520371050    -0.039899279211    12.000000000000
         H           -0.542654133784     0.341742371050    -1.287631279211     1.007825032230
         H            0.745926866216     0.215335371050     1.465836720789     1.007825032230
         H           -1.386251133784    -1.750096628950     0.771296720789     1.007825032230
         H           -1.296064133784    -1.949632628950    -1.000729279211     1.007825032230
         H           -1.372613133784     1.970374371050     0.432782720789     1.007825032230
         H           -1.737911133784     0.631216371050     1.511755720789     1.007825032230
         H            2.829241866216     0.672804371050     0.183679720789     1.007825032230
         H            1.910116866216     0.700385371050    -1.315466279211     1.007825032230
         H           -3.024082133784     1.067287371050    -1.248518279211     1.007825032230
         H           -3.801475133784     1.397949371050     0.306386720789     1.007825032230
         H           -3.406872133784    -0.263747628950    -0.147336279211     1.007825032230
         H            0.652003866216     2.723125371050    -0.539735279211     1.007825032230
         H            2.389081866216     3.025743371050    -0.449943279211     1.007825032230
         H            1.480904866216     2.660082371050     1.023599720789     1.007825032230

  Basis Set: AUG-CC-PVTZ
    Blend: AUG-CC-PVTZ
  Basis Set: (AUG-CC-PVTZ AUX)
    Blend: AUG-CC-PVTZ-JKFIT
	 Reference Energy          =    -670.8417763832865148 [Eh]
	 Singles Energy            =      -0.0000000000000000 [Eh]
	 Same-Spin Energy          =      -0.3562845460229042 [Eh]
	 Opposite-Spin Energy      =      -1.2400033872633021 [Eh]
	 Correlation Energy        =      -1.5962879332862063 [Eh]
	 Total Energy              =    -672.4380643165727633 [Eh]

	 ================> DF-SCS-MP2 Energies <==================
	-----------------------------------------------------------
	 SCS Same-Spin Scale       =       0.3333333333333333 [-]
	 SCS Opposite-Spin Scale   =       1.2000000000000000 [-]
	 SCS Same-Spin Energy      =      -0.1187615153409680 [Eh]
	 SCS Opposite-Spin Energy  =      -1.4880040647159625 [Eh]
	 SCS Correlation Energy    =      -1.6067655800569305 [Eh]
	 SCS Total Energy          =    -672.4485419633434731 [Eh]
	-----------------------------------------------------------

  Dipole Moment: [D]
     X:    -1.2623      Y:     1.7855      Z:    -0.0343     Total:     2.1869

*** Psi4 exiting successfully. Buy a developer a beer!
