                               Psi4 1.3.2 release

  ==> Input File <==

--------------------------------------------------------------------------
#psi4
#
memory 32 gb

molecule  {
0 1
  S        1.0039920    -1.8370330     0.0416350
  C       -0.5922888    -0.0324538    -0.2157374
  C        0.8344880    -0.0270290     0.3757450
  C       -0.7993060    -1.5368490    -0.1403280
  C       -1.6389980     0.8445570     0.4478430
  C        1.8965050     0.8563820    -0.2511320
  C       -3.0139260     0.6977340    -0.2008490
  C        1.6197410     2.3450710    -0.0456480
  H       -0.4989150     0.2672930    -1.2933800
  H        0.7896660     0.1408860     1.4600880
  H       -1.3425120    -1.8245460     0.7655480
  H       -1.2523250    -2.0240820    -1.0064780
  H       -1.3288740     1.8959250     0.4270340
  H       -1.6941720     0.5567670     1.5060070
  H        2.8729810     0.5983550     0.1779310
  H        1.9538560     0.6259360    -1.3212150
  H       -2.9803430     0.9928380    -1.2542670
  H       -3.7577360     1.3235000     0.3006380
  H       -3.3631330    -0.3381970    -0.1530850
  H        0.6957430     2.6486760    -0.5454840
  H        2.4328210     2.9512940    -0.4556920
  H        1.5246440     2.5856330     1.0178510
units angstrom
no_reorient  #important for SAPT in psi4, default
symmetry c1  #important for SAPT in psi4, default
}

set PROPERTIES_ORIGIN ["COM"]
properties('MP2/aug-cc-pvtz', properties = ['dipole'])
--------------------------------------------------------------------------

    Molecular point group: c1
  Charge       = 0
  Multiplicity = 1
  Basis Set: AUG-CC-PVTZ
    Blend: AUG-CC-PVTZ
  Basis Set: (AUG-CC-PVTZ AUX)
    Blend: AUG-CC-PVTZ-JKFIT

    Orbital Energies [Eh]
    ---------------------

    Doubly Occupied:

       1A    -91.935183     2A    -11.257150     3A    -11.252251
       4A    -11.239712     5A    -11.226821     6A    -11.225921
       7A    -11.220177     8A    -11.219566     9A     -8.935633
      10A     -6.616433    11A     -6.616090    12A     -6.614843
      13A     -1.149685    14A     -1.051248    15A     -1.027433
      16A     -0.918839    17A     -0.909017    18A     -0.833363
      19A     -0.805455    20A     -0.744424    21A     -0.651406
      22A     -0.632134    23A     -0.602734    24A     -0.597229
      25A     -0.571018    26A     -0.557099    27A     -0.539712
      28A     -0.529143    29A     -0.518979    30A     -0.503017
      31A     -0.485064    32A     -0.466138    33A     -0.461475
      34A     -0.436797    35A     -0.394662    36A     -0.331283

  @DF-RHF Final Energy:  -670.85250254727725

   => Energetics <=

    Nuclear Repulsion Energy =            468.3296751965720546
    One-Electron Energy =               -1848.2100817433990869
    Two-Electron Energy =                 709.0279039995498351
    Total Energy =                       -670.8525025472772541
  Basis Set: (AUG-CC-PVTZ AUX)
    Blend: AUG-CC-PVTZ-RI
    Molecular point group: c1

    Geometry (in Angstrom), charge = 0, multiplicity = 1:

       Center              X                  Y                   Z               Mass
    ------------   -----------------  -----------------  -----------------  -----------------
         S            0.959562653418    -1.756444037592     0.037080583549    31.972071174400
         C           -0.636718146582     0.048135162408    -0.220291816451    12.000000000000
         C            0.790058653418     0.053559962408     0.371190583549    12.000000000000
         C           -0.843735346582    -1.456260037592    -0.144882416451    12.000000000000
         C           -1.683427346582     0.925145962408     0.443288583549    12.000000000000
         C            1.852075653418     0.936970962408    -0.255686416451    12.000000000000
         C           -3.058355346582     0.778322962408    -0.205403416451    12.000000000000
         C            1.575311653418     2.425659962408    -0.050202416451    12.000000000000
         H           -0.543344346582     0.347881962408    -1.297934416451     1.007825032230
         H            0.745236653418     0.221474962408     1.455533583549     1.007825032230
         H           -1.386941346582    -1.743957037592     0.760993583549     1.007825032230
         H           -1.296754346582    -1.943493037592    -1.011032416451     1.007825032230
         H           -1.373303346582     1.976513962408     0.422479583549     1.007825032230
         H           -1.738601346582     0.637355962408     1.501452583549     1.007825032230
         H            2.828551653418     0.678943962408     0.173376583549     1.007825032230
         H            1.909426653418     0.706524962408    -1.325769416451     1.007825032230
         H           -3.024772346582     1.073426962408    -1.258821416451     1.007825032230
         H           -3.802165346582     1.404088962408     0.296083583549     1.007825032230
         H           -3.407562346582    -0.257608037592    -0.157639416451     1.007825032230
         H            0.651313653418     2.729264962408    -0.550038416451     1.007825032230
         H            2.388391653418     3.031882962408    -0.460246416451     1.007825032230
         H            1.480214653418     2.666221962408     1.013296583549     1.007825032230

  Basis Set: AUG-CC-PVTZ
    Blend: AUG-CC-PVTZ
  Basis Set: (AUG-CC-PVTZ AUX)
    Blend: AUG-CC-PVTZ-JKFIT
	 Reference Energy          =    -670.8525025472772541 [Eh]
	 Singles Energy            =      -0.0000000000000000 [Eh]
	 Same-Spin Energy          =      -0.3559336767480771 [Eh]
	 Opposite-Spin Energy      =      -1.2393055099372070 [Eh]
	 Correlation Energy        =      -1.5952391866852840 [Eh]
	 Total Energy              =    -672.4477417339625163 [Eh]

	 ================> DF-SCS-MP2 Energies <==================
	-----------------------------------------------------------
	 SCS Same-Spin Scale       =       0.3333333333333333 [-]
	 SCS Opposite-Spin Scale   =       1.2000000000000000 [-]
	 SCS Same-Spin Energy      =      -0.1186445589160257 [Eh]
	 SCS Opposite-Spin Energy  =      -1.4871666119246483 [Eh]
	 SCS Correlation Energy    =      -1.6058111708406739 [Eh]
	 SCS Total Energy          =    -672.4583137181178927 [Eh]
	-----------------------------------------------------------

  Dipole Moment: [D]
     X:    -1.2681      Y:     1.7719      Z:     0.0515     Total:     2.1796

*** Psi4 exiting successfully. Buy a developer a beer!
