                               Psi4 1.3.2 release

  ==> Input File <==

--------------------------------------------------------------------------
#psi4
#
memory 32 gb

molecule  {
0 1
  S        1.0039920    -1.8370330     0.0416350
  C       -0.6216538    -0.0317743    -0.2679557
  C        0.8344880    -0.0270290     0.3757450
  C       -0.7993060    -1.5368490    -0.1403280
  C       -1.6389980     0.8445570     0.4478430
  C        1.8965050     0.8563820    -0.2511320
  C       -3.0139260     0.6977340    -0.2008490
  C        1.6197410     2.3450710    -0.0456480
  H       -0.4989150     0.2672930    -1.2933800
  H        0.7896660     0.1408860     1.4600880
  H       -1.3425120    -1.8245460     0.7655480
  H       -1.2523250    -2.0240820    -1.0064780
  H       -1.3288740     1.8959250     0.4270340
  H       -1.6941720     0.5567670     1.5060070
  H        2.8729810     0.5983550     0.1779310
  H        1.9538560     0.6259360    -1.3212150
  H       -2.9803430     0.9928380    -1.2542670
  H       -3.7577360     1.3235000     0.3006380
  H       -3.3631330    -0.3381970    -0.1530850
  H        0.6957430     2.6486760    -0.5454840
  H        2.4328210     2.9512940    -0.4556920
  H        1.5246440     2.5856330     1.0178510
units angstrom
no_reorient  #important for SAPT in psi4, default
symmetry c1  #important for SAPT in psi4, default
}

set PROPERTIES_ORIGIN ["COM"]
properties('MP2/aug-cc-pvtz', properties = ['dipole'])
--------------------------------------------------------------------------

    Molecular point group: c1
  Charge       = 0
  Multiplicity = 1
  Basis Set: AUG-CC-PVTZ
    Blend: AUG-CC-PVTZ
  Basis Set: (AUG-CC-PVTZ AUX)
    Blend: AUG-CC-PVTZ-JKFIT

    Orbital Energies [Eh]
    ---------------------

    Doubly Occupied:

       1A    -91.934728     2A    -11.258086     3A    -11.252460
       4A    -11.238134     5A    -11.226851     6A    -11.225301
       7A    -11.219380     8A    -11.219125     9A     -8.935131
      10A     -6.615951    11A     -6.615581    12A     -6.614360
      13A     -1.144467    14A     -1.051215    15A     -1.026480
      16A     -0.917374    17A     -0.907885    18A     -0.833645
      19A     -0.803366    20A     -0.748397    21A     -0.650046
      22A     -0.631431    23A     -0.602664    24A     -0.597084
      25A     -0.570588    26A     -0.554159    27A     -0.542022
      28A     -0.529019    29A     -0.517326    30A     -0.502116
      31A     -0.485084    32A     -0.477476    33A     -0.460229
      34A     -0.431349    35A     -0.391304    36A     -0.330875

  @DF-RHF Final Energy:  -670.85124651461024

   => Energetics <=

    Nuclear Repulsion Energy =            467.7547488156998838
    One-Electron Energy =               -1847.0906116539974846
    Two-Electron Energy =                 708.4846163236873053
    Total Energy =                       -670.8512465146102386
  Basis Set: (AUG-CC-PVTZ AUX)
    Blend: AUG-CC-PVTZ-RI
    Molecular point group: c1

    Geometry (in Angstrom), charge = 0, multiplicity = 1:

       Center              X                  Y                   Z               Mass
    ------------   -----------------  -----------------  -----------------  -----------------
         S            0.962271567987    -1.756506721312     0.041897709844    31.972071174400
         C           -0.663374232013     0.048751978688    -0.267692990156    12.000000000000
         C            0.792767567987     0.053497278688     0.376007709844    12.000000000000
         C           -0.841026432013    -1.456322721312    -0.140065290156    12.000000000000
         C           -1.680718432013     0.925083278688     0.448105709844    12.000000000000
         C            1.854784567987     0.936908278688    -0.250869290156    12.000000000000
         C           -3.055646432013     0.778260278688    -0.200586290156    12.000000000000
         C            1.578020567987     2.425597278688    -0.045385290156    12.000000000000
         H           -0.540635432013     0.347819278688    -1.293117290156     1.007825032230
         H            0.747945567987     0.221412278688     1.460350709844     1.007825032230
         H           -1.384232432013    -1.744019721312     0.765810709844     1.007825032230
         H           -1.294045432013    -1.943555721312    -1.006215290156     1.007825032230
         H           -1.370594432013     1.976451278688     0.427296709844     1.007825032230
         H           -1.735892432013     0.637293278688     1.506269709844     1.007825032230
         H            2.831260567987     0.678881278688     0.178193709844     1.007825032230
         H            1.912135567987     0.706462278688    -1.320952290156     1.007825032230
         H           -3.022063432013     1.073364278688    -1.254004290156     1.007825032230
         H           -3.799456432013     1.404026278688     0.300900709844     1.007825032230
         H           -3.404853432013    -0.257670721312    -0.152822290156     1.007825032230
         H            0.654022567987     2.729202278688    -0.545221290156     1.007825032230
         H            2.391100567987     3.031820278688    -0.455429290156     1.007825032230
         H            1.482923567987     2.666159278688     1.018113709844     1.007825032230

  Basis Set: AUG-CC-PVTZ
    Blend: AUG-CC-PVTZ
  Basis Set: (AUG-CC-PVTZ AUX)
    Blend: AUG-CC-PVTZ-JKFIT
	 Reference Energy          =    -670.8512465146102386 [Eh]
	 Singles Energy            =      -0.0000000000000000 [Eh]
	 Same-Spin Energy          =      -0.3557197888672375 [Eh]
	 Opposite-Spin Energy      =      -1.2392479630587465 [Eh]
	 Correlation Energy        =      -1.5949677519259842 [Eh]
	 Total Energy              =    -672.4462142665362308 [Eh]

	 ================> DF-SCS-MP2 Energies <==================
	-----------------------------------------------------------
	 SCS Same-Spin Scale       =       0.3333333333333333 [-]
	 SCS Opposite-Spin Scale   =       1.2000000000000000 [-]
	 SCS Same-Spin Energy      =      -0.1185732629557458 [Eh]
	 SCS Opposite-Spin Energy  =      -1.4870975556704957 [Eh]
	 SCS Correlation Energy    =      -1.6056708186262416 [Eh]
	 SCS Total Energy          =    -672.4569173332364471 [Eh]
	-----------------------------------------------------------

  Dipole Moment: [D]
     X:    -1.2638      Y:     1.7923      Z:     0.0443     Total:     2.1935

*** Psi4 exiting successfully. Buy a developer a beer!
