                               Psi4 1.3.2 release

  ==> Input File <==

--------------------------------------------------------------------------
#psi4
#
memory 32 gb

molecule  {
0 1
  S        1.0039920    -1.8370330     0.0416350
  C       -0.5844320    -0.0144930    -0.2342400
  C        0.7629370     0.0225662     0.3154762
  C       -0.7993060    -1.5368490    -0.1403280
  C       -1.6389980     0.8445570     0.4478430
  C        1.8965050     0.8563820    -0.2511320
  C       -3.0139260     0.6977340    -0.2008490
  C        1.6197410     2.3450710    -0.0456480
  H       -0.4989150     0.2672930    -1.2933800
  H        0.7896660     0.1408860     1.4600880
  H       -1.3425120    -1.8245460     0.7655480
  H       -1.2523250    -2.0240820    -1.0064780
  H       -1.3288740     1.8959250     0.4270340
  H       -1.6941720     0.5567670     1.5060070
  H        2.8729810     0.5983550     0.1779310
  H        1.9538560     0.6259360    -1.3212150
  H       -2.9803430     0.9928380    -1.2542670
  H       -3.7577360     1.3235000     0.3006380
  H       -3.3631330    -0.3381970    -0.1530850
  H        0.6957430     2.6486760    -0.5454840
  H        2.4328210     2.9512940    -0.4556920
  H        1.5246440     2.5856330     1.0178510
units angstrom
no_reorient  #important for SAPT in psi4, default
symmetry c1  #important for SAPT in psi4, default
}

set PROPERTIES_ORIGIN ["COM"]
properties('MP2/aug-cc-pvtz', properties = ['dipole'])
--------------------------------------------------------------------------

    Molecular point group: c1
  Charge       = 0
  Multiplicity = 1
  Basis Set: AUG-CC-PVTZ
    Blend: AUG-CC-PVTZ
  Basis Set: (AUG-CC-PVTZ AUX)
    Blend: AUG-CC-PVTZ-JKFIT

    Orbital Energies [Eh]
    ---------------------

    Doubly Occupied:

       1A    -91.932040     2A    -11.262726     3A    -11.253166
       4A    -11.236242     5A    -11.227890     6A    -11.227767
       7A    -11.220419     8A    -11.219731     9A     -8.932297
      10A     -6.613075    11A     -6.612643    12A     -6.611445
      13A     -1.157237    14A     -1.051544    15A     -1.027115
      16A     -0.922446    17A     -0.907707    18A     -0.830067
      19A     -0.813793    20A     -0.741168    21A     -0.655150
      22A     -0.635273    23A     -0.605531    24A     -0.598410
      25A     -0.568745    26A     -0.556291    27A     -0.540955
      28A     -0.530212    29A     -0.522190    30A     -0.503438
      31A     -0.484382    32A     -0.467400    33A     -0.463577
      34A     -0.437562    35A     -0.386541    36A     -0.328782

  @DF-RHF Final Energy:  -670.84292584059870

   => Energetics <=

    Nuclear Repulsion Energy =            468.8536678303906342
    One-Electron Energy =               -1849.2232758149666552
    Two-Electron Energy =                 709.5266821439773821
    Total Energy =                       -670.8429258405986957
  Basis Set: (AUG-CC-PVTZ AUX)
    Blend: AUG-CC-PVTZ-RI
    Molecular point group: c1

    Geometry (in Angstrom), charge = 0, multiplicity = 1:

       Center              X                  Y                   Z               Mass
    ------------   -----------------  -----------------  -----------------  -----------------
         S            0.965438428877    -1.762676063222     0.044347227278    31.972071174400
         C           -0.622985571123     0.059863936778    -0.231527772722    12.000000000000
         C            0.724383428877     0.096923136778     0.318188427278    12.000000000000
         C           -0.837859571123    -1.462492063222    -0.137615772722    12.000000000000
         C           -1.677551571123     0.918913936778     0.450555227278    12.000000000000
         C            1.857951428877     0.930738936778    -0.248419772722    12.000000000000
         C           -3.052479571123     0.772090936778    -0.198136772722    12.000000000000
         C            1.581187428877     2.419427936778    -0.042935772722    12.000000000000
         H           -0.537468571123     0.341649936778    -1.290667772722     1.007825032230
         H            0.751112428877     0.215242936778     1.462800227278     1.007825032230
         H           -1.381065571123    -1.750189063222     0.768260227278     1.007825032230
         H           -1.290878571123    -1.949725063222    -1.003765772722     1.007825032230
         H           -1.367427571123     1.970281936778     0.429746227278     1.007825032230
         H           -1.732725571123     0.631123936778     1.508719227278     1.007825032230
         H            2.834427428877     0.672711936778     0.180643227278     1.007825032230
         H            1.915302428877     0.700292936778    -1.318502772722     1.007825032230
         H           -3.018896571123     1.067194936778    -1.251554772722     1.007825032230
         H           -3.796289571123     1.397856936778     0.303350227278     1.007825032230
         H           -3.401686571123    -0.263840063222    -0.150372772722     1.007825032230
         H            0.657189428877     2.723032936778    -0.542771772722     1.007825032230
         H            2.394267428877     3.025650936778    -0.452979772722     1.007825032230
         H            1.486090428877     2.659989936778     1.020563227278     1.007825032230

  Basis Set: AUG-CC-PVTZ
    Blend: AUG-CC-PVTZ
  Basis Set: (AUG-CC-PVTZ AUX)
    Blend: AUG-CC-PVTZ-JKFIT
	 Reference Energy          =    -670.8429258405986957 [Eh]
	 Singles Energy            =      -0.0000000000000000 [Eh]
	 Same-Spin Energy          =      -0.3567509219904437 [Eh]
	 Opposite-Spin Energy      =      -1.2405601335870389 [Eh]
	 Correlation Energy        =      -1.5973110555774825 [Eh]
	 Total Energy              =    -672.4402368961762022 [Eh]

	 ================> DF-SCS-MP2 Energies <==================
	-----------------------------------------------------------
	 SCS Same-Spin Scale       =       0.3333333333333333 [-]
	 SCS Opposite-Spin Scale   =       1.2000000000000000 [-]
	 SCS Same-Spin Energy      =      -0.1189169739968146 [Eh]
	 SCS Opposite-Spin Energy  =      -1.4886721603044466 [Eh]
	 SCS Correlation Energy    =      -1.6075891343012612 [Eh]
	 SCS Total Energy          =    -672.4505149748999884 [Eh]
	-----------------------------------------------------------

  Dipole Moment: [D]
     X:    -1.2699      Y:     1.8314      Z:     0.0214     Total:     2.2287

*** Psi4 exiting successfully. Buy a developer a beer!
