                               Psi4 1.3.2 release

  ==> Input File <==

--------------------------------------------------------------------------
#psi4
#
memory 32 gb

molecule  {
0 1
  S        1.0039920    -1.8370330     0.0416350
  C       -0.5761430     0.0034640    -0.2525568
  C        0.8344880    -0.0270290     0.3757450
  C       -0.7993060    -1.5368490    -0.1403280
  C       -1.6389980     0.8445570     0.4478430
  C        1.8965050     0.8563820    -0.2511320
  C       -3.0139260     0.6977340    -0.2008490
  C        1.6197410     2.3450710    -0.0456480
  H       -0.4989150     0.2672930    -1.2933800
  H        0.7896660     0.1408860     1.4600880
  H       -1.3425120    -1.8245460     0.7655480
  H       -1.2523250    -2.0240820    -1.0064780
  H       -1.3288740     1.8959250     0.4270340
  H       -1.6941720     0.5567670     1.5060070
  H        2.8729810     0.5983550     0.1779310
  H        1.9538560     0.6259360    -1.3212150
  H       -2.9803430     0.9928380    -1.2542670
  H       -3.7577360     1.3235000     0.3006380
  H       -3.3631330    -0.3381970    -0.1530850
  H        0.6957430     2.6486760    -0.5454840
  H        2.4328210     2.9512940    -0.4556920
  H        1.5246440     2.5856330     1.0178510
units angstrom
no_reorient  #important for SAPT in psi4, default
symmetry c1  #important for SAPT in psi4, default
}

set PROPERTIES_ORIGIN ["COM"]
properties('MP2/aug-cc-pvtz', properties = ['dipole'])
--------------------------------------------------------------------------

    Molecular point group: c1
  Charge       = 0
  Multiplicity = 1
  Basis Set: AUG-CC-PVTZ
    Blend: AUG-CC-PVTZ
  Basis Set: (AUG-CC-PVTZ AUX)
    Blend: AUG-CC-PVTZ-JKFIT

    Orbital Energies [Eh]
    ---------------------

    Doubly Occupied:

       1A    -91.934713     2A    -11.257182     3A    -11.253085
       4A    -11.238194     5A    -11.226902     6A    -11.225079
       7A    -11.220004     8A    -11.219514     9A     -8.935122
      10A     -6.615935    11A     -6.615578    12A     -6.614350
      13A     -1.145714    14A     -1.050108    15A     -1.025536
      16A     -0.916896    17A     -0.909611    18A     -0.831695
      19A     -0.806193    20A     -0.749088    21A     -0.648313
      22A     -0.632643    23A     -0.600092    24A     -0.597023
      25A     -0.570754    26A     -0.554991    27A     -0.540597
      28A     -0.530785    29A     -0.518353    30A     -0.501089
      31A     -0.485509    32A     -0.476790    33A     -0.457775
      34A     -0.433393    35A     -0.393289    36A     -0.331040

  @DF-RHF Final Energy:  -670.85294622337233

   => Energetics <=

    Nuclear Repulsion Energy =            467.9864354891521430
    One-Electron Energy =               -1847.5528948843941635
    Two-Electron Energy =                 708.7135131718696357
    Total Energy =                       -670.8529462233723279
  Basis Set: (AUG-CC-PVTZ AUX)
    Blend: AUG-CC-PVTZ-RI
    Molecular point group: c1

    Geometry (in Angstrom), charge = 0, multiplicity = 1:

       Center              X                  Y                   Z               Mass
    ------------   -----------------  -----------------  -----------------  -----------------
         S            0.958073207041    -1.759757446470     0.040477164822    31.972071174400
         C           -0.622061792959     0.080739553530    -0.253714635178    12.000000000000
         C            0.788569207041     0.050246553530     0.374587164822    12.000000000000
         C           -0.845224792959    -1.459573446470    -0.141485835178    12.000000000000
         C           -1.684916792959     0.921832553530     0.446685164822    12.000000000000
         C            1.850586207041     0.933657553530    -0.252289835178    12.000000000000
         C           -3.059844792959     0.775009553530    -0.202006835178    12.000000000000
         C            1.573822207041     2.422346553530    -0.046805835178    12.000000000000
         H           -0.544833792959     0.344568553530    -1.294537835178     1.007825032230
         H            0.743747207041     0.218161553530     1.458930164822     1.007825032230
         H           -1.388430792959    -1.747270446470     0.764390164822     1.007825032230
         H           -1.298243792959    -1.946806446470    -1.007635835178     1.007825032230
         H           -1.374792792959     1.973200553530     0.425876164822     1.007825032230
         H           -1.740090792959     0.634042553530     1.504849164822     1.007825032230
         H            2.827062207041     0.675630553530     0.176773164822     1.007825032230
         H            1.907937207041     0.703211553530    -1.322372835178     1.007825032230
         H           -3.026261792959     1.070113553530    -1.255424835178     1.007825032230
         H           -3.803654792959     1.400775553530     0.299480164822     1.007825032230
         H           -3.409051792959    -0.260921446470    -0.154242835178     1.007825032230
         H            0.649824207041     2.725951553530    -0.546641835178     1.007825032230
         H            2.386902207041     3.028569553530    -0.456849835178     1.007825032230
         H            1.478725207041     2.662908553530     1.016693164822     1.007825032230

  Basis Set: AUG-CC-PVTZ
    Blend: AUG-CC-PVTZ
  Basis Set: (AUG-CC-PVTZ AUX)
    Blend: AUG-CC-PVTZ-JKFIT
	 Reference Energy          =    -670.8529462233723279 [Eh]
	 Singles Energy            =      -0.0000000000000000 [Eh]
	 Same-Spin Energy          =      -0.3556518287681199 [Eh]
	 Opposite-Spin Energy      =      -1.2390825119825757 [Eh]
	 Correlation Energy        =      -1.5947343407506955 [Eh]
	 Total Energy              =    -672.4476805641230612 [Eh]

	 ================> DF-SCS-MP2 Energies <==================
	-----------------------------------------------------------
	 SCS Same-Spin Scale       =       0.3333333333333333 [-]
	 SCS Opposite-Spin Scale   =       1.2000000000000000 [-]
	 SCS Same-Spin Energy      =      -0.1185506095893733 [Eh]
	 SCS Opposite-Spin Energy  =      -1.4868990143790908 [Eh]
	 SCS Correlation Energy    =      -1.6054496239684641 [Eh]
	 SCS Total Energy          =    -672.4583958473407392 [Eh]
	-----------------------------------------------------------

  Dipole Moment: [D]
     X:    -1.2796      Y:     1.7802      Z:     0.0361     Total:     2.1926

*** Psi4 exiting successfully. Buy a developer a beer!
