                               Psi4 1.3.2 release

  ==> Input File <==

--------------------------------------------------------------------------
#psi4
#
memory 32 gb

molecule  {
0 1
  S        1.0039920    -1.8370330     0.0416350
  C       -0.5484951     0.0038349    -0.1996932
  C        0.8344880    -0.0270290     0.3757450
  C       -0.7993060    -1.5368490    -0.1403280
  C       -1.6389980     0.8445570     0.4478430
  C        1.8965050     0.8563820    -0.2511320
  C       -3.0139260     0.6977340    -0.2008490
  C        1.6197410     2.3450710    -0.0456480
  H       -0.4989150     0.2672930    -1.2933800
  H        0.7896660     0.1408860     1.4600880
  H       -1.3425120    -1.8245460     0.7655480
  H       -1.2523250    -2.0240820    -1.0064780
  H       -1.3288740     1.8959250     0.4270340
  H       -1.6941720     0.5567670     1.5060070
  H        2.8729810     0.5983550     0.1779310
  H        1.9538560     0.6259360    -1.3212150
  H       -2.9803430     0.9928380    -1.2542670
  H       -3.7577360     1.3235000     0.3006380
  H       -3.3631330    -0.3381970    -0.1530850
  H        0.6957430     2.6486760    -0.5454840
  H        2.4328210     2.9512940    -0.4556920
  H        1.5246440     2.5856330     1.0178510
units angstrom
no_reorient  #important for SAPT in psi4, default
symmetry c1  #important for SAPT in psi4, default
}

set PROPERTIES_ORIGIN ["COM"]
properties('MP2/aug-cc-pvtz', properties = ['dipole'])
--------------------------------------------------------------------------

    Molecular point group: c1
  Charge       = 0
  Multiplicity = 1
  Basis Set: AUG-CC-PVTZ
    Blend: AUG-CC-PVTZ
  Basis Set: (AUG-CC-PVTZ AUX)
    Blend: AUG-CC-PVTZ-JKFIT

    Orbital Energies [Eh]
    ---------------------

    Doubly Occupied:

       1A    -91.935252     2A    -11.255879     3A    -11.253095
       4A    -11.240371     5A    -11.227144     6A    -11.225658
       7A    -11.221202     8A    -11.219666     9A     -8.935692
      10A     -6.616485    11A     -6.616152    12A     -6.614900
      13A     -1.151330    14A     -1.050220    15A     -1.026549
      16A     -0.920032    17A     -0.909473    18A     -0.831391
      19A     -0.808742    20A     -0.744862    21A     -0.649816
      22A     -0.633352    23A     -0.600712    24A     -0.596840
      25A     -0.571224    26A     -0.558199    27A     -0.538540
      28A     -0.530875    29A     -0.519896    30A     -0.502207
      31A     -0.485390    32A     -0.465756    33A     -0.458909
      34A     -0.439590    35A     -0.393684    36A     -0.331292

  @DF-RHF Final Energy:  -670.85048052789000

   => Energetics <=

    Nuclear Repulsion Energy =            468.5439771249906471
    One-Electron Energy =               -1848.6281637681670418
    Two-Electron Energy =                 709.2337061152865090
    Total Energy =                       -670.8504805278899994
  Basis Set: (AUG-CC-PVTZ AUX)
    Blend: AUG-CC-PVTZ-RI
    Molecular point group: c1

    Geometry (in Angstrom), charge = 0, multiplicity = 1:

       Center              X                  Y                   Z               Mass
    ------------   -----------------  -----------------  -----------------  -----------------
         S            0.955522694557    -1.759791661911     0.035600509749    31.972071174400
         C           -0.596964405443     0.081076238089    -0.205727690251    12.000000000000
         C            0.786018694557     0.050212338089     0.369710509749    12.000000000000
         C           -0.847775305443    -1.459607661911    -0.146362490251    12.000000000000
         C           -1.687467305443     0.921798338089     0.441808509749    12.000000000000
         C            1.848035694557     0.933623338089    -0.257166490251    12.000000000000
         C           -3.062395305443     0.774975338089    -0.206883490251    12.000000000000
         C            1.571271694557     2.422312338089    -0.051682490251    12.000000000000
         H           -0.547384305443     0.344534338089    -1.299414490251     1.007825032230
         H            0.741196694557     0.218127338089     1.454053509749     1.007825032230
         H           -1.390981305443    -1.747304661911     0.759513509749     1.007825032230
         H           -1.300794305443    -1.946840661911    -1.012512490251     1.007825032230
         H           -1.377343305443     1.973166338089     0.420999509749     1.007825032230
         H           -1.742641305443     0.634008338089     1.499972509749     1.007825032230
         H            2.824511694557     0.675596338089     0.171896509749     1.007825032230
         H            1.905386694557     0.703177338089    -1.327249490251     1.007825032230
         H           -3.028812305443     1.070079338089    -1.260301490251     1.007825032230
         H           -3.806205305443     1.400741338089     0.294603509749     1.007825032230
         H           -3.411602305443    -0.260955661911    -0.159119490251     1.007825032230
         H            0.647273694557     2.725917338089    -0.551518490251     1.007825032230
         H            2.384351694557     3.028535338089    -0.461726490251     1.007825032230
         H            1.476174694557     2.662874338089     1.011816509749     1.007825032230

  Basis Set: AUG-CC-PVTZ
    Blend: AUG-CC-PVTZ
  Basis Set: (AUG-CC-PVTZ AUX)
    Blend: AUG-CC-PVTZ-JKFIT
	 Reference Energy          =    -670.8504805278899994 [Eh]
	 Singles Energy            =      -0.0000000000000000 [Eh]
	 Same-Spin Energy          =      -0.3560638858532924 [Eh]
	 Opposite-Spin Energy      =      -1.2395165250201252 [Eh]
	 Correlation Energy        =      -1.5955804108734175 [Eh]
	 Total Energy              =    -672.4460609387633667 [Eh]

	 ================> DF-SCS-MP2 Energies <==================
	-----------------------------------------------------------
	 SCS Same-Spin Scale       =       0.3333333333333333 [-]
	 SCS Opposite-Spin Scale   =       1.2000000000000000 [-]
	 SCS Same-Spin Energy      =      -0.1186879619510974 [Eh]
	 SCS Opposite-Spin Energy  =      -1.4874198300241501 [Eh]
	 SCS Correlation Energy    =      -1.6061077919752476 [Eh]
	 SCS Total Energy          =    -672.4565883198652045 [Eh]
	-----------------------------------------------------------

  Dipole Moment: [D]
     X:    -1.2865      Y:     1.7598      Z:     0.0455     Total:     2.1804

*** Psi4 exiting successfully. Buy a developer a beer!
