                               Psi4 1.3.2 release

  ==> Input File <==

--------------------------------------------------------------------------
#psi4
#
memory 32 gb

molecule  {
0 1
  S        1.0039920    -1.8370330     0.0416350
  C       -0.5029894     0.1200816    -0.2592166
  C        0.8344880    -0.0270290     0.3757450
  C       -0.7993060    -1.5368490    -0.1403280
  C       -1.6389980     0.8445570     0.4478430
  C        1.8965050     0.8563820    -0.2511320
  C       -3.0139260     0.6977340    -0.2008490
  C        1.6197410     2.3450710    -0.0456480
  H       -0.4989150     0.2672930    -1.2933800
  H        0.7896660     0.1408860     1.4600880
  H       -1.3425120    -1.8245460     0.7655480
  H       -1.2523250    -2.0240820    -1.0064780
  H       -1.3288740     1.8959250     0.4270340
  H       -1.6941720     0.5567670     1.5060070
  H        2.8729810     0.5983550     0.1779310
  H        1.9538560     0.6259360    -1.3212150
  H       -2.9803430     0.9928380    -1.2542670
  H       -3.7577360     1.3235000     0.3006380
  H       -3.3631330    -0.3381970    -0.1530850
  H        0.6957430     2.6486760    -0.5454840
  H        2.4328210     2.9512940    -0.4556920
  H        1.5246440     2.5856330     1.0178510
units angstrom
no_reorient  #important for SAPT in psi4, default
symmetry c1  #important for SAPT in psi4, default
}

set PROPERTIES_ORIGIN ["COM"]
properties('MP2/aug-cc-pvtz', properties = ['dipole'])
--------------------------------------------------------------------------

    Molecular point group: c1
  Charge       = 0
  Multiplicity = 1
  Basis Set: AUG-CC-PVTZ
    Blend: AUG-CC-PVTZ
  Basis Set: (AUG-CC-PVTZ AUX)
    Blend: AUG-CC-PVTZ-JKFIT

    Orbital Energies [Eh]
    ---------------------

    Doubly Occupied:

       1A    -91.934690     2A    -11.256827     3A    -11.254110
       4A    -11.240890     5A    -11.228433     6A    -11.223757
       7A    -11.221828     8A    -11.219865     9A     -8.934938
      10A     -6.615780    11A     -6.615381    12A     -6.614188
      13A     -1.144193    14A     -1.049052    15A     -1.022486
      16A     -0.922194    17A     -0.907279    18A     -0.827510
      19A     -0.811128    20A     -0.754707    21A     -0.642462
      22A     -0.636713    23A     -0.598154    24A     -0.594360
      25A     -0.571572    26A     -0.556129    27A     -0.543300
      28A     -0.532608    29A     -0.518011    30A     -0.497974
      31A     -0.489214    32A     -0.482056    33A     -0.453368
      34A     -0.434740    35A     -0.379167    36A     -0.329876

  @DF-RHF Final Energy:  -670.83330162770017

   => Energetics <=

    Nuclear Repulsion Energy =            467.7691198742743950
    One-Electron Energy =               -1847.0869611460886972
    Two-Electron Energy =                 708.4845396441141929
    Total Energy =                       -670.8333016277001661
  Basis Set: (AUG-CC-PVTZ AUX)
    Blend: AUG-CC-PVTZ-RI
    Molecular point group: c1

    Geometry (in Angstrom), charge = 0, multiplicity = 1:

       Center              X                  Y                   Z               Mass
    ------------   -----------------  -----------------  -----------------  -----------------
         S            0.951324804085    -1.770515393538     0.041091529857    31.972071174400
         C           -0.555656595915     0.186599206462    -0.259760070143    12.000000000000
         C            0.781820804085     0.039488606462     0.375201529857    12.000000000000
         C           -0.851973195915    -1.470331393538    -0.140871470143    12.000000000000
         C           -1.691665195915     0.911074606462     0.447299529857    12.000000000000
         C            1.843837804085     0.922899606462    -0.251675470143    12.000000000000
         C           -3.066593195915     0.764251606462    -0.201392470143    12.000000000000
         C            1.567073804085     2.411588606462    -0.046191470143    12.000000000000
         H           -0.551582195915     0.333810606462    -1.293923470143     1.007825032230
         H            0.736998804085     0.207403606462     1.459544529857     1.007825032230
         H           -1.395179195915    -1.758028393538     0.765004529857     1.007825032230
         H           -1.304992195915    -1.957564393538    -1.007021470143     1.007825032230
         H           -1.381541195915     1.962442606462     0.426490529857     1.007825032230
         H           -1.746839195915     0.623284606462     1.505463529857     1.007825032230
         H            2.820313804085     0.664872606462     0.177387529857     1.007825032230
         H            1.901188804085     0.692453606462    -1.321758470143     1.007825032230
         H           -3.033010195915     1.059355606462    -1.254810470143     1.007825032230
         H           -3.810403195915     1.390017606462     0.300094529857     1.007825032230
         H           -3.415800195915    -0.271679393538    -0.153628470143     1.007825032230
         H            0.643075804085     2.715193606462    -0.546027470143     1.007825032230
         H            2.380153804085     3.017811606462    -0.456235470143     1.007825032230
         H            1.471976804085     2.652150606462     1.017307529857     1.007825032230

  Basis Set: AUG-CC-PVTZ
    Blend: AUG-CC-PVTZ
  Basis Set: (AUG-CC-PVTZ AUX)
    Blend: AUG-CC-PVTZ-JKFIT
	 Reference Energy          =    -670.8333016277001661 [Eh]
	 Singles Energy            =      -0.0000000000000000 [Eh]
	 Same-Spin Energy          =      -0.3564493742043624 [Eh]
	 Opposite-Spin Energy      =      -1.2409343945867455 [Eh]
	 Correlation Energy        =      -1.5973837687911079 [Eh]
	 Total Energy              =    -672.4306853964912989 [Eh]

	 ================> DF-SCS-MP2 Energies <==================
	-----------------------------------------------------------
	 SCS Same-Spin Scale       =       0.3333333333333333 [-]
	 SCS Opposite-Spin Scale   =       1.2000000000000000 [-]
	 SCS Same-Spin Energy      =      -0.1188164580681208 [Eh]
	 SCS Opposite-Spin Energy  =      -1.4891212735040946 [Eh]
	 SCS Correlation Energy    =      -1.6079377315722154 [Eh]
	 SCS Total Energy          =    -672.4412393592723447 [Eh]
	-----------------------------------------------------------

  Dipole Moment: [D]
     X:    -1.3204      Y:     1.7867      Z:     0.0288     Total:     2.2218

*** Psi4 exiting successfully. Buy a developer a beer!
