                               Psi4 1.3.2 release

  ==> Input File <==

--------------------------------------------------------------------------
#psi4
#
memory 32 gb

molecule  {
0 1
  S        1.0039920    -1.8370330     0.0416350
  C       -0.5844320    -0.0144930    -0.2342400
  C        0.8663612    -0.0251854     0.3803704
  C       -0.7993060    -1.5368490    -0.1403280
  C       -1.6389980     0.8445570     0.4478430
  C        1.8965050     0.8563820    -0.2511320
  C       -3.0139260     0.6977340    -0.2008490
  C        1.6197410     2.3450710    -0.0456480
  H       -0.4989150     0.2672930    -1.2933800
  H        0.7896660     0.1408860     1.4600880
  H       -1.3425120    -1.8245460     0.7655480
  H       -1.2523250    -2.0240820    -1.0064780
  H       -1.3288740     1.8959250     0.4270340
  H       -1.6941720     0.5567670     1.5060070
  H        2.8729810     0.5983550     0.1779310
  H        1.9538560     0.6259360    -1.3212150
  H       -2.9803430     0.9928380    -1.2542670
  H       -3.7577360     1.3235000     0.3006380
  H       -3.3631330    -0.3381970    -0.1530850
  H        0.6957430     2.6486760    -0.5454840
  H        2.4328210     2.9512940    -0.4556920
  H        1.5246440     2.5856330     1.0178510
units angstrom
no_reorient  #important for SAPT in psi4, default
symmetry c1  #important for SAPT in psi4, default
}

set PROPERTIES_ORIGIN ["COM"]
properties('MP2/aug-cc-pvtz', properties = ['dipole'])
--------------------------------------------------------------------------

    Molecular point group: c1
  Charge       = 0
  Multiplicity = 1
  Basis Set: AUG-CC-PVTZ
    Blend: AUG-CC-PVTZ
  Basis Set: (AUG-CC-PVTZ AUX)
    Blend: AUG-CC-PVTZ-JKFIT

    Orbital Energies [Eh]
    ---------------------

    Doubly Occupied:

       1A    -91.935494     2A    -11.257042     3A    -11.252498
       4A    -11.240141     5A    -11.226678     6A    -11.224556
       7A    -11.220072     8A    -11.219982     9A     -8.935813
      10A     -6.616622    11A     -6.616282    12A     -6.615053
      13A     -1.144595    14A     -1.052771    15A     -1.026435
      16A     -0.919030    17A     -0.907989    18A     -0.833608
      19A     -0.803787    20A     -0.746990    21A     -0.649345
      22A     -0.631861    23A     -0.600785    24A     -0.597207
      25A     -0.571715    26A     -0.557376    27A     -0.539643
      28A     -0.529450    29A     -0.518622    30A     -0.502091
      31A     -0.487077    32A     -0.472451    33A     -0.458731
      34A     -0.434840    35A     -0.391566    36A     -0.331422

  @DF-RHF Final Energy:  -670.85265474219182

   => Energetics <=

    Nuclear Repulsion Energy =            467.8966397683337277
    One-Electron Energy =               -1847.3593564152956787
    Two-Electron Energy =                 708.6100619047701912
    Total Energy =                       -670.8526547421918167
  Basis Set: (AUG-CC-PVTZ AUX)
    Blend: AUG-CC-PVTZ-RI
    Molecular point group: c1

    Geometry (in Angstrom), charge = 0, multiplicity = 1:

       Center              X                  Y                   Z               Mass
    ------------   -----------------  -----------------  -----------------  -----------------
         S            0.955897569957    -1.758270988986     0.038360752092    31.972071174400
         C           -0.632526430043     0.064269011014    -0.237514247908    12.000000000000
         C            0.818266769957     0.053576611014     0.377096152092    12.000000000000
         C           -0.847400430043    -1.458086988986    -0.143602247908    12.000000000000
         C           -1.687092430043     0.923319011014     0.444568752092    12.000000000000
         C            1.848410569957     0.935144011014    -0.254406247908    12.000000000000
         C           -3.062020430043     0.776496011014    -0.204123247908    12.000000000000
         C            1.571646569957     2.423833011014    -0.048922247908    12.000000000000
         H           -0.547009430043     0.346055011014    -1.296654247908     1.007825032230
         H            0.741571569957     0.219648011014     1.456813752092     1.007825032230
         H           -1.390606430043    -1.745783988986     0.762273752092     1.007825032230
         H           -1.300419430043    -1.945319988986    -1.009752247908     1.007825032230
         H           -1.376968430043     1.974687011014     0.423759752092     1.007825032230
         H           -1.742266430043     0.635529011014     1.502732752092     1.007825032230
         H            2.824886569957     0.677117011014     0.174656752092     1.007825032230
         H            1.905761569957     0.704698011014    -1.324489247908     1.007825032230
         H           -3.028437430043     1.071600011014    -1.257541247908     1.007825032230
         H           -3.805830430043     1.402262011014     0.297363752092     1.007825032230
         H           -3.411227430043    -0.259434988986    -0.156359247908     1.007825032230
         H            0.647648569957     2.727438011014    -0.548758247908     1.007825032230
         H            2.384726569957     3.030056011014    -0.458966247908     1.007825032230
         H            1.476549569957     2.664395011014     1.014576752092     1.007825032230

  Basis Set: AUG-CC-PVTZ
    Blend: AUG-CC-PVTZ
  Basis Set: (AUG-CC-PVTZ AUX)
    Blend: AUG-CC-PVTZ-JKFIT
	 Reference Energy          =    -670.8526547421918167 [Eh]
	 Singles Energy            =      -0.0000000000000000 [Eh]
	 Same-Spin Energy          =      -0.3557596814862202 [Eh]
	 Opposite-Spin Energy      =      -1.2391846777221134 [Eh]
	 Correlation Energy        =      -1.5949443592083337 [Eh]
	 Total Energy              =    -672.4475991014001011 [Eh]

	 ================> DF-SCS-MP2 Energies <==================
	-----------------------------------------------------------
	 SCS Same-Spin Scale       =       0.3333333333333333 [-]
	 SCS Opposite-Spin Scale   =       1.2000000000000000 [-]
	 SCS Same-Spin Energy      =      -0.1185865604954067 [Eh]
	 SCS Opposite-Spin Energy  =      -1.4870216132665359 [Eh]
	 SCS Correlation Energy    =      -1.6056081737619428 [Eh]
	 SCS Total Energy          =    -672.4582629159538101 [Eh]
	-----------------------------------------------------------

  Dipole Moment: [D]
     X:    -1.2698      Y:     1.7962      Z:     0.0398     Total:     2.2001

*** Psi4 exiting successfully. Buy a developer a beer!
