                               Psi4 1.3.2 release

  ==> Input File <==

--------------------------------------------------------------------------
#psi4
#
memory 32 gb

molecule  {
0 1
  S        1.0039920    -1.8370330     0.0416350
  C       -0.5844320    -0.0144930    -0.2342400
  C        0.8982762    -0.0238937     0.3848926
  C       -0.7993060    -1.5368490    -0.1403280
  C       -1.6389980     0.8445570     0.4478430
  C        1.8965050     0.8563820    -0.2511320
  C       -3.0139260     0.6977340    -0.2008490
  C        1.6197410     2.3450710    -0.0456480
  H       -0.4989150     0.2672930    -1.2933800
  H        0.7896660     0.1408860     1.4600880
  H       -1.3425120    -1.8245460     0.7655480
  H       -1.2523250    -2.0240820    -1.0064780
  H       -1.3288740     1.8959250     0.4270340
  H       -1.6941720     0.5567670     1.5060070
  H        2.8729810     0.5983550     0.1779310
  H        1.9538560     0.6259360    -1.3212150
  H       -2.9803430     0.9928380    -1.2542670
  H       -3.7577360     1.3235000     0.3006380
  H       -3.3631330    -0.3381970    -0.1530850
  H        0.6957430     2.6486760    -0.5454840
  H        2.4328210     2.9512940    -0.4556920
  H        1.5246440     2.5856330     1.0178510
units angstrom
no_reorient  #important for SAPT in psi4, default
symmetry c1  #important for SAPT in psi4, default
}

set PROPERTIES_ORIGIN ["COM"]
properties('MP2/aug-cc-pvtz', properties = ['dipole'])
--------------------------------------------------------------------------

    Molecular point group: c1
  Charge       = 0
  Multiplicity = 1
  Basis Set: AUG-CC-PVTZ
    Blend: AUG-CC-PVTZ
  Basis Set: (AUG-CC-PVTZ AUX)
    Blend: AUG-CC-PVTZ-JKFIT

    Orbital Energies [Eh]
    ---------------------

    Doubly Occupied:

       1A    -91.936103     2A    -11.257143     3A    -11.252390
       4A    -11.241249     5A    -11.226570     6A    -11.223647
       7A    -11.220443     8A    -11.220058     9A     -8.936304
      10A     -6.617115    11A     -6.616786    12A     -6.615563
      13A     -1.142005    14A     -1.054958    15A     -1.026358
      16A     -0.920657    17A     -0.906472    18A     -0.834764
      19A     -0.801867    20A     -0.747140    21A     -0.648912
      22A     -0.631491    23A     -0.600224    24A     -0.597352
      25A     -0.572617    26A     -0.559156    27A     -0.539354
      28A     -0.528820    29A     -0.518577    30A     -0.502084
      31A     -0.489363    32A     -0.472798    33A     -0.458674
      34A     -0.433477    35A     -0.388276    36A     -0.331530

  @DF-RHF Final Energy:  -670.84998209410469

   => Energetics <=

    Nuclear Repulsion Energy =            467.6420012766892569
    One-Electron Energy =               -1846.8433744255735292
    Two-Electron Energy =                 708.3513910547794694
    Total Energy =                       -670.8499820941046892
  Basis Set: (AUG-CC-PVTZ AUX)
    Blend: AUG-CC-PVTZ-RI
    Molecular point group: c1

    Geometry (in Angstrom), charge = 0, multiplicity = 1:

       Center              X                  Y                   Z               Mass
    ------------   -----------------  -----------------  -----------------  -----------------
         S            0.952953418468    -1.758390148017     0.037943580171    31.972071174400
         C           -0.635470581532     0.064149851983    -0.237931419829    12.000000000000
         C            0.847237618468     0.054749151983     0.381201180171    12.000000000000
         C           -0.850344581532    -1.458206148017    -0.144019419829    12.000000000000
         C           -1.690036581532     0.923199851983     0.444151580171    12.000000000000
         C            1.845466418468     0.935024851983    -0.254823419829    12.000000000000
         C           -3.064964581532     0.776376851983    -0.204540419829    12.000000000000
         C            1.568702418468     2.423713851983    -0.049339419829    12.000000000000
         H           -0.549953581532     0.345935851983    -1.297071419829     1.007825032230
         H            0.738627418468     0.219528851983     1.456396580171     1.007825032230
         H           -1.393550581532    -1.745903148017     0.761856580171     1.007825032230
         H           -1.303363581532    -1.945439148017    -1.010169419829     1.007825032230
         H           -1.379912581532     1.974567851983     0.423342580171     1.007825032230
         H           -1.745210581532     0.635409851983     1.502315580171     1.007825032230
         H            2.821942418468     0.676997851983     0.174239580171     1.007825032230
         H            1.902817418468     0.704578851983    -1.324906419829     1.007825032230
         H           -3.031381581532     1.071480851983    -1.257958419829     1.007825032230
         H           -3.808774581532     1.402142851983     0.296946580171     1.007825032230
         H           -3.414171581532    -0.259554148017    -0.156776419829     1.007825032230
         H            0.644704418468     2.727318851983    -0.549175419829     1.007825032230
         H            2.381782418468     3.029936851983    -0.459383419829     1.007825032230
         H            1.473605418468     2.664275851983     1.014159580171     1.007825032230

  Basis Set: AUG-CC-PVTZ
    Blend: AUG-CC-PVTZ
  Basis Set: (AUG-CC-PVTZ AUX)
    Blend: AUG-CC-PVTZ-JKFIT
	 Reference Energy          =    -670.8499820941046892 [Eh]
	 Singles Energy            =      -0.0000000000000000 [Eh]
	 Same-Spin Energy          =      -0.3558538197126049 [Eh]
	 Opposite-Spin Energy      =      -1.2393958689933604 [Eh]
	 Correlation Energy        =      -1.5952496887059653 [Eh]
	 Total Energy              =    -672.4452317828106516 [Eh]

	 ================> DF-SCS-MP2 Energies <==================
	-----------------------------------------------------------
	 SCS Same-Spin Scale       =       0.3333333333333333 [-]
	 SCS Opposite-Spin Scale   =       1.2000000000000000 [-]
	 SCS Same-Spin Energy      =      -0.1186179399042016 [Eh]
	 SCS Opposite-Spin Energy  =      -1.4872750427920325 [Eh]
	 SCS Correlation Energy    =      -1.6058929826962340 [Eh]
	 SCS Total Energy          =    -672.4558750768009077 [Eh]
	-----------------------------------------------------------

  Dipole Moment: [D]
     X:    -1.2666      Y:     1.8158      Z:     0.0362     Total:     2.2142

*** Psi4 exiting successfully. Buy a developer a beer!
