                               Psi4 1.3.2 release

  ==> Input File <==

--------------------------------------------------------------------------
#psi4
#
memory 32 gb

molecule  {
0 1
  S        1.0039920    -1.8370330     0.0416350
  C       -0.5844320    -0.0144930    -0.2342400
  C        0.7628836     0.1066754     0.4227466
  C       -0.7993060    -1.5368490    -0.1403280
  C       -1.6389980     0.8445570     0.4478430
  C        1.8965050     0.8563820    -0.2511320
  C       -3.0139260     0.6977340    -0.2008490
  C        1.6197410     2.3450710    -0.0456480
  H       -0.4989150     0.2672930    -1.2933800
  H        0.7896660     0.1408860     1.4600880
  H       -1.3425120    -1.8245460     0.7655480
  H       -1.2523250    -2.0240820    -1.0064780
  H       -1.3288740     1.8959250     0.4270340
  H       -1.6941720     0.5567670     1.5060070
  H        2.8729810     0.5983550     0.1779310
  H        1.9538560     0.6259360    -1.3212150
  H       -2.9803430     0.9928380    -1.2542670
  H       -3.7577360     1.3235000     0.3006380
  H       -3.3631330    -0.3381970    -0.1530850
  H        0.6957430     2.6486760    -0.5454840
  H        2.4328210     2.9512940    -0.4556920
  H        1.5246440     2.5856330     1.0178510
units angstrom
no_reorient  #important for SAPT in psi4, default
symmetry c1  #important for SAPT in psi4, default
}

set PROPERTIES_ORIGIN ["COM"]
properties('MP2/aug-cc-pvtz', properties = ['dipole'])
--------------------------------------------------------------------------

    Molecular point group: c1
  Charge       = 0
  Multiplicity = 1
  Basis Set: AUG-CC-PVTZ
    Blend: AUG-CC-PVTZ
  Basis Set: (AUG-CC-PVTZ AUX)
    Blend: AUG-CC-PVTZ-JKFIT

    Orbital Energies [Eh]
    ---------------------

    Doubly Occupied:

       1A    -91.926692     2A    -11.264846     3A    -11.250931
       4A    -11.241386     5A    -11.230606     6A    -11.226878
       7A    -11.220382     8A    -11.219727     9A     -8.926328
      10A     -6.607074    11A     -6.606546    12A     -6.605446
      13A     -1.146835    14A     -1.054288    15A     -1.023149
      16A     -0.923899    17A     -0.903379    18A     -0.826859
      19A     -0.809164    20A     -0.760850    21A     -0.654199
      22A     -0.637643    23A     -0.602250    24A     -0.598932
      25A     -0.577515    26A     -0.554269    27A     -0.540463
      28A     -0.533623    29A     -0.523170    30A     -0.501374
      31A     -0.493006    32A     -0.479327    33A     -0.461070
      34A     -0.430673    35A     -0.366995    36A     -0.326290

  @DF-RHF Final Energy:  -670.83773709157708

   => Energetics <=

    Nuclear Repulsion Energy =            467.3395919539324836
    One-Electron Energy =               -1846.2425228936517669
    Two-Electron Energy =                 708.0651938481421439
    Total Energy =                       -670.8377370915770825
  Basis Set: (AUG-CC-PVTZ AUX)
    Blend: AUG-CC-PVTZ-RI
    Molecular point group: c1

    Geometry (in Angstrom), charge = 0, multiplicity = 1:

       Center              X                  Y                   Z               Mass
    ------------   -----------------  -----------------  -----------------  -----------------
         S            0.965443355015    -1.770435117786     0.034451557283    31.972071174400
         C           -0.622980644985     0.052104882214    -0.241423442717    12.000000000000
         C            0.724334955015     0.173273282214     0.415563157283    12.000000000000
         C           -0.837854644985    -1.470251117786    -0.147511442717    12.000000000000
         C           -1.677546644985     0.911154882214     0.440659557283    12.000000000000
         C            1.857956355015     0.922979882214    -0.258315442717    12.000000000000
         C           -3.052474644985     0.764331882214    -0.208032442717    12.000000000000
         C            1.581192355015     2.411668882214    -0.052831442717    12.000000000000
         H           -0.537463644985     0.333890882214    -1.300563442717     1.007825032230
         H            0.751117355015     0.207483882214     1.452904557283     1.007825032230
         H           -1.381060644985    -1.757948117786     0.758364557283     1.007825032230
         H           -1.290873644985    -1.957484117786    -1.013661442717     1.007825032230
         H           -1.367422644985     1.962522882214     0.419850557283     1.007825032230
         H           -1.732720644985     0.623364882214     1.498823557283     1.007825032230
         H            2.834432355015     0.664952882214     0.170747557283     1.007825032230
         H            1.915307355015     0.692533882214    -1.328398442717     1.007825032230
         H           -3.018891644985     1.059435882214    -1.261450442717     1.007825032230
         H           -3.796284644985     1.390097882214     0.293454557283     1.007825032230
         H           -3.401681644985    -0.271599117786    -0.160268442717     1.007825032230
         H            0.657194355015     2.715273882214    -0.552667442717     1.007825032230
         H            2.394272355015     3.017891882214    -0.462875442717     1.007825032230
         H            1.486095355015     2.652230882214     1.010667557283     1.007825032230

  Basis Set: AUG-CC-PVTZ
    Blend: AUG-CC-PVTZ
  Basis Set: (AUG-CC-PVTZ AUX)
    Blend: AUG-CC-PVTZ-JKFIT
	 Reference Energy          =    -670.8377370915770825 [Eh]
	 Singles Energy            =      -0.0000000000000000 [Eh]
	 Same-Spin Energy          =      -0.3563364173040448 [Eh]
	 Opposite-Spin Energy      =      -1.2407949687931115 [Eh]
	 Correlation Energy        =      -1.5971313860971561 [Eh]
	 Total Energy              =    -672.4348684776742857 [Eh]

	 ================> DF-SCS-MP2 Energies <==================
	-----------------------------------------------------------
	 SCS Same-Spin Scale       =       0.3333333333333333 [-]
	 SCS Opposite-Spin Scale   =       1.2000000000000000 [-]
	 SCS Same-Spin Energy      =      -0.1187788057680149 [Eh]
	 SCS Opposite-Spin Energy  =      -1.4889539625517336 [Eh]
	 SCS Correlation Energy    =      -1.6077327683197487 [Eh]
	 SCS Total Energy          =    -672.4454698598967752 [Eh]
	-----------------------------------------------------------

  Dipole Moment: [D]
     X:    -1.2273      Y:     2.0138      Z:     0.0518     Total:     2.3589

*** Psi4 exiting successfully. Buy a developer a beer!
