                               Psi4 1.3.2 release

  ==> Input File <==

--------------------------------------------------------------------------
#psi4
#
memory 32 gb

molecule  {
0 1
  S        1.0039920    -1.8370330     0.0416350
  C       -0.6250104    -0.1221238    -0.1206362
  C        0.8344880    -0.0270290     0.3757450
  C       -0.7993060    -1.5368490    -0.1403280
  C       -1.6389980     0.8445570     0.4478430
  C        1.8965050     0.8563820    -0.2511320
  C       -3.0139260     0.6977340    -0.2008490
  C        1.6197410     2.3450710    -0.0456480
  H       -0.4989150     0.2672930    -1.2933800
  H        0.7896660     0.1408860     1.4600880
  H       -1.3425120    -1.8245460     0.7655480
  H       -1.2523250    -2.0240820    -1.0064780
  H       -1.3288740     1.8959250     0.4270340
  H       -1.6941720     0.5567670     1.5060070
  H        2.8729810     0.5983550     0.1779310
  H        1.9538560     0.6259360    -1.3212150
  H       -2.9803430     0.9928380    -1.2542670
  H       -3.7577360     1.3235000     0.3006380
  H       -3.3631330    -0.3381970    -0.1530850
  H        0.6957430     2.6486760    -0.5454840
  H        2.4328210     2.9512940    -0.4556920
  H        1.5246440     2.5856330     1.0178510
units angstrom
no_reorient  #important for SAPT in psi4, default
symmetry c1  #important for SAPT in psi4, default
}

set PROPERTIES_ORIGIN ["COM"]
properties('MP2/aug-cc-pvtz', properties = ['dipole'])
--------------------------------------------------------------------------

    Molecular point group: c1
  Charge       = 0
  Multiplicity = 1
  Basis Set: AUG-CC-PVTZ
    Blend: AUG-CC-PVTZ
  Basis Set: (AUG-CC-PVTZ AUX)
    Blend: AUG-CC-PVTZ-JKFIT

    Orbital Energies [Eh]
    ---------------------

    Doubly Occupied:

       1A    -91.936949     2A    -11.258611     3A    -11.250188
       4A    -11.246332     5A    -11.228738     6A    -11.228296
       7A    -11.220724     8A    -11.219846     9A     -8.937472
      10A     -6.618228    11A     -6.617926    12A     -6.616624
      13A     -1.162398    14A     -1.054007    15A     -1.032413
      16A     -0.926481    17A     -0.907452    18A     -0.838525
      19A     -0.805514    20A     -0.734316    21A     -0.659288
      22A     -0.632029    23A     -0.610125    24A     -0.597672
      25A     -0.572862    26A     -0.565559    27A     -0.541256
      28A     -0.526521    29A     -0.519561    30A     -0.505952
      31A     -0.486499    32A     -0.472089    33A     -0.443286
      34A     -0.430442    35A     -0.392777    36A     -0.331854

  @DF-RHF Final Energy:  -670.82544613078983

   => Energetics <=

    Nuclear Repulsion Energy =            469.1549829973666306
    One-Electron Energy =               -1849.7032394452310200
    Two-Electron Energy =                 709.7228103170745044
    Total Energy =                       -670.8254461307898282
  Basis Set: (AUG-CC-PVTZ AUX)
    Blend: AUG-CC-PVTZ-RI
    Molecular point group: c1

    Geometry (in Angstrom), charge = 0, multiplicity = 1:

       Center              X                  Y                   Z               Mass
    ------------   -----------------  -----------------  -----------------  -----------------
         S            0.962581213574    -1.748172000493     0.028307519486    31.972071174400
         C           -0.666421186426    -0.033262800493    -0.133963680514    12.000000000000
         C            0.793077213574     0.061831999507     0.362417519486    12.000000000000
         C           -0.840716786426    -1.447988000493    -0.153655480514    12.000000000000
         C           -1.680408786426     0.933417999507     0.434515519486    12.000000000000
         C            1.855094213574     0.945242999507    -0.264459480514    12.000000000000
         C           -3.055336786426     0.786594999507    -0.214176480514    12.000000000000
         C            1.578330213574     2.433931999507    -0.058975480514    12.000000000000
         H           -0.540325786426     0.356153999507    -1.306707480514     1.007825032230
         H            0.748255213574     0.229746999507     1.446760519486     1.007825032230
         H           -1.383922786426    -1.735685000493     0.752220519486     1.007825032230
         H           -1.293735786426    -1.935221000493    -1.019805480514     1.007825032230
         H           -1.370284786426     1.984785999507     0.413706519486     1.007825032230
         H           -1.735582786426     0.645627999507     1.492679519486     1.007825032230
         H            2.831570213574     0.687215999507     0.164603519486     1.007825032230
         H            1.912445213574     0.714796999507    -1.334542480514     1.007825032230
         H           -3.021753786426     1.081698999507    -1.267594480514     1.007825032230
         H           -3.799146786426     1.412360999507     0.287310519486     1.007825032230
         H           -3.404543786426    -0.249336000493    -0.166412480514     1.007825032230
         H            0.654332213574     2.737536999507    -0.558811480514     1.007825032230
         H            2.391410213574     3.040154999507    -0.469019480514     1.007825032230
         H            1.483233213574     2.674493999507     1.004523519486     1.007825032230

  Basis Set: AUG-CC-PVTZ
    Blend: AUG-CC-PVTZ
  Basis Set: (AUG-CC-PVTZ AUX)
    Blend: AUG-CC-PVTZ-JKFIT
	 Reference Energy          =    -670.8254461307898282 [Eh]
	 Singles Energy            =      -0.0000000000000000 [Eh]
	 Same-Spin Energy          =      -0.3573932693364464 [Eh]
	 Opposite-Spin Energy      =      -1.2415024230960130 [Eh]
	 Correlation Energy        =      -1.5988956924324595 [Eh]
	 Total Energy              =    -672.4243418232223348 [Eh]

	 ================> DF-SCS-MP2 Energies <==================
	-----------------------------------------------------------
	 SCS Same-Spin Scale       =       0.3333333333333333 [-]
	 SCS Opposite-Spin Scale   =       1.2000000000000000 [-]
	 SCS Same-Spin Energy      =      -0.1191310897788155 [Eh]
	 SCS Opposite-Spin Energy  =      -1.4898029077152155 [Eh]
	 SCS Correlation Energy    =      -1.6089339974940309 [Eh]
	 SCS Total Energy          =    -672.4343801282838058 [Eh]
	-----------------------------------------------------------

  Dipole Moment: [D]
     X:    -1.2294      Y:     1.7389      Z:     0.1159     Total:     2.1328

*** Psi4 exiting successfully. Buy a developer a beer!
