                               Psi4 1.3.2 release

  ==> Input File <==

--------------------------------------------------------------------------
#psi4
#
memory 32 gb

molecule  {
0 1
  S        1.0039920    -1.8370330     0.0416350
  C       -0.5844320    -0.0144930    -0.2342400
  C        0.8161011    -0.0150246     0.3609529
  C       -0.7993060    -1.5368490    -0.1403280
  C       -1.6389980     0.8445570     0.4478430
  C        1.8965050     0.8563820    -0.2511320
  C       -3.0139260     0.6977340    -0.2008490
  C        1.6197410     2.3450710    -0.0456480
  H       -0.4989150     0.2672930    -1.2933800
  H        0.7896660     0.1408860     1.4600880
  H       -1.3425120    -1.8245460     0.7655480
  H       -1.2523250    -2.0240820    -1.0064780
  H       -1.3288740     1.8959250     0.4270340
  H       -1.6941720     0.5567670     1.5060070
  H        2.8729810     0.5983550     0.1779310
  H        1.9538560     0.6259360    -1.3212150
  H       -2.9803430     0.9928380    -1.2542670
  H       -3.7577360     1.3235000     0.3006380
  H       -3.3631330    -0.3381970    -0.1530850
  H        0.6957430     2.6486760    -0.5454840
  H        2.4328210     2.9512940    -0.4556920
  H        1.5246440     2.5856330     1.0178510
units angstrom
no_reorient  #important for SAPT in psi4, default
symmetry c1  #important for SAPT in psi4, default
}

set PROPERTIES_ORIGIN ["COM"]
properties('MP2/aug-cc-pvtz', properties = ['dipole'])
--------------------------------------------------------------------------

    Molecular point group: c1
  Charge       = 0
  Multiplicity = 1
  Basis Set: AUG-CC-PVTZ
    Blend: AUG-CC-PVTZ
  Basis Set: (AUG-CC-PVTZ AUX)
    Blend: AUG-CC-PVTZ-JKFIT

    Orbital Energies [Eh]
    ---------------------

    Doubly Occupied:

       1A    -91.934249     2A    -11.258249     3A    -11.252760
       4A    -11.238226     5A    -11.227006     6A    -11.225938
       7A    -11.220155     8A    -11.219540     9A     -8.934637
      10A     -6.615435    11A     -6.615068    12A     -6.613840
      13A     -1.149804    14A     -1.050812    15A     -1.026616
      16A     -0.918025    17A     -0.909583    18A     -0.831881
      19A     -0.807657    20A     -0.745327    21A     -0.651026
      22A     -0.633171    23A     -0.602299    24A     -0.597432
      25A     -0.570287    26A     -0.555522    27A     -0.540109
      28A     -0.530237    29A     -0.519592    30A     -0.502402
      31A     -0.484558    32A     -0.470752    33A     -0.460159
      34A     -0.436328    35A     -0.393333    36A     -0.330678

  @DF-RHF Final Energy:  -670.85271982314407

   => Energetics <=

    Nuclear Repulsion Energy =            468.3399982456081716
    One-Electron Energy =               -1848.2400544470169734
    Two-Electron Energy =                 709.0473363782648448
    Total Energy =                       -670.8527198231440707
  Basis Set: (AUG-CC-PVTZ AUX)
    Blend: AUG-CC-PVTZ-RI
    Molecular point group: c1

    Geometry (in Angstrom), charge = 0, multiplicity = 1:

       Center              X                  Y                   Z               Mass
    ------------   -----------------  -----------------  -----------------  -----------------
         S            0.960534052747    -1.759208320475     0.040152012049    31.972071174400
         C           -0.627889947253     0.063331679525    -0.235722987951    12.000000000000
         C            0.772643152747     0.062800079525     0.359469912049    12.000000000000
         C           -0.842763947253    -1.459024320475    -0.141810987951    12.000000000000
         C           -1.682455947253     0.922381679525     0.446360012049    12.000000000000
         C            1.853047052747     0.934206679525    -0.252614987951    12.000000000000
         C           -3.057383947253     0.775558679525    -0.202331987951    12.000000000000
         C            1.576283052747     2.422895679525    -0.047130987951    12.000000000000
         H           -0.542372947253     0.345117679525    -1.294862987951     1.007825032230
         H            0.746208052747     0.218710679525     1.458605012049     1.007825032230
         H           -1.385969947253    -1.746721320475     0.764065012049     1.007825032230
         H           -1.295782947253    -1.946257320475    -1.007960987951     1.007825032230
         H           -1.372331947253     1.973749679525     0.425551012049     1.007825032230
         H           -1.737629947253     0.634591679525     1.504524012049     1.007825032230
         H            2.829523052747     0.676179679525     0.176448012049     1.007825032230
         H            1.910398052747     0.703760679525    -1.322697987951     1.007825032230
         H           -3.023800947253     1.070662679525    -1.255749987951     1.007825032230
         H           -3.801193947253     1.401324679525     0.299155012049     1.007825032230
         H           -3.406590947253    -0.260372320475    -0.154567987951     1.007825032230
         H            0.652285052747     2.726500679525    -0.546966987951     1.007825032230
         H            2.389363052747     3.029118679525    -0.457174987951     1.007825032230
         H            1.481186052747     2.663457679525     1.016368012049     1.007825032230

  Basis Set: AUG-CC-PVTZ
    Blend: AUG-CC-PVTZ
  Basis Set: (AUG-CC-PVTZ AUX)
    Blend: AUG-CC-PVTZ-JKFIT
	 Reference Energy          =    -670.8527198231440707 [Eh]
	 Singles Energy            =      -0.0000000000000000 [Eh]
	 Same-Spin Energy          =      -0.3559342561523653 [Eh]
	 Opposite-Spin Energy      =      -1.2393446196758622 [Eh]
	 Correlation Energy        =      -1.5952788758282275 [Eh]
	 Total Energy              =    -672.4479986989722420 [Eh]

	 ================> DF-SCS-MP2 Energies <==================
	-----------------------------------------------------------
	 SCS Same-Spin Scale       =       0.3333333333333333 [-]
	 SCS Opposite-Spin Scale   =       1.2000000000000000 [-]
	 SCS Same-Spin Energy      =      -0.1186447520507884 [Eh]
	 SCS Opposite-Spin Energy  =      -1.4872135436110345 [Eh]
	 SCS Correlation Energy    =      -1.6058582956618230 [Eh]
	 SCS Total Energy          =    -672.4585781188059173 [Eh]
	-----------------------------------------------------------

  Dipole Moment: [D]
     X:    -1.2714      Y:     1.7874      Z:     0.0394     Total:     2.1939

*** Psi4 exiting successfully. Buy a developer a beer!
