                               Psi4 1.3.2 release

  ==> Input File <==

--------------------------------------------------------------------------
#psi4
#
memory 32 gb

molecule  {
0 1
  S        1.0039920    -1.8370330     0.0416350
  C       -0.5997110    -0.0504130    -0.1970545
  C        0.8344880    -0.0270290     0.3757450
  C       -0.7993060    -1.5368490    -0.1403280
  C       -1.6389980     0.8445570     0.4478430
  C        1.8965050     0.8563820    -0.2511320
  C       -3.0139260     0.6977340    -0.2008490
  C        1.6197410     2.3450710    -0.0456480
  H       -0.4989150     0.2672930    -1.2933800
  H        0.7896660     0.1408860     1.4600880
  H       -1.3425120    -1.8245460     0.7655480
  H       -1.2523250    -2.0240820    -1.0064780
  H       -1.3288740     1.8959250     0.4270340
  H       -1.6941720     0.5567670     1.5060070
  H        2.8729810     0.5983550     0.1779310
  H        1.9538560     0.6259360    -1.3212150
  H       -2.9803430     0.9928380    -1.2542670
  H       -3.7577360     1.3235000     0.3006380
  H       -3.3631330    -0.3381970    -0.1530850
  H        0.6957430     2.6486760    -0.5454840
  H        2.4328210     2.9512940    -0.4556920
  H        1.5246440     2.5856330     1.0178510
units angstrom
no_reorient  #important for SAPT in psi4, default
symmetry c1  #important for SAPT in psi4, default
}

set PROPERTIES_ORIGIN ["COM"]
properties('MP2/aug-cc-pvtz', properties = ['dipole'])
--------------------------------------------------------------------------

    Molecular point group: c1
  Charge       = 0
  Multiplicity = 1
  Basis Set: AUG-CC-PVTZ
    Blend: AUG-CC-PVTZ
  Basis Set: (AUG-CC-PVTZ AUX)
    Blend: AUG-CC-PVTZ-JKFIT

    Orbital Energies [Eh]
    ---------------------

    Doubly Occupied:

       1A    -91.935466     2A    -11.257268     3A    -11.251820
       4A    -11.240717     5A    -11.226962     6A    -11.226369
       7A    -11.220274     8A    -11.219608     9A     -8.935934
      10A     -6.616725    11A     -6.616390    12A     -6.615134
      13A     -1.151900    14A     -1.051807    15A     -1.028413
      16A     -0.920097    17A     -0.908682    18A     -0.834300
      19A     -0.805266    20A     -0.742187    21A     -0.652970
      22A     -0.631962    23A     -0.604196    24A     -0.597298
      25A     -0.571199    26A     -0.558481    27A     -0.539904
      28A     -0.528193    29A     -0.519233    30A     -0.503832
      31A     -0.485127    32A     -0.463698    33A     -0.459634
      34A     -0.438320    35A     -0.394837    36A     -0.331400

  @DF-RHF Final Energy:  -670.84998216553527

   => Energetics <=

    Nuclear Repulsion Energy =            468.4991452745223910
    One-Electron Energy =               -1848.5270480541287270
    Two-Electron Energy =                 709.1779206140711267
    Total Energy =                       -670.8499821655352662
  Basis Set: (AUG-CC-PVTZ AUX)
    Blend: AUG-CC-PVTZ-RI
    Molecular point group: c1

    Geometry (in Angstrom), charge = 0, multiplicity = 1:

       Center              X                  Y                   Z               Mass
    ------------   -----------------  -----------------  -----------------  -----------------
         S            0.960247349679    -1.754787305478     0.035357090275    31.972071174400
         C           -0.643455650321     0.031832694522    -0.203332409725    12.000000000000
         C            0.790743349679     0.055216694522     0.369467090275    12.000000000000
         C           -0.843050650321    -1.454603305478    -0.146605909725    12.000000000000
         C           -1.682742650321     0.926802694522     0.441565090275    12.000000000000
         C            1.852760349679     0.938627694522    -0.257409909725    12.000000000000
         C           -3.057670650321     0.779979694522    -0.207126909725    12.000000000000
         C            1.575996349679     2.427316694522    -0.051925909725    12.000000000000
         H           -0.542659650321     0.349538694522    -1.299657909725     1.007825032230
         H            0.745921349679     0.223131694522     1.453810090275     1.007825032230
         H           -1.386256650321    -1.742300305478     0.759270090275     1.007825032230
         H           -1.296069650321    -1.941836305478    -1.012755909725     1.007825032230
         H           -1.372618650321     1.978170694522     0.420756090275     1.007825032230
         H           -1.737916650321     0.639012694522     1.499729090275     1.007825032230
         H            2.829236349679     0.680600694522     0.171653090275     1.007825032230
         H            1.910111349679     0.708181694522    -1.327492909725     1.007825032230
         H           -3.024087650321     1.075083694522    -1.260544909725     1.007825032230
         H           -3.801480650321     1.405745694522     0.294360090275     1.007825032230
         H           -3.406877650321    -0.255951305478    -0.159362909725     1.007825032230
         H            0.651998349679     2.730921694522    -0.551761909725     1.007825032230
         H            2.389076349679     3.033539694522    -0.461969909725     1.007825032230
         H            1.480899349679     2.667878694522     1.011573090275     1.007825032230

  Basis Set: AUG-CC-PVTZ
    Blend: AUG-CC-PVTZ
  Basis Set: (AUG-CC-PVTZ AUX)
    Blend: AUG-CC-PVTZ-JKFIT
	 Reference Energy          =    -670.8499821655352662 [Eh]
	 Singles Energy            =      -0.0000000000000000 [Eh]
	 Same-Spin Energy          =      -0.3561398465546135 [Eh]
	 Opposite-Spin Energy      =      -1.2395634430358666 [Eh]
	 Correlation Energy        =      -1.5957032895904801 [Eh]
	 Total Energy              =    -672.4456854551257265 [Eh]

	 ================> DF-SCS-MP2 Energies <==================
	-----------------------------------------------------------
	 SCS Same-Spin Scale       =       0.3333333333333333 [-]
	 SCS Opposite-Spin Scale   =       1.2000000000000000 [-]
	 SCS Same-Spin Energy      =      -0.1187132821848712 [Eh]
	 SCS Opposite-Spin Energy  =      -1.4874761316430398 [Eh]
	 SCS Correlation Energy    =      -1.6061894138279109 [Eh]
	 SCS Total Energy          =    -672.4561715793631720 [Eh]
	-----------------------------------------------------------

  Dipole Moment: [D]
     X:    -1.2614      Y:     1.7669      Z:     0.0614     Total:     2.1719

*** Psi4 exiting successfully. Buy a developer a beer!
