                               Psi4 1.3.2 release

  ==> Input File <==

--------------------------------------------------------------------------
#psi4
#
memory 32 gb

molecule  {
0 1
  S        1.0039920    -1.8370330     0.0416350
  C       -0.5626423    -0.0234675    -0.2827283
  C        0.8344880    -0.0270290     0.3757450
  C       -0.7993060    -1.5368490    -0.1403280
  C       -1.6389980     0.8445570     0.4478430
  C        1.8965050     0.8563820    -0.2511320
  C       -3.0139260     0.6977340    -0.2008490
  C        1.6197410     2.3450710    -0.0456480
  H       -0.4989150     0.2672930    -1.2933800
  H        0.7896660     0.1408860     1.4600880
  H       -1.3425120    -1.8245460     0.7655480
  H       -1.2523250    -2.0240820    -1.0064780
  H       -1.3288740     1.8959250     0.4270340
  H       -1.6941720     0.5567670     1.5060070
  H        2.8729810     0.5983550     0.1779310
  H        1.9538560     0.6259360    -1.3212150
  H       -2.9803430     0.9928380    -1.2542670
  H       -3.7577360     1.3235000     0.3006380
  H       -3.3631330    -0.3381970    -0.1530850
  H        0.6957430     2.6486760    -0.5454840
  H        2.4328210     2.9512940    -0.4556920
  H        1.5246440     2.5856330     1.0178510
units angstrom
no_reorient  #important for SAPT in psi4, default
symmetry c1  #important for SAPT in psi4, default
}

set PROPERTIES_ORIGIN ["COM"]
properties('MP2/aug-cc-pvtz', properties = ['dipole'])
--------------------------------------------------------------------------

    Molecular point group: c1
  Charge       = 0
  Multiplicity = 1
  Basis Set: AUG-CC-PVTZ
    Blend: AUG-CC-PVTZ
  Basis Set: (AUG-CC-PVTZ AUX)
    Blend: AUG-CC-PVTZ-JKFIT

    Orbital Energies [Eh]
    ---------------------

    Doubly Occupied:

       1A    -91.934453     2A    -11.256830     3A    -11.252476
       4A    -11.237172     5A    -11.227766     6A    -11.225133
       7A    -11.219543     8A    -11.219189     9A     -8.934928
      10A     -6.615708    11A     -6.615395    12A     -6.614145
      13A     -1.147061    14A     -1.048252    15A     -1.024863
      16A     -0.917709    17A     -0.907388    18A     -0.832101
      19A     -0.806204    20A     -0.751353    21A     -0.648344
      22A     -0.631736    23A     -0.599929    24A     -0.596877
      25A     -0.570736    26A     -0.553853    27A     -0.544895
      28A     -0.530207    29A     -0.518369    30A     -0.499171
      31A     -0.485227    32A     -0.477628    33A     -0.459137
      34A     -0.435861    35A     -0.388526    36A     -0.331138

  @DF-RHF Final Energy:  -670.85095630609828

   => Energetics <=

    Nuclear Repulsion Energy =            467.9986000434676612
    One-Electron Energy =               -1847.5805068148083592
    Two-Electron Energy =                 708.7309504652424721
    Total Energy =                       -670.8509563060982828
  Basis Set: (AUG-CC-PVTZ AUX)
    Blend: AUG-CC-PVTZ-RI
    Molecular point group: c1

    Geometry (in Angstrom), charge = 0, multiplicity = 1:

       Center              X                  Y                   Z               Mass
    ------------   -----------------  -----------------  -----------------  -----------------
         S            0.956827770538    -1.757273021722     0.043260478833    31.972071174400
         C           -0.609806529462     0.056292478278    -0.281102821167    12.000000000000
         C            0.787323770538     0.052730978278     0.377370478833    12.000000000000
         C           -0.846470229462    -1.457089021722    -0.138702521167    12.000000000000
         C           -1.686162229462     0.924316978278     0.449468478833    12.000000000000
         C            1.849340770538     0.936141978278    -0.249506521167    12.000000000000
         C           -3.061090229462     0.777493978278    -0.199223521167    12.000000000000
         C            1.572576770538     2.424830978278    -0.044022521167    12.000000000000
         H           -0.546079229462     0.347052978278    -1.291754521167     1.007825032230
         H            0.742501770538     0.220645978278     1.461713478833     1.007825032230
         H           -1.389676229462    -1.744786021722     0.767173478833     1.007825032230
         H           -1.299489229462    -1.944322021722    -1.004852521167     1.007825032230
         H           -1.376038229462     1.975684978278     0.428659478833     1.007825032230
         H           -1.741336229462     0.636526978278     1.507632478833     1.007825032230
         H            2.825816770538     0.678114978278     0.179556478833     1.007825032230
         H            1.906691770538     0.705695978278    -1.319589521167     1.007825032230
         H           -3.027507229462     1.072597978278    -1.252641521167     1.007825032230
         H           -3.804900229462     1.403259978278     0.302263478833     1.007825032230
         H           -3.410297229462    -0.258437021722    -0.151459521167     1.007825032230
         H            0.648578770538     2.728435978278    -0.543858521167     1.007825032230
         H            2.385656770538     3.031053978278    -0.454066521167     1.007825032230
         H            1.477479770538     2.665392978278     1.019476478833     1.007825032230

  Basis Set: AUG-CC-PVTZ
    Blend: AUG-CC-PVTZ
  Basis Set: (AUG-CC-PVTZ AUX)
    Blend: AUG-CC-PVTZ-JKFIT
	 Reference Energy          =    -670.8509563060982828 [Eh]
	 Singles Energy            =      -0.0000000000000000 [Eh]
	 Same-Spin Energy          =      -0.3555236344318556 [Eh]
	 Opposite-Spin Energy      =      -1.2389457649926865 [Eh]
	 Correlation Energy        =      -1.5944693994245420 [Eh]
	 Total Energy              =    -672.4454257055227799 [Eh]

	 ================> DF-SCS-MP2 Energies <==================
	-----------------------------------------------------------
	 SCS Same-Spin Scale       =       0.3333333333333333 [-]
	 SCS Opposite-Spin Scale   =       1.2000000000000000 [-]
	 SCS Same-Spin Energy      =      -0.1185078781439519 [Eh]
	 SCS Opposite-Spin Energy  =      -1.4867349179912237 [Eh]
	 SCS Correlation Energy    =      -1.6052427961351756 [Eh]
	 SCS Total Energy          =    -672.4561991022334269 [Eh]
	-----------------------------------------------------------

  Dipole Moment: [D]
     X:    -1.2598      Y:     1.7707      Z:     0.0204     Total:     2.1732

*** Psi4 exiting successfully. Buy a developer a beer!
