                               Psi4 1.4a3.dev225

  ==> Input File <==

--------------------------------------------------------------------------
#psi4
#
memory 32 gb

molecule  {
0 1
  S        1.0039920    -1.8370330     0.0416350
  C       -0.5844320    -0.0144930    -0.2342400
  C        0.8390732    -0.0759911     0.3667070
  C       -0.7993060    -1.5368490    -0.1403280
  C       -1.6389980     0.8445570     0.4478430
  C        1.8965050     0.8563820    -0.2511320
  C       -3.0139260     0.6977340    -0.2008490
  C        1.6197410     2.3450710    -0.0456480
  H       -0.4989150     0.2672930    -1.2933800
  H        0.7896660     0.1408860     1.4600880
  H       -1.3425120    -1.8245460     0.7655480
  H       -1.2523250    -2.0240820    -1.0064780
  H       -1.3288740     1.8959250     0.4270340
  H       -1.6941720     0.5567670     1.5060070
  H        2.8729810     0.5983550     0.1779310
  H        1.9538560     0.6259360    -1.3212150
  H       -2.9803430     0.9928380    -1.2542670
  H       -3.7577360     1.3235000     0.3006380
  H       -3.3631330    -0.3381970    -0.1530850
  H        0.6957430     2.6486760    -0.5454840
  H        2.4328210     2.9512940    -0.4556920
  H        1.5246440     2.5856330     1.0178510
units angstrom
no_reorient  #important for SAPT in psi4, default
symmetry c1  #important for SAPT in psi4, default
}

set PROPERTIES_ORIGIN ["COM"]
properties('MP2/aug-cc-pvtz', properties = ['dipole'])
--------------------------------------------------------------------------

    Molecular point group: c1
  Charge       = 0
  Multiplicity = 1
  Basis Set: AUG-CC-PVTZ
    Blend: AUG-CC-PVTZ
  Basis Set: (AUG-CC-PVTZ AUX)
    Blend: AUG-CC-PVTZ-JKFIT

    Orbital Energies [Eh]
    ---------------------

    Doubly Occupied:

       1A    -91.936342     2A    -11.256036     3A    -11.253395
       4A    -11.237895     5A    -11.226998     6A    -11.225289
       7A    -11.220295     8A    -11.219319     9A     -8.937401
      10A     -6.618255    11A     -6.617925    12A     -6.616627
      13A     -1.150516    14A     -1.048553    15A     -1.027195
      16A     -0.917103    17A     -0.910823    18A     -0.834005
      19A     -0.805205    20A     -0.742840    21A     -0.648622
      22A     -0.631210    23A     -0.601140    24A     -0.596947
      25A     -0.570520    26A     -0.555088    27A     -0.540222
      28A     -0.529156    29A     -0.517204    30A     -0.502154
      31A     -0.481964    32A     -0.469647    33A     -0.463780
      34A     -0.433064    35A     -0.400695    36A     -0.331322

  @DF-RHF Final Energy:  -670.85139170694822

   => Energetics <=

    Nuclear Repulsion Energy =            468.5319765488804364
    One-Electron Energy =               -1848.6172320068103545
    Two-Electron Energy =                 709.2338637509816408
    Total Energy =                       -670.8513917069482204
  Basis Set: (AUG-CC-PVTZ AUX)
    Blend: AUG-CC-PVTZ-RI
    Molecular point group: c1

    Geometry (in Angstrom), charge = 0, multiplicity = 1:

       Center              X                  Y                   Z               Mass
    ------------   -----------------  -----------------  -----------------  -----------------
         S            0.958414881749    -1.753584174720     0.039621197633    31.972071174400
         C           -0.630009118251     0.068955825280    -0.236253802367    12.000000000000
         C            0.793496081749     0.007457725280     0.364693197633    12.000000000000
         C           -0.844883118251    -1.453400174720    -0.142341802367    12.000000000000
         C           -1.684575118251     0.928005825280     0.445829197633    12.000000000000
         C            1.850927881749     0.939830825280    -0.253145802367    12.000000000000
         C           -3.059503118251     0.781182825280    -0.202862802367    12.000000000000
         C            1.574163881749     2.428519825280    -0.047661802367    12.000000000000
         H           -0.544492118251     0.350741825280    -1.295393802367     1.007825032230
         H            0.744088881749     0.224334825280     1.458074197633     1.007825032230
         H           -1.388089118251    -1.741097174720     0.763534197633     1.007825032230
         H           -1.297902118251    -1.940633174720    -1.008491802367     1.007825032230
         H           -1.374451118251     1.979373825280     0.425020197633     1.007825032230
         H           -1.739749118251     0.640215825280     1.503993197633     1.007825032230
         H            2.827403881749     0.681803825280     0.175917197633     1.007825032230
         H            1.908278881749     0.709384825280    -1.323228802367     1.007825032230
         H           -3.025920118251     1.076286825280    -1.256280802367     1.007825032230
         H           -3.803313118251     1.406948825280     0.298624197633     1.007825032230
         H           -3.408710118251    -0.254748174720    -0.155098802367     1.007825032230
         H            0.650165881749     2.732124825280    -0.547497802367     1.007825032230
         H            2.387243881749     3.034742825280    -0.457705802367     1.007825032230
         H            1.479066881749     2.669081825280     1.015837197633     1.007825032230

  Basis Set: AUG-CC-PVTZ
    Blend: AUG-CC-PVTZ
  Basis Set: (AUG-CC-PVTZ AUX)
    Blend: AUG-CC-PVTZ-JKFIT
	 Reference Energy          =    -670.8513917069482204 [Eh]
	 Singles Energy            =      -0.0000000000000000 [Eh]
	 Same-Spin Energy          =      -0.3558955135929898 [Eh]
	 Opposite-Spin Energy      =      -1.2391754784340689 [Eh]
	 Correlation Energy        =      -1.5950709920270587 [Eh]
	 Total Energy              =    -672.4464626989753242 [Eh]

	 ================> DF-SCS-MP2 Energies <==================
	-----------------------------------------------------------
	 SCS Same-Spin Scale       =       0.3333333333333333 [-]
	 SCS Opposite-Spin Scale   =       1.2000000000000000 [-]
	 SCS Same-Spin Energy      =      -0.1186318378643299 [Eh]
	 SCS Opposite-Spin Energy  =      -1.4870105741208828 [Eh]
	 SCS Correlation Energy    =      -1.6056424119852126 [Eh]
	 SCS Total Energy          =    -672.4570341189333931 [Eh]
	-----------------------------------------------------------

  Dipole Moment: [D]
     X:    -1.3016      Y:     1.6863      Z:     0.0386     Total:     2.1305

*** Psi4 exiting successfully. Buy a developer a beer!
