                               Psi4 1.3.2 release

  ==> Input File <==

--------------------------------------------------------------------------
#psi4
#
memory 32 gb

molecule  {
0 1
  S        1.0039920    -1.8370330     0.0416350
  C       -0.5844320    -0.0144930    -0.2342400
  C        0.8344880    -0.0270290     0.3757450
  C       -0.7993060    -1.5368490    -0.1403280
  C       -1.6389980     0.8445570     0.4478430
  C        1.8965050     0.8563820    -0.2511320
  C       -3.0139260     0.6977340    -0.2008490
  C        1.6197410     2.3450710    -0.0456480
  H       -0.4989150     0.2672930    -1.2933800
  H        0.7896660     0.1408860     1.4600880
  H       -1.3425120    -1.8245460     0.7655480
  H       -1.2523250    -2.0240820    -1.0064780
  H       -1.3288740     1.8959250     0.4270340
  H       -1.6941720     0.5567670     1.5060070
  H        2.8729810     0.5983550     0.1779310
  H        1.9538560     0.6259360    -1.3212150
  H       -2.9803430     0.9928380    -1.2542670
  H       -3.7577360     1.3235000     0.3006380
  H       -3.3631330    -0.3381970    -0.1530850
  H        0.6957430     2.6486760    -0.5454840
  H        2.4328210     2.9512940    -0.4556920
  H        1.5246440     2.5856330     1.0178510
units angstrom
no_reorient  #important for SAPT in psi4, default
symmetry c1  #important for SAPT in psi4, default
}

set PROPERTIES_ORIGIN ["COM"]
properties('MP2/aug-cc-pvtz', properties = ['dipole'])
--------------------------------------------------------------------------

    Molecular point group: c1
  Charge       = 0
  Multiplicity = 1
  Basis Set: AUG-CC-PVTZ
    Blend: AUG-CC-PVTZ
  Basis Set: (AUG-CC-PVTZ AUX)
    Blend: AUG-CC-PVTZ-JKFIT

    Orbital Energies [Eh]
    ---------------------

    Doubly Occupied:

       1A    -91.934933     2A    -11.257122     3A    -11.252674
       4A    -11.238871     5A    -11.226801     6A    -11.225491
       7A    -11.220087     8A    -11.219534     9A     -8.935363
      10A     -6.616170    11A     -6.615820    12A     -6.614583
      13A     -1.147625    14A     -1.050681    15A     -1.026473
      16A     -0.917758    17A     -0.909337    18A     -0.832491
      19A     -0.805761    20A     -0.746732    21A     -0.649851
      22A     -0.632364    23A     -0.601339    24A     -0.597158
      25A     -0.570873    26A     -0.555938    27A     -0.539851
      28A     -0.530092    29A     -0.518681    30A     -0.502101
      31A     -0.485152    32A     -0.471860    33A     -0.459550
      34A     -0.435147    35A     -0.394159    36A     -0.331164

  @DF-RHF Final Energy:  -670.85350289548649

   => Energetics <=

    Nuclear Repulsion Energy =            468.1586642289663587
    One-Electron Energy =               -1847.8851615089899951
    Two-Electron Energy =                 708.8729943845370371
    Total Energy =                       -670.8535028954864856
  Basis Set: (AUG-CC-PVTZ AUX)
    Blend: AUG-CC-PVTZ-RI
    Molecular point group: c1

    Geometry (in Angstrom), charge = 0, multiplicity = 1:

       Center              X                  Y                   Z               Mass
    ------------   -----------------  -----------------  -----------------  -----------------
         S            0.958837865406    -1.758100917306     0.038787444190    31.972071174400
         C           -0.629586134594     0.064439082694    -0.237087555810    12.000000000000
         C            0.789333865406     0.051903082694     0.372897444190    12.000000000000
         C           -0.844460134594    -1.457916917306    -0.143175555810    12.000000000000
         C           -1.684152134594     0.923489082694     0.444995444190    12.000000000000
         C            1.851350865406     0.935314082694    -0.253979555810    12.000000000000
         C           -3.059080134594     0.776666082694    -0.203696555810    12.000000000000
         C            1.574586865406     2.424003082694    -0.048495555810    12.000000000000
         H           -0.544069134594     0.346225082694    -1.296227555810     1.007825032230
         H            0.744511865406     0.219818082694     1.457240444190     1.007825032230
         H           -1.387666134594    -1.745613917306     0.762700444190     1.007825032230
         H           -1.297479134594    -1.945149917306    -1.009325555810     1.007825032230
         H           -1.374028134594     1.974857082694     0.424186444190     1.007825032230
         H           -1.739326134594     0.635699082694     1.503159444190     1.007825032230
         H            2.827826865406     0.677287082694     0.175083444190     1.007825032230
         H            1.908701865406     0.704868082694    -1.324062555810     1.007825032230
         H           -3.025497134594     1.071770082694    -1.257114555810     1.007825032230
         H           -3.802890134594     1.402432082694     0.297790444190     1.007825032230
         H           -3.408287134594    -0.259264917306    -0.155932555810     1.007825032230
         H            0.650588865406     2.727608082694    -0.548331555810     1.007825032230
         H            2.387666865406     3.030226082694    -0.458539555810     1.007825032230
         H            1.479489865406     2.664565082694     1.015003444190     1.007825032230

  Basis Set: AUG-CC-PVTZ
    Blend: AUG-CC-PVTZ
  Basis Set: (AUG-CC-PVTZ AUX)
    Blend: AUG-CC-PVTZ-JKFIT
	 Reference Energy          =    -670.8535028954864856 [Eh]
	 Singles Energy            =      -0.0000000000000000 [Eh]
	 Same-Spin Energy          =      -0.3557708924521127 [Eh]
	 Opposite-Spin Energy      =      -1.2391439905986701 [Eh]
	 Correlation Energy        =      -1.5949148830507829 [Eh]
	 Total Energy              =    -672.4484177785373049 [Eh]

	 ================> DF-SCS-MP2 Energies <==================
	-----------------------------------------------------------
	 SCS Same-Spin Scale       =       0.3333333333333333 [-]
	 SCS Opposite-Spin Scale   =       1.2000000000000000 [-]
	 SCS Same-Spin Energy      =      -0.1185902974840376 [Eh]
	 SCS Opposite-Spin Energy  =      -1.4869727887184041 [Eh]
	 SCS Correlation Energy    =      -1.6055630862024417 [Eh]
	 SCS Total Energy          =    -672.4590659816889229 [Eh]
	-----------------------------------------------------------

  Dipole Moment: [D]
     X:    -1.2742      Y:     1.7763      Z:     0.0431     Total:     2.1865

*** Psi4 exiting successfully. Buy a developer a beer!
