                               Psi4 1.3.2 release

  ==> Input File <==

--------------------------------------------------------------------------
#psi4
#
memory 32 gb

molecule  {
0 1
  S        1.0039920    -1.8370330     0.0416350
  C       -0.6774287    -0.1396557    -0.2017903
  C        0.8344880    -0.0270290     0.3757450
  C       -0.7993060    -1.5368490    -0.1403280
  C       -1.6389980     0.8445570     0.4478430
  C        1.8965050     0.8563820    -0.2511320
  C       -3.0139260     0.6977340    -0.2008490
  C        1.6197410     2.3450710    -0.0456480
  H       -0.4989150     0.2672930    -1.2933800
  H        0.7896660     0.1408860     1.4600880
  H       -1.3425120    -1.8245460     0.7655480
  H       -1.2523250    -2.0240820    -1.0064780
  H       -1.3288740     1.8959250     0.4270340
  H       -1.6941720     0.5567670     1.5060070
  H        2.8729810     0.5983550     0.1779310
  H        1.9538560     0.6259360    -1.3212150
  H       -2.9803430     0.9928380    -1.2542670
  H       -3.7577360     1.3235000     0.3006380
  H       -3.3631330    -0.3381970    -0.1530850
  H        0.6957430     2.6486760    -0.5454840
  H        2.4328210     2.9512940    -0.4556920
  H        1.5246440     2.5856330     1.0178510
units angstrom
no_reorient  #important for SAPT in psi4, default
symmetry c1  #important for SAPT in psi4, default
}

set PROPERTIES_ORIGIN ["COM"]
properties('MP2/aug-cc-pvtz', properties = ['dipole'])
--------------------------------------------------------------------------

    Molecular point group: c1
  Charge       = 0
  Multiplicity = 1
  Basis Set: AUG-CC-PVTZ
    Blend: AUG-CC-PVTZ
  Basis Set: (AUG-CC-PVTZ AUX)
    Blend: AUG-CC-PVTZ-JKFIT

    Orbital Energies [Eh]
    ---------------------

    Doubly Occupied:

       1A    -91.936142     2A    -11.259015     3A    -11.248581
       4A    -11.243659     5A    -11.228707     6A    -11.227357
       7A    -11.219636     8A    -11.218922     9A     -8.936594
      10A     -6.617377    11A     -6.617030    12A     -6.615770
      13A     -1.156502    14A     -1.053885    15A     -1.031550
      16A     -0.926664    17A     -0.902215    18A     -0.839528
      19A     -0.799578    20A     -0.738812    21A     -0.657870
      22A     -0.631488    23A     -0.610859    24A     -0.598747
      25A     -0.571928    26A     -0.559804    27A     -0.542071
      28A     -0.525553    29A     -0.518335    30A     -0.505089
      31A     -0.485419    32A     -0.473329    33A     -0.449079
      34A     -0.438313    35A     -0.382341    36A     -0.330775

  @DF-RHF Final Energy:  -670.82721928220849

   => Energetics <=

    Nuclear Repulsion Energy =            468.4001672915317727
    One-Electron Energy =               -1848.2577331307595614
    Two-Electron Energy =                 709.0303465570193566
    Total Energy =                       -670.8272192822084889
  Basis Set: (AUG-CC-PVTZ AUX)
    Blend: AUG-CC-PVTZ-RI
    Molecular point group: c1

    Geometry (in Angstrom), charge = 0, multiplicity = 1:

       Center              X                  Y                   Z               Mass
    ------------   -----------------  -----------------  -----------------  -----------------
         S            0.967416789823    -1.746554686706     0.035793966747    31.972071174400
         C           -0.714003910177    -0.049177386706    -0.207631333253    12.000000000000
         C            0.797912789823     0.063449313294     0.369903966747    12.000000000000
         C           -0.835881210177    -1.446370686706    -0.146169033253    12.000000000000
         C           -1.675573210177     0.935035313294     0.442001966747    12.000000000000
         C            1.859929789823     0.946860313294    -0.256973033253    12.000000000000
         C           -3.050501210177     0.788212313294    -0.206690033253    12.000000000000
         C            1.583165789823     2.435549313294    -0.051489033253    12.000000000000
         H           -0.535490210177     0.357771313294    -1.299221033253     1.007825032230
         H            0.753090789823     0.231364313294     1.454246966747     1.007825032230
         H           -1.379087210177    -1.734067686706     0.759706966747     1.007825032230
         H           -1.288900210177    -1.933603686706    -1.012319033253     1.007825032230
         H           -1.365449210177     1.986403313294     0.421192966747     1.007825032230
         H           -1.730747210177     0.647245313294     1.500165966747     1.007825032230
         H            2.836405789823     0.688833313294     0.172089966747     1.007825032230
         H            1.917280789823     0.716414313294    -1.327056033253     1.007825032230
         H           -3.016918210177     1.083316313294    -1.260108033253     1.007825032230
         H           -3.794311210177     1.413978313294     0.294796966747     1.007825032230
         H           -3.399708210177    -0.247718686706    -0.158926033253     1.007825032230
         H            0.659167789823     2.739154313294    -0.551325033253     1.007825032230
         H            2.396245789823     3.041772313294    -0.461533033253     1.007825032230
         H            1.488068789823     2.676111313294     1.012009966747     1.007825032230

  Basis Set: AUG-CC-PVTZ
    Blend: AUG-CC-PVTZ
  Basis Set: (AUG-CC-PVTZ AUX)
    Blend: AUG-CC-PVTZ-JKFIT
	 Reference Energy          =    -670.8272192822084889 [Eh]
	 Singles Energy            =      -0.0000000000000000 [Eh]
	 Same-Spin Energy          =      -0.3572529501325755 [Eh]
	 Opposite-Spin Energy      =      -1.2414417420195223 [Eh]
	 Correlation Energy        =      -1.5986946921520979 [Eh]
	 Total Energy              =    -672.4259139743605829 [Eh]

	 ================> DF-SCS-MP2 Energies <==================
	-----------------------------------------------------------
	 SCS Same-Spin Scale       =       0.3333333333333333 [-]
	 SCS Opposite-Spin Scale   =       1.2000000000000000 [-]
	 SCS Same-Spin Energy      =      -0.1190843167108585 [Eh]
	 SCS Opposite-Spin Energy  =      -1.4897300904234267 [Eh]
	 SCS Correlation Energy    =      -1.6088144071342851 [Eh]
	 SCS Total Energy          =    -672.4360336893428212 [Eh]
	-----------------------------------------------------------

  Dipole Moment: [D]
     X:    -1.2172      Y:     1.7824      Z:     0.0927     Total:     2.1604

*** Psi4 exiting successfully. Buy a developer a beer!
