                               Psi4 1.3.2 release

  ==> Input File <==

--------------------------------------------------------------------------
#psi4
#
memory 32 gb

molecule  {
0 1
  S        1.0039920    -1.8370330     0.0416350
  C       -0.6044930    -0.0055338    -0.1850085
  C        0.8344880    -0.0270290     0.3757450
  C       -0.7993060    -1.5368490    -0.1403280
  C       -1.6389980     0.8445570     0.4478430
  C        1.8965050     0.8563820    -0.2511320
  C       -3.0139260     0.6977340    -0.2008490
  C        1.6197410     2.3450710    -0.0456480
  H       -0.4989150     0.2672930    -1.2933800
  H        0.7896660     0.1408860     1.4600880
  H       -1.3425120    -1.8245460     0.7655480
  H       -1.2523250    -2.0240820    -1.0064780
  H       -1.3288740     1.8959250     0.4270340
  H       -1.6941720     0.5567670     1.5060070
  H        2.8729810     0.5983550     0.1779310
  H        1.9538560     0.6259360    -1.3212150
  H       -2.9803430     0.9928380    -1.2542670
  H       -3.7577360     1.3235000     0.3006380
  H       -3.3631330    -0.3381970    -0.1530850
  H        0.6957430     2.6486760    -0.5454840
  H        2.4328210     2.9512940    -0.4556920
  H        1.5246440     2.5856330     1.0178510
units angstrom
no_reorient  #important for SAPT in psi4, default
symmetry c1  #important for SAPT in psi4, default
}

set PROPERTIES_ORIGIN ["COM"]
properties('MP2/aug-cc-pvtz', properties = ['dipole'])
--------------------------------------------------------------------------

    Molecular point group: c1
  Charge       = 0
  Multiplicity = 1
  Basis Set: AUG-CC-PVTZ
    Blend: AUG-CC-PVTZ
  Basis Set: (AUG-CC-PVTZ AUX)
    Blend: AUG-CC-PVTZ-JKFIT

    Orbital Energies [Eh]
    ---------------------

    Doubly Occupied:

       1A    -91.935558     2A    -11.257803     3A    -11.253295
       4A    -11.241191     5A    -11.225884     6A    -11.225863
       7A    -11.221068     8A    -11.219526     9A     -8.935941
      10A     -6.616772    11A     -6.616386    12A     -6.615161
      13A     -1.148557    14A     -1.053714    15A     -1.027850
      16A     -0.918016    17A     -0.911994    18A     -0.832872
      19A     -0.805897    20A     -0.742167    21A     -0.652107
      22A     -0.633471    23A     -0.602964    24A     -0.596986
      25A     -0.571116    26A     -0.558993    27A     -0.538052
      28A     -0.528662    29A     -0.518610    30A     -0.504909
      31A     -0.485119    32A     -0.464110    33A     -0.458995
      34A     -0.434236    35A     -0.398551    36A     -0.331172

  @DF-RHF Final Energy:  -670.84958160598546

   => Energetics <=

    Nuclear Repulsion Energy =            468.3123569535198953
    One-Electron Energy =               -1848.1567415354893456
    Two-Electron Energy =                 708.9948029759840438
    Total Energy =                       -670.8495816059854633
  Basis Set: (AUG-CC-PVTZ AUX)
    Blend: AUG-CC-PVTZ-RI
    Molecular point group: c1

    Geometry (in Angstrom), charge = 0, multiplicity = 1:

       Center              X                  Y                   Z               Mass
    ------------   -----------------  -----------------  -----------------  -----------------
         S            0.960688488092    -1.758927401467     0.034245849515    31.972071174400
         C           -0.647796511908     0.072571798533    -0.192397650485    12.000000000000
         C            0.791184488092     0.051076598533     0.368355849515    12.000000000000
         C           -0.842609511908    -1.458743401467    -0.147717150485    12.000000000000
         C           -1.682301511908     0.922662598533     0.440453849515    12.000000000000
         C            1.853201488092     0.934487598533    -0.258521150485    12.000000000000
         C           -3.057229511908     0.775839598533    -0.208238150485    12.000000000000
         C            1.576437488092     2.423176598533    -0.053037150485    12.000000000000
         H           -0.542218511908     0.345398598533    -1.300769150485     1.007825032230
         H            0.746362488092     0.218991598533     1.452698849515     1.007825032230
         H           -1.385815511908    -1.746440401467     0.758158849515     1.007825032230
         H           -1.295628511908    -1.945976401467    -1.013867150485     1.007825032230
         H           -1.372177511908     1.974030598533     0.419644849515     1.007825032230
         H           -1.737475511908     0.634872598533     1.498617849515     1.007825032230
         H            2.829677488092     0.676460598533     0.170541849515     1.007825032230
         H            1.910552488092     0.704041598533    -1.328604150485     1.007825032230
         H           -3.023646511908     1.070943598533    -1.261656150485     1.007825032230
         H           -3.801039511908     1.401605598533     0.293248849515     1.007825032230
         H           -3.406436511908    -0.260091401467    -0.160474150485     1.007825032230
         H            0.652439488092     2.726781598533    -0.552873150485     1.007825032230
         H            2.389517488092     3.029399598533    -0.463081150485     1.007825032230
         H            1.481340488092     2.663738598533     1.010461849515     1.007825032230

  Basis Set: AUG-CC-PVTZ
    Blend: AUG-CC-PVTZ
  Basis Set: (AUG-CC-PVTZ AUX)
    Blend: AUG-CC-PVTZ-JKFIT
	 Reference Energy          =    -670.8495816059854633 [Eh]
	 Singles Energy            =      -0.0000000000000000 [Eh]
	 Same-Spin Energy          =      -0.3562108073010746 [Eh]
	 Opposite-Spin Energy      =      -1.2397500173293308 [Eh]
	 Correlation Energy        =      -1.5959608246304053 [Eh]
	 Total Energy              =    -672.4455424306158875 [Eh]

	 ================> DF-SCS-MP2 Energies <==================
	-----------------------------------------------------------
	 SCS Same-Spin Scale       =       0.3333333333333333 [-]
	 SCS Opposite-Spin Scale   =       1.2000000000000000 [-]
	 SCS Same-Spin Energy      =      -0.1187369357670249 [Eh]
	 SCS Opposite-Spin Energy  =      -1.4877000207951969 [Eh]
	 SCS Correlation Energy    =      -1.6064369565622219 [Eh]
	 SCS Total Energy          =    -672.4560185625476834 [Eh]
	-----------------------------------------------------------

  Dipole Moment: [D]
     X:    -1.2883      Y:     1.7781      Z:     0.0724     Total:     2.1969

*** Psi4 exiting successfully. Buy a developer a beer!
