                               Psi4 1.3.2 release

  ==> Input File <==

--------------------------------------------------------------------------
#psi4
#
memory 32 gb

molecule  {
0 1
  S        1.0039920    -1.8370330     0.0416350
  C       -0.5844320    -0.0144930    -0.2342400
  C        0.8253175     0.0708953     0.3938209
  C       -0.7993060    -1.5368490    -0.1403280
  C       -1.6389980     0.8445570     0.4478430
  C        1.8965050     0.8563820    -0.2511320
  C       -3.0139260     0.6977340    -0.2008490
  C        1.6197410     2.3450710    -0.0456480
  H       -0.4989150     0.2672930    -1.2933800
  H        0.7896660     0.1408860     1.4600880
  H       -1.3425120    -1.8245460     0.7655480
  H       -1.2523250    -2.0240820    -1.0064780
  H       -1.3288740     1.8959250     0.4270340
  H       -1.6941720     0.5567670     1.5060070
  H        2.8729810     0.5983550     0.1779310
  H        1.9538560     0.6259360    -1.3212150
  H       -2.9803430     0.9928380    -1.2542670
  H       -3.7577360     1.3235000     0.3006380
  H       -3.3631330    -0.3381970    -0.1530850
  H        0.6957430     2.6486760    -0.5454840
  H        2.4328210     2.9512940    -0.4556920
  H        1.5246440     2.5856330     1.0178510
units angstrom
no_reorient  #important for SAPT in psi4, default
symmetry c1  #important for SAPT in psi4, default
}

set PROPERTIES_ORIGIN ["COM"]
properties('MP2/aug-cc-pvtz', properties = ['dipole'])
--------------------------------------------------------------------------

    Molecular point group: c1
  Charge       = 0
  Multiplicity = 1
  Basis Set: AUG-CC-PVTZ
    Blend: AUG-CC-PVTZ
  Basis Set: (AUG-CC-PVTZ AUX)
    Blend: AUG-CC-PVTZ-JKFIT

    Orbital Energies [Eh]
    ---------------------

    Doubly Occupied:

       1A    -91.930351     2A    -11.261753     3A    -11.251345
       4A    -11.241776     5A    -11.226716     6A    -11.226706
       7A    -11.220679     8A    -11.219849     9A     -8.930025
      10A     -6.610789    11A     -6.610322    12A     -6.609199
      13A     -1.144074    14A     -1.057110    15A     -1.024149
      16A     -0.921157    17A     -0.905690    18A     -0.829665
      19A     -0.806708    20A     -0.754078    21A     -0.653047
      22A     -0.635375    23A     -0.602265    24A     -0.598411
      25A     -0.574370    26A     -0.556323    27A     -0.540313
      28A     -0.531360    29A     -0.522419    30A     -0.501943
      31A     -0.492992    32A     -0.475022    33A     -0.457515
      34A     -0.434714    35A     -0.375718    36A     -0.328760

  @DF-RHF Final Energy:  -670.84681675985155

   => Energetics <=

    Nuclear Repulsion Energy =            467.4617703312755452
    One-Electron Energy =               -1846.4917991785398499
    Two-Electron Energy =                 708.1832120874126986
    Total Energy =                       -670.8468167598515493
  Basis Set: (AUG-CC-PVTZ AUX)
    Blend: AUG-CC-PVTZ-RI
    Molecular point group: c1

    Geometry (in Angstrom), charge = 0, multiplicity = 1:

       Center              X                  Y                   Z               Mass
    ------------   -----------------  -----------------  -----------------  -----------------
         S            0.959683841944    -1.767134411702     0.037119946527    31.972071174400
         C           -0.628740158056     0.055405588298    -0.238755053473    12.000000000000
         C            0.781009341944     0.140793888298     0.389305846527    12.000000000000
         C           -0.843614158056    -1.466950411702    -0.144843053473    12.000000000000
         C           -1.683306158056     0.914455588298     0.443327946527    12.000000000000
         C            1.852196841944     0.926280588298    -0.255647053473    12.000000000000
         C           -3.058234158056     0.767632588298    -0.205364053473    12.000000000000
         C            1.575432841944     2.414969588298    -0.050163053473    12.000000000000
         H           -0.543223158056     0.337191588298    -1.297895053473     1.007825032230
         H            0.745357841944     0.210784588298     1.455572946527     1.007825032230
         H           -1.386820158056    -1.754647411702     0.761032946527     1.007825032230
         H           -1.296633158056    -1.954183411702    -1.010993053473     1.007825032230
         H           -1.373182158056     1.965823588298     0.422518946527     1.007825032230
         H           -1.738480158056     0.626665588298     1.501491946527     1.007825032230
         H            2.828672841944     0.668253588298     0.173415946527     1.007825032230
         H            1.909547841944     0.695834588298    -1.325730053473     1.007825032230
         H           -3.024651158056     1.062736588298    -1.258782053473     1.007825032230
         H           -3.802044158056     1.393398588298     0.296122946527     1.007825032230
         H           -3.407441158056    -0.268298411702    -0.157600053473     1.007825032230
         H            0.651434841944     2.718574588298    -0.549999053473     1.007825032230
         H            2.388512841944     3.021192588298    -0.460207053473     1.007825032230
         H            1.480335841944     2.655531588298     1.013335946527     1.007825032230

  Basis Set: AUG-CC-PVTZ
    Blend: AUG-CC-PVTZ
  Basis Set: (AUG-CC-PVTZ AUX)
    Blend: AUG-CC-PVTZ-JKFIT
	 Reference Energy          =    -670.8468167598515493 [Eh]
	 Singles Energy            =      -0.0000000000000000 [Eh]
	 Same-Spin Energy          =      -0.3560916247136595 [Eh]
	 Opposite-Spin Energy      =      -1.2400205602967476 [Eh]
	 Correlation Energy        =      -1.5961121850104070 [Eh]
	 Total Energy              =    -672.4429289448619329 [Eh]

	 ================> DF-SCS-MP2 Energies <==================
	-----------------------------------------------------------
	 SCS Same-Spin Scale       =       0.3333333333333333 [-]
	 SCS Opposite-Spin Scale   =       1.2000000000000000 [-]
	 SCS Same-Spin Energy      =      -0.1186972082378865 [Eh]
	 SCS Opposite-Spin Energy  =      -1.4880246723560970 [Eh]
	 SCS Correlation Energy    =      -1.6067218805939836 [Eh]
	 SCS Total Energy          =    -672.4535386404455721 [Eh]
	-----------------------------------------------------------

  Dipole Moment: [D]
     X:    -1.2248      Y:     1.9684      Z:     0.0429     Total:     2.3187

*** Psi4 exiting successfully. Buy a developer a beer!
