                               Psi4 1.3.2 release

  ==> Input File <==

--------------------------------------------------------------------------
#psi4
#
memory 32 gb

molecule  {
0 1
  S        1.0039920    -1.8370330     0.0416350
  C       -0.5559539     0.0293903    -0.2434111
  C        0.8344880    -0.0270290     0.3757450
  C       -0.7993060    -1.5368490    -0.1403280
  C       -1.6389980     0.8445570     0.4478430
  C        1.8965050     0.8563820    -0.2511320
  C       -3.0139260     0.6977340    -0.2008490
  C        1.6197410     2.3450710    -0.0456480
  H       -0.4989150     0.2672930    -1.2933800
  H        0.7896660     0.1408860     1.4600880
  H       -1.3425120    -1.8245460     0.7655480
  H       -1.2523250    -2.0240820    -1.0064780
  H       -1.3288740     1.8959250     0.4270340
  H       -1.6941720     0.5567670     1.5060070
  H        2.8729810     0.5983550     0.1779310
  H        1.9538560     0.6259360    -1.3212150
  H       -2.9803430     0.9928380    -1.2542670
  H       -3.7577360     1.3235000     0.3006380
  H       -3.3631330    -0.3381970    -0.1530850
  H        0.6957430     2.6486760    -0.5454840
  H        2.4328210     2.9512940    -0.4556920
  H        1.5246440     2.5856330     1.0178510
units angstrom
no_reorient  #important for SAPT in psi4, default
symmetry c1  #important for SAPT in psi4, default
}

set PROPERTIES_ORIGIN ["COM"]
properties('MP2/aug-cc-pvtz', properties = ['dipole'])
--------------------------------------------------------------------------

    Molecular point group: c1
  Charge       = 0
  Multiplicity = 1
  Basis Set: AUG-CC-PVTZ
    Blend: AUG-CC-PVTZ
  Basis Set: (AUG-CC-PVTZ AUX)
    Blend: AUG-CC-PVTZ-JKFIT

    Orbital Energies [Eh]
    ---------------------

    Doubly Occupied:

       1A    -91.934765     2A    -11.256794     3A    -11.253508
       4A    -11.238733     5A    -11.226982     6A    -11.224869
       7A    -11.220614     8A    -11.219579     9A     -8.935151
      10A     -6.615968    11A     -6.615605    12A     -6.614382
      13A     -1.146002    14A     -1.049931    15A     -1.025037
      16A     -0.917773    17A     -0.909728    18A     -0.830580
      19A     -0.807673    20A     -0.749442    21A     -0.647274
      22A     -0.633611    23A     -0.598846    24A     -0.597050
      25A     -0.570902    26A     -0.555649    27A     -0.539662
      28A     -0.531746    29A     -0.518681    30A     -0.500744
      31A     -0.485848    32A     -0.476933    33A     -0.456457
      34A     -0.434230    35A     -0.392472    36A     -0.330956

  @DF-RHF Final Energy:  -670.85114550697733

   => Energetics <=

    Nuclear Repulsion Energy =            468.0480883329585708
    One-Electron Energy =               -1847.6701151548422786
    Two-Electron Energy =                 708.7708813149064326
    Total Energy =                       -670.8511455069773319
  Basis Set: (AUG-CC-PVTZ AUX)
    Blend: AUG-CC-PVTZ-RI
    Molecular point group: c1

    Geometry (in Angstrom), charge = 0, multiplicity = 1:

       Center              X                  Y                   Z               Mass
    ------------   -----------------  -----------------  -----------------  -----------------
         S            0.956210767160    -1.762149141747     0.039633476078    31.972071174400
         C           -0.603735132840     0.104274158253    -0.245412623922    12.000000000000
         C            0.786706767160     0.047854858253     0.373743476078    12.000000000000
         C           -0.847087232840    -1.461965141747    -0.142329523922    12.000000000000
         C           -1.686779232840     0.919440858253     0.445841476078    12.000000000000
         C            1.848723767160     0.931265858253    -0.253133523922    12.000000000000
         C           -3.061707232840     0.772617858253    -0.202850523922    12.000000000000
         C            1.571959767160     2.419954858253    -0.047649523922    12.000000000000
         H           -0.546696232840     0.342176858253    -1.295381523922     1.007825032230
         H            0.741884767160     0.215769858253     1.458086476078     1.007825032230
         H           -1.390293232840    -1.749662141747     0.763546476078     1.007825032230
         H           -1.300106232840    -1.949198141747    -1.008479523922     1.007825032230
         H           -1.376655232840     1.970808858253     0.425032476078     1.007825032230
         H           -1.741953232840     0.631650858253     1.504005476078     1.007825032230
         H            2.825199767160     0.673238858253     0.175929476078     1.007825032230
         H            1.906074767160     0.700819858253    -1.323216523922     1.007825032230
         H           -3.028124232840     1.067721858253    -1.256268523922     1.007825032230
         H           -3.805517232840     1.398383858253     0.298636476078     1.007825032230
         H           -3.410914232840    -0.263313141747    -0.155086523922     1.007825032230
         H            0.647961767160     2.723559858253    -0.547485523922     1.007825032230
         H            2.385039767160     3.026177858253    -0.457693523922     1.007825032230
         H            1.476862767160     2.660516858253     1.015849476078     1.007825032230

  Basis Set: AUG-CC-PVTZ
    Blend: AUG-CC-PVTZ
  Basis Set: (AUG-CC-PVTZ AUX)
    Blend: AUG-CC-PVTZ-JKFIT
	 Reference Energy          =    -670.8511455069773319 [Eh]
	 Singles Energy            =      -0.0000000000000000 [Eh]
	 Same-Spin Energy          =      -0.3557678474080547 [Eh]
	 Opposite-Spin Energy      =      -1.2392945500238710 [Eh]
	 Correlation Energy        =      -1.5950623974319258 [Eh]
	 Total Energy              =    -672.4462079044092206 [Eh]

	 ================> DF-SCS-MP2 Energies <==================
	-----------------------------------------------------------
	 SCS Same-Spin Scale       =       0.3333333333333333 [-]
	 SCS Opposite-Spin Scale   =       1.2000000000000000 [-]
	 SCS Same-Spin Energy      =      -0.1185892824693516 [Eh]
	 SCS Opposite-Spin Energy  =      -1.4871534600286451 [Eh]
	 SCS Correlation Energy    =      -1.6057427424979966 [Eh]
	 SCS Total Energy          =    -672.4568882494753552 [Eh]
	-----------------------------------------------------------

  Dipole Moment: [D]
     X:    -1.2918      Y:     1.7779      Z:     0.0352     Total:     2.1980

*** Psi4 exiting successfully. Buy a developer a beer!
