                               Psi4 1.3.2 release

  ==> Input File <==

--------------------------------------------------------------------------
#psi4
#
memory 32 gb

molecule  {
0 1
  S        1.0039920    -1.8370330     0.0416350
  C       -0.6228008     0.0033993    -0.1350938
  C        0.8344880    -0.0270290     0.3757450
  C       -0.7993060    -1.5368490    -0.1403280
  C       -1.6389980     0.8445570     0.4478430
  C        1.8965050     0.8563820    -0.2511320
  C       -3.0139260     0.6977340    -0.2008490
  C        1.6197410     2.3450710    -0.0456480
  H       -0.4989150     0.2672930    -1.2933800
  H        0.7896660     0.1408860     1.4600880
  H       -1.3425120    -1.8245460     0.7655480
  H       -1.2523250    -2.0240820    -1.0064780
  H       -1.3288740     1.8959250     0.4270340
  H       -1.6941720     0.5567670     1.5060070
  H        2.8729810     0.5983550     0.1779310
  H        1.9538560     0.6259360    -1.3212150
  H       -2.9803430     0.9928380    -1.2542670
  H       -3.7577360     1.3235000     0.3006380
  H       -3.3631330    -0.3381970    -0.1530850
  H        0.6957430     2.6486760    -0.5454840
  H        2.4328210     2.9512940    -0.4556920
  H        1.5246440     2.5856330     1.0178510
units angstrom
no_reorient  #important for SAPT in psi4, default
symmetry c1  #important for SAPT in psi4, default
}

set PROPERTIES_ORIGIN ["COM"]
properties('MP2/aug-cc-pvtz', properties = ['dipole'])
--------------------------------------------------------------------------

    Molecular point group: c1
  Charge       = 0
  Multiplicity = 1
  Basis Set: AUG-CC-PVTZ
    Blend: AUG-CC-PVTZ
  Basis Set: (AUG-CC-PVTZ AUX)
    Blend: AUG-CC-PVTZ-JKFIT

    Orbital Energies [Eh]
    ---------------------

    Doubly Occupied:

       1A    -91.936322     2A    -11.258868     3A    -11.254326
       4A    -11.244121     5A    -11.226303     6A    -11.225036
       7A    -11.222139     8A    -11.219517     9A     -8.936652
      10A     -6.617506    11A     -6.617085    12A     -6.615872
      13A     -1.149930    14A     -1.057343    15A     -1.028972
      16A     -0.918939    17A     -0.914718    18A     -0.833242
      19A     -0.806591    20A     -0.737801    21A     -0.654923
      22A     -0.635010    23A     -0.604647    24A     -0.596472
      25A     -0.571500    26A     -0.562781    27A     -0.538383
      28A     -0.527270    29A     -0.518163    30A     -0.507370
      31A     -0.485154    32A     -0.460740    33A     -0.452395
      34A     -0.433017    35A     -0.401057    36A     -0.331165

  @DF-RHF Final Energy:  -670.83951132417087

   => Energetics <=

    Nuclear Repulsion Energy =            468.4567466215210061
    One-Electron Energy =               -1848.3898582783176607
    Two-Electron Energy =                 709.0936003326257833
    Total Energy =                       -670.8395113241708714
  Basis Set: (AUG-CC-PVTZ AUX)
    Blend: AUG-CC-PVTZ-RI
    Molecular point group: c1

    Geometry (in Angstrom), charge = 0, multiplicity = 1:

       Center              X                  Y                   Z               Mass
    ------------   -----------------  -----------------  -----------------  -----------------
         S            0.962377378476    -1.759751477910     0.029641229797    31.972071174400
         C           -0.664415421524     0.080680822090    -0.147087570203    12.000000000000
         C            0.792873378476     0.050252522090     0.363751229797    12.000000000000
         C           -0.840920621524    -1.459567477910    -0.152321770203    12.000000000000
         C           -1.680612621524     0.921838522090     0.435849229797    12.000000000000
         C            1.854890378476     0.933663522090    -0.263125770203    12.000000000000
         C           -3.055540621524     0.775015522090    -0.212842770203    12.000000000000
         C            1.578126378476     2.422352522090    -0.057641770203    12.000000000000
         H           -0.540529621524     0.344574522090    -1.305373770203     1.007825032230
         H            0.748051378476     0.218167522090     1.448094229797     1.007825032230
         H           -1.384126621524    -1.747264477910     0.753554229797     1.007825032230
         H           -1.293939621524    -1.946800477910    -1.018471770203     1.007825032230
         H           -1.370488621524     1.973206522090     0.415040229797     1.007825032230
         H           -1.735786621524     0.634048522090     1.494013229797     1.007825032230
         H            2.831366378476     0.675636522090     0.165937229797     1.007825032230
         H            1.912241378476     0.703217522090    -1.333208770203     1.007825032230
         H           -3.021957621524     1.070119522090    -1.266260770203     1.007825032230
         H           -3.799350621524     1.400781522090     0.288644229797     1.007825032230
         H           -3.404747621524    -0.260915477910    -0.165078770203     1.007825032230
         H            0.654128378476     2.725957522090    -0.557477770203     1.007825032230
         H            2.391206378476     3.028575522090    -0.467685770203     1.007825032230
         H            1.483029378476     2.662914522090     1.005857229797     1.007825032230

  Basis Set: AUG-CC-PVTZ
    Blend: AUG-CC-PVTZ
  Basis Set: (AUG-CC-PVTZ AUX)
    Blend: AUG-CC-PVTZ-JKFIT
	 Reference Energy          =    -670.8395113241708714 [Eh]
	 Singles Energy            =      -0.0000000000000000 [Eh]
	 Same-Spin Energy          =      -0.3568375016739870 [Eh]
	 Opposite-Spin Energy      =      -1.2407371933047375 [Eh]
	 Correlation Energy        =      -1.5975746949787246 [Eh]
	 Total Energy              =    -672.4370860191495467 [Eh]

	 ================> DF-SCS-MP2 Energies <==================
	-----------------------------------------------------------
	 SCS Same-Spin Scale       =       0.3333333333333333 [-]
	 SCS Opposite-Spin Scale   =       1.2000000000000000 [-]
	 SCS Same-Spin Energy      =      -0.1189458338913290 [Eh]
	 SCS Opposite-Spin Energy  =      -1.4888846319656850 [Eh]
	 SCS Correlation Energy    =      -1.6078304658570139 [Eh]
	 SCS Total Energy          =    -672.4473417900278491 [Eh]
	-----------------------------------------------------------

  Dipole Moment: [D]
     X:    -1.3030      Y:     1.7764      Z:     0.1094     Total:     2.2057

*** Psi4 exiting successfully. Buy a developer a beer!
