                               Psi4 1.3.2 release

  ==> Input File <==

--------------------------------------------------------------------------
#psi4
#
memory 32 gb

molecule  {
0 1
  S        1.0039920    -1.8370330     0.0416350
  C       -0.6452064    -0.0990675    -0.2134169
  C        0.8344880    -0.0270290     0.3757450
  C       -0.7993060    -1.5368490    -0.1403280
  C       -1.6389980     0.8445570     0.4478430
  C        1.8965050     0.8563820    -0.2511320
  C       -3.0139260     0.6977340    -0.2008490
  C        1.6197410     2.3450710    -0.0456480
  H       -0.4989150     0.2672930    -1.2933800
  H        0.7896660     0.1408860     1.4600880
  H       -1.3425120    -1.8245460     0.7655480
  H       -1.2523250    -2.0240820    -1.0064780
  H       -1.3288740     1.8959250     0.4270340
  H       -1.6941720     0.5567670     1.5060070
  H        2.8729810     0.5983550     0.1779310
  H        1.9538560     0.6259360    -1.3212150
  H       -2.9803430     0.9928380    -1.2542670
  H       -3.7577360     1.3235000     0.3006380
  H       -3.3631330    -0.3381970    -0.1530850
  H        0.6957430     2.6486760    -0.5454840
  H        2.4328210     2.9512940    -0.4556920
  H        1.5246440     2.5856330     1.0178510
units angstrom
no_reorient  #important for SAPT in psi4, default
symmetry c1  #important for SAPT in psi4, default
}

set PROPERTIES_ORIGIN ["COM"]
properties('MP2/aug-cc-pvtz', properties = ['dipole'])
--------------------------------------------------------------------------

    Molecular point group: c1
  Charge       = 0
  Multiplicity = 1
  Basis Set: AUG-CC-PVTZ
    Blend: AUG-CC-PVTZ
  Basis Set: (AUG-CC-PVTZ AUX)
    Blend: AUG-CC-PVTZ-JKFIT

    Orbital Energies [Eh]
    ---------------------

    Doubly Occupied:

       1A    -91.935606     2A    -11.258277     3A    -11.250127
       4A    -11.241404     5A    -11.227650     6A    -11.226758
       7A    -11.219577     8A    -11.219234     9A     -8.936071
      10A     -6.616860    11A     -6.616519    12A     -6.615263
      13A     -1.152786    14A     -1.052694    15A     -1.029719
      16A     -0.922908    17A     -0.904846    18A     -0.837003
      19A     -0.801692    20A     -0.741388    21A     -0.655161
      22A     -0.631117    23A     -0.607485    24A     -0.598011
      25A     -0.571376    26A     -0.558075    27A     -0.541565
      28A     -0.526632    29A     -0.518424    30A     -0.504306
      31A     -0.484994    32A     -0.468575    33A     -0.457620
      34A     -0.437602    35A     -0.388266    36A     -0.331096

  @DF-RHF Final Energy:  -670.84201254839468

   => Energetics <=

    Nuclear Repulsion Energy =            468.3332100784223826
    One-Electron Energy =               -1848.1770737170850225
    Two-Electron Energy =                 709.0018510902680191
    Total Energy =                       -670.8420125483946777
  Basis Set: (AUG-CC-PVTZ AUX)
    Blend: AUG-CC-PVTZ-RI
    Molecular point group: c1

    Geometry (in Angstrom), charge = 0, multiplicity = 1:

       Center              X                  Y                   Z               Mass
    ------------   -----------------  -----------------  -----------------  -----------------
         S            0.964444289979    -1.750298938922     0.036866517952    31.972071174400
         C           -0.684754110021    -0.012333438922    -0.218185382048    12.000000000000
         C            0.794940289979     0.059705061078     0.370976517952    12.000000000000
         C           -0.838853710021    -1.450114938922    -0.145096482048    12.000000000000
         C           -1.678545710021     0.931291061078     0.443074517952    12.000000000000
         C            1.856957289979     0.943116061078    -0.255900482048    12.000000000000
         C           -3.053473710021     0.784468061078    -0.205617482048    12.000000000000
         C            1.580193289979     2.431805061078    -0.050416482048    12.000000000000
         H           -0.538462710021     0.354027061078    -1.298148482048     1.007825032230
         H            0.750118289979     0.227620061078     1.455319517952     1.007825032230
         H           -1.382059710021    -1.737811938922     0.760779517952     1.007825032230
         H           -1.291872710021    -1.937347938922    -1.011246482048     1.007825032230
         H           -1.368421710021     1.982659061078     0.422265517952     1.007825032230
         H           -1.733719710021     0.643501061078     1.501238517952     1.007825032230
         H            2.833433289979     0.685089061078     0.173162517952     1.007825032230
         H            1.914308289979     0.712670061078    -1.325983482048     1.007825032230
         H           -3.019890710021     1.079572061078    -1.259035482048     1.007825032230
         H           -3.797283710021     1.410234061078     0.295869517952     1.007825032230
         H           -3.402680710021    -0.251462938922    -0.157853482048     1.007825032230
         H            0.656195289979     2.735410061078    -0.550252482048     1.007825032230
         H            2.393273289979     3.038028061078    -0.460460482048     1.007825032230
         H            1.485096289979     2.672367061078     1.013082517952     1.007825032230

  Basis Set: AUG-CC-PVTZ
    Blend: AUG-CC-PVTZ
  Basis Set: (AUG-CC-PVTZ AUX)
    Blend: AUG-CC-PVTZ-JKFIT
	 Reference Energy          =    -670.8420125483946777 [Eh]
	 Singles Energy            =      -0.0000000000000000 [Eh]
	 Same-Spin Energy          =      -0.3565060121708861 [Eh]
	 Opposite-Spin Energy      =      -1.2402131862579577 [Eh]
	 Correlation Energy        =      -1.5967191984288438 [Eh]
	 Total Energy              =    -672.4387317468235779 [Eh]

	 ================> DF-SCS-MP2 Energies <==================
	-----------------------------------------------------------
	 SCS Same-Spin Scale       =       0.3333333333333333 [-]
	 SCS Opposite-Spin Scale   =       1.2000000000000000 [-]
	 SCS Same-Spin Energy      =      -0.1188353373902954 [Eh]
	 SCS Opposite-Spin Energy  =      -1.4882558235095493 [Eh]
	 SCS Correlation Energy    =      -1.6070911608998446 [Eh]
	 SCS Total Energy          =    -672.4491037092944907 [Eh]
	-----------------------------------------------------------

  Dipole Moment: [D]
     X:    -1.2360      Y:     1.7793      Z:     0.0712     Total:     2.1676

*** Psi4 exiting successfully. Buy a developer a beer!
