                               Psi4 1.3.2 release

  ==> Input File <==

--------------------------------------------------------------------------
#psi4
#
memory 32 gb

molecule  {
0 1
  S        1.0039920    -1.8370330     0.0416350
  C       -0.5287953     0.0742667    -0.2517400
  C        0.8344880    -0.0270290     0.3757450
  C       -0.7993060    -1.5368490    -0.1403280
  C       -1.6389980     0.8445570     0.4478430
  C        1.8965050     0.8563820    -0.2511320
  C       -3.0139260     0.6977340    -0.2008490
  C        1.6197410     2.3450710    -0.0456480
  H       -0.4989150     0.2672930    -1.2933800
  H        0.7896660     0.1408860     1.4600880
  H       -1.3425120    -1.8245460     0.7655480
  H       -1.2523250    -2.0240820    -1.0064780
  H       -1.3288740     1.8959250     0.4270340
  H       -1.6941720     0.5567670     1.5060070
  H        2.8729810     0.5983550     0.1779310
  H        1.9538560     0.6259360    -1.3212150
  H       -2.9803430     0.9928380    -1.2542670
  H       -3.7577360     1.3235000     0.3006380
  H       -3.3631330    -0.3381970    -0.1530850
  H        0.6957430     2.6486760    -0.5454840
  H        2.4328210     2.9512940    -0.4556920
  H        1.5246440     2.5856330     1.0178510
units angstrom
no_reorient  #important for SAPT in psi4, default
symmetry c1  #important for SAPT in psi4, default
}

set PROPERTIES_ORIGIN ["COM"]
properties('MP2/aug-cc-pvtz', properties = ['dipole'])
--------------------------------------------------------------------------

    Molecular point group: c1
  Charge       = 0
  Multiplicity = 1
  Basis Set: AUG-CC-PVTZ
    Blend: AUG-CC-PVTZ
  Basis Set: (AUG-CC-PVTZ AUX)
    Blend: AUG-CC-PVTZ-JKFIT

    Orbital Energies [Eh]
    ---------------------

    Doubly Occupied:

       1A    -91.934690     2A    -11.256687     3A    -11.253990
       4A    -11.239401     5A    -11.227538     6A    -11.224284
       7A    -11.221198     8A    -11.219686     9A     -8.935013
      10A     -6.615842    11A     -6.615463    12A     -6.614254
      13A     -1.144890    14A     -1.049384    15A     -1.023711
      16A     -0.919642    17A     -0.908676    18A     -0.828920
      19A     -0.809471    20A     -0.752121    21A     -0.644790
      22A     -0.635105    23A     -0.597696    24A     -0.596220
      25A     -0.571125    26A     -0.555758    27A     -0.540933
      28A     -0.532488    29A     -0.518476    30A     -0.499314
      31A     -0.487268    32A     -0.480283    33A     -0.454457
      34A     -0.434153    35A     -0.387213    36A     -0.330555

  @DF-RHF Final Energy:  -670.84418407880457

   => Energetics <=

    Nuclear Repulsion Energy =            467.9190906636614500
    One-Electron Energy =               -1847.4051633595845487
    Two-Electron Energy =                 708.6418886171186386
    Total Energy =                       -670.8441840788045738
  Basis Set: (AUG-CC-PVTZ AUX)
    Blend: AUG-CC-PVTZ-RI
    Molecular point group: c1

    Geometry (in Angstrom), charge = 0, multiplicity = 1:

       Center              X                  Y                   Z               Mass
    ------------   -----------------  -----------------  -----------------  -----------------
         S            0.953705392489    -1.766288979437     0.040401815208    31.972071174400
         C           -0.579081907511     0.145010720563    -0.252973184792    12.000000000000
         C            0.784201392489     0.043715020563     0.374511815208    12.000000000000
         C           -0.849592607511    -1.466104979437    -0.141561184792    12.000000000000
         C           -1.689284607511     0.915301020563     0.446609815208    12.000000000000
         C            1.846218392489     0.927126020563    -0.252365184792    12.000000000000
         C           -3.064212607511     0.768478020563    -0.202082184792    12.000000000000
         C            1.569454392489     2.415815020563    -0.046881184792    12.000000000000
         H           -0.549201607511     0.338037020563    -1.294613184792     1.007825032230
         H            0.739379392489     0.211630020563     1.458854815208     1.007825032230
         H           -1.392798607511    -1.753801979437     0.764314815208     1.007825032230
         H           -1.302611607511    -1.953337979437    -1.007711184792     1.007825032230
         H           -1.379160607511     1.966669020563     0.425800815208     1.007825032230
         H           -1.744458607511     0.627511020563     1.504773815208     1.007825032230
         H            2.822694392489     0.669099020563     0.176697815208     1.007825032230
         H            1.903569392489     0.696680020563    -1.322448184792     1.007825032230
         H           -3.030629607511     1.063582020563    -1.255500184792     1.007825032230
         H           -3.808022607511     1.394244020563     0.299404815208     1.007825032230
         H           -3.413419607511    -0.267452979437    -0.154318184792     1.007825032230
         H            0.645456392489     2.719420020563    -0.546717184792     1.007825032230
         H            2.382534392489     3.022038020563    -0.456925184792     1.007825032230
         H            1.474357392489     2.656377020563     1.016617815208     1.007825032230

  Basis Set: AUG-CC-PVTZ
    Blend: AUG-CC-PVTZ
  Basis Set: (AUG-CC-PVTZ AUX)
    Blend: AUG-CC-PVTZ-JKFIT
	 Reference Energy          =    -670.8441840788045738 [Eh]
	 Singles Energy            =      -0.0000000000000000 [Eh]
	 Same-Spin Energy          =      -0.3559969710510059 [Eh]
	 Opposite-Spin Energy      =      -1.2398943021468942 [Eh]
	 Correlation Energy        =      -1.5958912731979003 [Eh]
	 Total Energy              =    -672.4400753520025091 [Eh]

	 ================> DF-SCS-MP2 Energies <==================
	-----------------------------------------------------------
	 SCS Same-Spin Scale       =       0.3333333333333333 [-]
	 SCS Opposite-Spin Scale   =       1.2000000000000000 [-]
	 SCS Same-Spin Energy      =      -0.1186656570170020 [Eh]
	 SCS Opposite-Spin Energy  =      -1.4878731625762731 [Eh]
	 SCS Correlation Energy    =      -1.6065388195932750 [Eh]
	 SCS Total Energy          =    -672.4507228983978848 [Eh]
	-----------------------------------------------------------

  Dipole Moment: [D]
     X:    -1.3075      Y:     1.7818      Z:     0.0305     Total:     2.2102

*** Psi4 exiting successfully. Buy a developer a beer!
