                               Psi4 1.3.2 release

  ==> Input File <==

--------------------------------------------------------------------------
#psi4
#
memory 32 gb

molecule  {
0 1
  S        1.0039920    -1.8370330     0.0416350
  C       -0.5844320    -0.0144930    -0.2342400
  C        0.9177281    -0.1510545     0.3218752
  C       -0.7993060    -1.5368490    -0.1403280
  C       -1.6389980     0.8445570     0.4478430
  C        1.8965050     0.8563820    -0.2511320
  C       -3.0139260     0.6977340    -0.2008490
  C        1.6197410     2.3450710    -0.0456480
  H       -0.4989150     0.2672930    -1.2933800
  H        0.7896660     0.1408860     1.4600880
  H       -1.3425120    -1.8245460     0.7655480
  H       -1.2523250    -2.0240820    -1.0064780
  H       -1.3288740     1.8959250     0.4270340
  H       -1.6941720     0.5567670     1.5060070
  H        2.8729810     0.5983550     0.1779310
  H        1.9538560     0.6259360    -1.3212150
  H       -2.9803430     0.9928380    -1.2542670
  H       -3.7577360     1.3235000     0.3006380
  H       -3.3631330    -0.3381970    -0.1530850
  H        0.6957430     2.6486760    -0.5454840
  H        2.4328210     2.9512940    -0.4556920
  H        1.5246440     2.5856330     1.0178510
units angstrom
no_reorient  #important for SAPT in psi4, default
symmetry c1  #important for SAPT in psi4, default
}

set PROPERTIES_ORIGIN ["COM"]
properties('MP2/aug-cc-pvtz', properties = ['dipole'])
--------------------------------------------------------------------------

    Molecular point group: c1
  Charge       = 0
  Multiplicity = 1
  Basis Set: AUG-CC-PVTZ
    Blend: AUG-CC-PVTZ
  Basis Set: (AUG-CC-PVTZ AUX)
    Blend: AUG-CC-PVTZ-JKFIT

    Orbital Energies [Eh]
    ---------------------

    Doubly Occupied:

       1A    -91.938802     2A    -11.258263     3A    -11.254686
       4A    -11.239655     5A    -11.227768     6A    -11.224143
       7A    -11.221071     8A    -11.220925     9A     -8.941204
      10A     -6.622314    11A     -6.621731    12A     -6.620445
      13A     -1.152535    14A     -1.051144    15A     -1.029969
      16A     -0.925341    17A     -0.907106    18A     -0.840908
      19A     -0.801331    20A     -0.731018    21A     -0.647060
      22A     -0.629253    23A     -0.601374    24A     -0.597818
      25A     -0.575654    26A     -0.552608    27A     -0.541504
      28A     -0.526608    29A     -0.516459    30A     -0.503222
      31A     -0.480113    32A     -0.476620    33A     -0.465361
      34A     -0.432611    35A     -0.395484    36A     -0.328798

  @DF-RHF Final Energy:  -670.83285181654173

   => Energetics <=

    Nuclear Repulsion Energy =            468.9070487546937329
    One-Electron Energy =               -1849.2779907165927398
    Two-Electron Energy =                 709.5380901453572733
    Total Energy =                       -670.8328518165417336
  Basis Set: (AUG-CC-PVTZ AUX)
    Blend: AUG-CC-PVTZ-RI
    Molecular point group: c1

    Geometry (in Angstrom), charge = 0, multiplicity = 1:

       Center              X                  Y                   Z               Mass
    ------------   -----------------  -----------------  -----------------  -----------------
         S            0.951158985119    -1.746659593148     0.043756920984    31.972071174400
         C           -0.637265014881     0.075880406852    -0.232118079016    12.000000000000
         C            0.864895085119    -0.060681093148     0.323997120984    12.000000000000
         C           -0.852139014881    -1.446475593148    -0.138206079016    12.000000000000
         C           -1.691831014881     0.934930406852     0.449964920984    12.000000000000
         C            1.843671985119     0.946755406852    -0.249010079016    12.000000000000
         C           -3.066759014881     0.788107406852    -0.198727079016    12.000000000000
         C            1.566907985119     2.435444406852    -0.043526079016    12.000000000000
         H           -0.551748014881     0.357666406852    -1.291258079016     1.007825032230
         H            0.736832985119     0.231259406852     1.462209920984     1.007825032230
         H           -1.395345014881    -1.734172593148     0.767669920984     1.007825032230
         H           -1.305158014881    -1.933708593148    -1.004356079016     1.007825032230
         H           -1.381707014881     1.986298406852     0.429155920984     1.007825032230
         H           -1.747005014881     0.647140406852     1.508128920984     1.007825032230
         H            2.820147985119     0.688728406852     0.180052920984     1.007825032230
         H            1.901022985119     0.716309406852    -1.319093079016     1.007825032230
         H           -3.033176014881     1.083211406852    -1.252145079016     1.007825032230
         H           -3.810569014881     1.413873406852     0.302759920984     1.007825032230
         H           -3.415966014881    -0.247823593148    -0.150963079016     1.007825032230
         H            0.642909985119     2.739049406852    -0.543362079016     1.007825032230
         H            2.379987985119     3.041667406852    -0.453570079016     1.007825032230
         H            1.471810985119     2.676006406852     1.019972920984     1.007825032230

  Basis Set: AUG-CC-PVTZ
    Blend: AUG-CC-PVTZ
  Basis Set: (AUG-CC-PVTZ AUX)
    Blend: AUG-CC-PVTZ-JKFIT
	 Reference Energy          =    -670.8328518165417336 [Eh]
	 Singles Energy            =      -0.0000000000000000 [Eh]
	 Same-Spin Energy          =      -0.3568371688031098 [Eh]
	 Opposite-Spin Energy      =      -1.2405320038751595 [Eh]
	 Correlation Energy        =      -1.5973691726782693 [Eh]
	 Total Energy              =    -672.4302209892199471 [Eh]

	 ================> DF-SCS-MP2 Energies <==================
	-----------------------------------------------------------
	 SCS Same-Spin Scale       =       0.3333333333333333 [-]
	 SCS Opposite-Spin Scale   =       1.2000000000000000 [-]
	 SCS Same-Spin Energy      =      -0.1189457229343699 [Eh]
	 SCS Opposite-Spin Energy  =      -1.4886384046501913 [Eh]
	 SCS Correlation Energy    =      -1.6075841275845613 [Eh]
	 SCS Total Energy          =    -672.4404359441263068 [Eh]
	-----------------------------------------------------------

  Dipole Moment: [D]
     X:    -1.3545      Y:     1.5898      Z:    -0.0119     Total:     2.0886

*** Psi4 exiting successfully. Buy a developer a beer!
