                               Psi4 1.3.2 release

  ==> Input File <==

--------------------------------------------------------------------------
#psi4
#
memory 32 gb

molecule  {
0 1
  S        1.0039920    -1.8370330     0.0416350
  C       -0.5844320    -0.0144930    -0.2342400
  C        0.8356600    -0.0002407     0.3729737
  C       -0.7993060    -1.5368490    -0.1403280
  C       -1.6389980     0.8445570     0.4478430
  C        1.8965050     0.8563820    -0.2511320
  C       -3.0139260     0.6977340    -0.2008490
  C        1.6197410     2.3450710    -0.0456480
  H       -0.4989150     0.2672930    -1.2933800
  H        0.7896660     0.1408860     1.4600880
  H       -1.3425120    -1.8245460     0.7655480
  H       -1.2523250    -2.0240820    -1.0064780
  H       -1.3288740     1.8959250     0.4270340
  H       -1.6941720     0.5567670     1.5060070
  H        2.8729810     0.5983550     0.1779310
  H        1.9538560     0.6259360    -1.3212150
  H       -2.9803430     0.9928380    -1.2542670
  H       -3.7577360     1.3235000     0.3006380
  H       -3.3631330    -0.3381970    -0.1530850
  H        0.6957430     2.6486760    -0.5454840
  H        2.4328210     2.9512940    -0.4556920
  H        1.5246440     2.5856330     1.0178510
units angstrom
no_reorient  #important for SAPT in psi4, default
symmetry c1  #important for SAPT in psi4, default
}

set PROPERTIES_ORIGIN ["COM"]
properties('MP2/aug-cc-pvtz', properties = ['dipole'])
--------------------------------------------------------------------------

    Molecular point group: c1
  Charge       = 0
  Multiplicity = 1
  Basis Set: AUG-CC-PVTZ
    Blend: AUG-CC-PVTZ
  Basis Set: (AUG-CC-PVTZ AUX)
    Blend: AUG-CC-PVTZ-JKFIT

    Orbital Energies [Eh]
    ---------------------

    Doubly Occupied:

       1A    -91.934033     2A    -11.258325     3A    -11.252361
       4A    -11.239570     5A    -11.226806     6A    -11.225465
       7A    -11.220052     8A    -11.219875     9A     -8.934207
      10A     -6.614999    11A     -6.614622    12A     -6.613419
      13A     -1.146582    14A     -1.052764    15A     -1.026107
      16A     -0.918705    17A     -0.908402    18A     -0.832004
      19A     -0.806155    20A     -0.747561    21A     -0.650839
      22A     -0.633133    23A     -0.601763    24A     -0.597475
      25A     -0.571284    26A     -0.556379    27A     -0.539896
      28A     -0.530241    29A     -0.519833    30A     -0.502240
      31A     -0.486943    32A     -0.472381    33A     -0.458216
      34A     -0.436325    35A     -0.389713    36A     -0.330754

  @DF-RHF Final Energy:  -670.85293180476606

   => Energetics <=

    Nuclear Repulsion Energy =            468.0108886480286401
    One-Electron Energy =               -1847.5887821879919102
    Two-Electron Energy =                 708.7249617351972120
    Total Energy =                       -670.8529318047660581
  Basis Set: (AUG-CC-PVTZ AUX)
    Blend: AUG-CC-PVTZ-RI
    Molecular point group: c1

    Geometry (in Angstrom), charge = 0, multiplicity = 1:

       Center              X                  Y                   Z               Mass
    ------------   -----------------  -----------------  -----------------  -----------------
         S            0.958729748672    -1.760572131886     0.039043095984    31.972071174400
         C           -0.629694251328     0.061967868114    -0.236831904016    12.000000000000
         C            0.790397748672     0.076220168114     0.370381795984    12.000000000000
         C           -0.844568251328    -1.460388131886    -0.142919904016    12.000000000000
         C           -1.684260251328     0.921017868114     0.445251095984    12.000000000000
         C            1.851242748672     0.932842868114    -0.253723904016    12.000000000000
         C           -3.059188251328     0.774194868114    -0.203440904016    12.000000000000
         C            1.574478748672     2.421531868114    -0.048239904016    12.000000000000
         H           -0.544177251328     0.343753868114    -1.295971904016     1.007825032230
         H            0.744403748672     0.217346868114     1.457496095984     1.007825032230
         H           -1.387774251328    -1.748085131886     0.762956095984     1.007825032230
         H           -1.297587251328    -1.947621131886    -1.009069904016     1.007825032230
         H           -1.374136251328     1.972385868114     0.424442095984     1.007825032230
         H           -1.739434251328     0.633227868114     1.503415095984     1.007825032230
         H            2.827718748672     0.674815868114     0.175339095984     1.007825032230
         H            1.908593748672     0.702396868114    -1.323806904016     1.007825032230
         H           -3.025605251328     1.069298868114    -1.256858904016     1.007825032230
         H           -3.802998251328     1.399960868114     0.298046095984     1.007825032230
         H           -3.408395251328    -0.261736131886    -0.155676904016     1.007825032230
         H            0.650480748672     2.725136868114    -0.548075904016     1.007825032230
         H            2.387558748672     3.027754868114    -0.458283904016     1.007825032230
         H            1.479381748672     2.662093868114     1.015259095984     1.007825032230

  Basis Set: AUG-CC-PVTZ
    Blend: AUG-CC-PVTZ
  Basis Set: (AUG-CC-PVTZ AUX)
    Blend: AUG-CC-PVTZ-JKFIT
	 Reference Energy          =    -670.8529318047660581 [Eh]
	 Singles Energy            =      -0.0000000000000000 [Eh]
	 Same-Spin Energy          =      -0.3558437333902393 [Eh]
	 Opposite-Spin Energy      =      -1.2393135291263717 [Eh]
	 Correlation Energy        =      -1.5951572625166111 [Eh]
	 Total Energy              =    -672.4480890672826945 [Eh]

	 ================> DF-SCS-MP2 Energies <==================
	-----------------------------------------------------------
	 SCS Same-Spin Scale       =       0.3333333333333333 [-]
	 SCS Opposite-Spin Scale   =       1.2000000000000000 [-]
	 SCS Same-Spin Energy      =      -0.1186145777967464 [Eh]
	 SCS Opposite-Spin Energy  =      -1.4871762349516460 [Eh]
	 SCS Correlation Energy    =      -1.6057908127483924 [Eh]
	 SCS Total Energy          =    -672.4587226175144679 [Eh]
	-----------------------------------------------------------

  Dipole Moment: [D]
     X:    -1.2599      Y:     1.8276      Z:     0.0408     Total:     2.2201

*** Psi4 exiting successfully. Buy a developer a beer!
