                               Psi4 1.3.2 release

  ==> Input File <==

--------------------------------------------------------------------------
#psi4
#
memory 32 gb

molecule  {
0 1
  S        1.0039920    -1.8370330     0.0416350
  C       -0.5844320    -0.0144930    -0.2342400
  C        0.8261591    -0.0099597     0.3948745
  C       -0.7993060    -1.5368490    -0.1403280
  C       -1.6389980     0.8445570     0.4478430
  C        1.8965050     0.8563820    -0.2511320
  C       -3.0139260     0.6977340    -0.2008490
  C        1.6197410     2.3450710    -0.0456480
  H       -0.4989150     0.2672930    -1.2933800
  H        0.7896660     0.1408860     1.4600880
  H       -1.3425120    -1.8245460     0.7655480
  H       -1.2523250    -2.0240820    -1.0064780
  H       -1.3288740     1.8959250     0.4270340
  H       -1.6941720     0.5567670     1.5060070
  H        2.8729810     0.5983550     0.1779310
  H        1.9538560     0.6259360    -1.3212150
  H       -2.9803430     0.9928380    -1.2542670
  H       -3.7577360     1.3235000     0.3006380
  H       -3.3631330    -0.3381970    -0.1530850
  H        0.6957430     2.6486760    -0.5454840
  H        2.4328210     2.9512940    -0.4556920
  H        1.5246440     2.5856330     1.0178510
units angstrom
no_reorient  #important for SAPT in psi4, default
symmetry c1  #important for SAPT in psi4, default
}

set PROPERTIES_ORIGIN ["COM"]
properties('MP2/aug-cc-pvtz', properties = ['dipole'])
--------------------------------------------------------------------------

    Molecular point group: c1
  Charge       = 0
  Multiplicity = 1
  Basis Set: AUG-CC-PVTZ
    Blend: AUG-CC-PVTZ
  Basis Set: (AUG-CC-PVTZ AUX)
    Blend: AUG-CC-PVTZ-JKFIT

    Orbital Energies [Eh]
    ---------------------

    Doubly Occupied:

       1A    -91.934105     2A    -11.257145     3A    -11.252317
       4A    -11.239292     5A    -11.226601     6A    -11.226101
       7A    -11.219914     8A    -11.219405     9A     -8.934329
      10A     -6.615123    11A     -6.614750    12A     -6.613540
      13A     -1.146303    14A     -1.050584    15A     -1.025711
      16A     -0.918108    17A     -0.908339    18A     -0.831330
      19A     -0.805673    20A     -0.750685    21A     -0.649896
      22A     -0.632760    23A     -0.600909    24A     -0.597108
      25A     -0.571835    26A     -0.555739    27A     -0.539587
      28A     -0.531013    29A     -0.518766    30A     -0.501731
      31A     -0.486996    32A     -0.473554    33A     -0.458327
      34A     -0.434200    35A     -0.391220    36A     -0.330939

  @DF-RHF Final Energy:  -670.85308172168720

   => Energetics <=

    Nuclear Repulsion Energy =            467.9255273912141888
    One-Electron Energy =               -1847.4293539076916204
    Two-Electron Energy =                 708.6507447947901710
    Total Energy =                       -670.8530817216872038
  Basis Set: (AUG-CC-PVTZ AUX)
    Blend: AUG-CC-PVTZ-RI
    Molecular point group: c1

    Geometry (in Angstrom), charge = 0, multiplicity = 1:

       Center              X                  Y                   Z               Mass
    ------------   -----------------  -----------------  -----------------  -----------------
         S            0.959606204536    -1.759675556347     0.037022752167    31.972071174400
         C           -0.628817795464     0.062864443653    -0.238852247833    12.000000000000
         C            0.781773304536     0.067397743653     0.390262252167    12.000000000000
         C           -0.843691795464    -1.459491556347    -0.144940247833    12.000000000000
         C           -1.683383795464     0.921914443653     0.443230752167    12.000000000000
         C            1.852119204536     0.933739443653    -0.255744247833    12.000000000000
         C           -3.058311795464     0.775091443653    -0.205461247833    12.000000000000
         C            1.575355204536     2.422428443653    -0.050260247833    12.000000000000
         H           -0.543300795464     0.344650443653    -1.297992247833     1.007825032230
         H            0.745280204536     0.218243443653     1.455475752167     1.007825032230
         H           -1.386897795464    -1.747188556347     0.760935752167     1.007825032230
         H           -1.296710795464    -1.946724556347    -1.011090247833     1.007825032230
         H           -1.373259795464     1.973282443653     0.422421752167     1.007825032230
         H           -1.738557795464     0.634124443653     1.501394752167     1.007825032230
         H            2.828595204536     0.675712443653     0.173318752167     1.007825032230
         H            1.909470204536     0.703293443653    -1.325827247833     1.007825032230
         H           -3.024728795464     1.070195443653    -1.258879247833     1.007825032230
         H           -3.802121795464     1.400857443653     0.296025752167     1.007825032230
         H           -3.407518795464    -0.260839556347    -0.157697247833     1.007825032230
         H            0.651357204536     2.726033443653    -0.550096247833     1.007825032230
         H            2.388435204536     3.028651443653    -0.460304247833     1.007825032230
         H            1.480258204536     2.662990443653     1.013238752167     1.007825032230

  Basis Set: AUG-CC-PVTZ
    Blend: AUG-CC-PVTZ
  Basis Set: (AUG-CC-PVTZ AUX)
    Blend: AUG-CC-PVTZ-JKFIT
	 Reference Energy          =    -670.8530817216872038 [Eh]
	 Singles Energy            =      -0.0000000000000000 [Eh]
	 Same-Spin Energy          =      -0.3556686750605930 [Eh]
	 Opposite-Spin Energy      =      -1.2391404256103407 [Eh]
	 Correlation Energy        =      -1.5948091006709335 [Eh]
	 Total Energy              =    -672.4478908223580902 [Eh]

	 ================> DF-SCS-MP2 Energies <==================
	-----------------------------------------------------------
	 SCS Same-Spin Scale       =       0.3333333333333333 [-]
	 SCS Opposite-Spin Scale   =       1.2000000000000000 [-]
	 SCS Same-Spin Energy      =      -0.1185562250201977 [Eh]
	 SCS Opposite-Spin Energy  =      -1.4869685107324087 [Eh]
	 SCS Correlation Energy    =      -1.6055247357526063 [Eh]
	 SCS Total Energy          =    -672.4586064574398279 [Eh]
	-----------------------------------------------------------

  Dipole Moment: [D]
     X:    -1.2651      Y:     1.8087      Z:     0.0503     Total:     2.2079

*** Psi4 exiting successfully. Buy a developer a beer!
