                               Psi4 1.3.2 release

  ==> Input File <==

--------------------------------------------------------------------------
#psi4
#
memory 32 gb

molecule  {
0 1
  S        1.0039920    -1.8370330     0.0416350
  C       -0.5844320    -0.0144930    -0.2342400
  C        0.8436585    -0.1249533     0.3576691
  C       -0.7993060    -1.5368490    -0.1403280
  C       -1.6389980     0.8445570     0.4478430
  C        1.8965050     0.8563820    -0.2511320
  C       -3.0139260     0.6977340    -0.2008490
  C        1.6197410     2.3450710    -0.0456480
  H       -0.4989150     0.2672930    -1.2933800
  H        0.7896660     0.1408860     1.4600880
  H       -1.3425120    -1.8245460     0.7655480
  H       -1.2523250    -2.0240820    -1.0064780
  H       -1.3288740     1.8959250     0.4270340
  H       -1.6941720     0.5567670     1.5060070
  H        2.8729810     0.5983550     0.1779310
  H        1.9538560     0.6259360    -1.3212150
  H       -2.9803430     0.9928380    -1.2542670
  H       -3.7577360     1.3235000     0.3006380
  H       -3.3631330    -0.3381970    -0.1530850
  H        0.6957430     2.6486760    -0.5454840
  H        2.4328210     2.9512940    -0.4556920
  H        1.5246440     2.5856330     1.0178510
units angstrom
no_reorient  #important for SAPT in psi4, default
symmetry c1  #important for SAPT in psi4, default
}

set PROPERTIES_ORIGIN ["COM"]
properties('MP2/aug-cc-pvtz', properties = ['dipole'])
--------------------------------------------------------------------------

    Molecular point group: c1
  Charge       = 0
  Multiplicity = 1
  Basis Set: AUG-CC-PVTZ
    Blend: AUG-CC-PVTZ
  Basis Set: (AUG-CC-PVTZ AUX)
    Blend: AUG-CC-PVTZ-JKFIT

    Orbital Energies [Eh]
    ---------------------

    Doubly Occupied:

       1A    -91.937200     2A    -11.255702     3A    -11.254197
       4A    -11.237236     5A    -11.227277     6A    -11.225331
       7A    -11.220555     8A    -11.219281     9A     -8.939088
      10A     -6.620044    11A     -6.619634    12A     -6.618302
      13A     -1.154268    14A     -1.047470    15A     -1.027352
      16A     -0.918908    17A     -0.910390    18A     -0.835508
      19A     -0.804592    20A     -0.738884    21A     -0.647521
      22A     -0.630351    23A     -0.600983    24A     -0.597039
      25A     -0.571236    26A     -0.553858    27A     -0.540852
      28A     -0.528213    29A     -0.515966    30A     -0.502197
      31A     -0.479698    32A     -0.469544    33A     -0.466972
      34A     -0.430987    35A     -0.404119    36A     -0.330648

  @DF-RHF Final Energy:  -670.84500018440906

   => Energetics <=

    Nuclear Repulsion Energy =            468.9288155459151426
    One-Electron Energy =               -1849.3848210097344236
    Two-Electron Energy =                 709.6110052794102785
    Total Energy =                       -670.8450001844090593
  Basis Set: (AUG-CC-PVTZ AUX)
    Blend: AUG-CC-PVTZ-RI
    Molecular point group: c1

    Geometry (in Angstrom), charge = 0, multiplicity = 1:

       Center              X                  Y                   Z               Mass
    ------------   -----------------  -----------------  -----------------  -----------------
         S            0.957991888867    -1.749067422909     0.040454941852    31.972071174400
         C           -0.630432111133     0.073472577091    -0.235420058148    12.000000000000
         C            0.797658388867    -0.036987722909     0.356489041852    12.000000000000
         C           -0.845306111133    -1.448883422909    -0.141508058148    12.000000000000
         C           -1.684998111133     0.932522577091     0.446662941852    12.000000000000
         C            1.850504888867     0.944347577091    -0.252312058148    12.000000000000
         C           -3.059926111133     0.785699577091    -0.202029058148    12.000000000000
         C            1.573740888867     2.433036577091    -0.046828058148    12.000000000000
         H           -0.544915111133     0.355258577091    -1.294560058148     1.007825032230
         H            0.743665888867     0.228851577091     1.458907941852     1.007825032230
         H           -1.388512111133    -1.736580422909     0.764367941852     1.007825032230
         H           -1.298325111133    -1.936116422909    -1.007658058148     1.007825032230
         H           -1.374874111133     1.983890577091     0.425853941852     1.007825032230
         H           -1.740172111133     0.644732577091     1.504826941852     1.007825032230
         H            2.826980888867     0.686320577091     0.176750941852     1.007825032230
         H            1.907855888867     0.713901577091    -1.322395058148     1.007825032230
         H           -3.026343111133     1.080803577091    -1.255447058148     1.007825032230
         H           -3.803736111133     1.411465577091     0.299457941852     1.007825032230
         H           -3.409133111133    -0.250231422909    -0.154265058148     1.007825032230
         H            0.649742888867     2.736641577091    -0.546664058148     1.007825032230
         H            2.386820888867     3.039259577091    -0.456872058148     1.007825032230
         H            1.478643888867     2.673598577091     1.016670941852     1.007825032230

  Basis Set: AUG-CC-PVTZ
    Blend: AUG-CC-PVTZ
  Basis Set: (AUG-CC-PVTZ AUX)
    Blend: AUG-CC-PVTZ-JKFIT
	 Reference Energy          =    -670.8450001844090593 [Eh]
	 Singles Energy            =      -0.0000000000000000 [Eh]
	 Same-Spin Energy          =      -0.3562361834643831 [Eh]
	 Opposite-Spin Energy      =      -1.2395655246716712 [Eh]
	 Correlation Energy        =      -1.5958017081360545 [Eh]
	 Total Energy              =    -672.4408018925450961 [Eh]

	 ================> DF-SCS-MP2 Energies <==================
	-----------------------------------------------------------
	 SCS Same-Spin Scale       =       0.3333333333333333 [-]
	 SCS Opposite-Spin Scale   =       1.2000000000000000 [-]
	 SCS Same-Spin Energy      =      -0.1187453944881277 [Eh]
	 SCS Opposite-Spin Energy  =      -1.4874786296060054 [Eh]
	 SCS Correlation Energy    =      -1.6062240240941330 [Eh]
	 SCS Total Energy          =    -672.4512242085031630 [Eh]
	-----------------------------------------------------------

  Dipole Moment: [D]
     X:    -1.3311      Y:     1.5998      Z:     0.0303     Total:     2.0814

*** Psi4 exiting successfully. Buy a developer a beer!
