                               Psi4 1.3.2 release

  ==> Input File <==

--------------------------------------------------------------------------
#psi4
#
memory 32 gb

molecule  {
0 1
  S        1.0039920    -1.8370330     0.0416350
  C       -0.5844320    -0.0144930    -0.2342400
  C        0.8254834    -0.1340626     0.3849647
  C       -0.7993060    -1.5368490    -0.1403280
  C       -1.6389980     0.8445570     0.4478430
  C        1.8965050     0.8563820    -0.2511320
  C       -3.0139260     0.6977340    -0.2008490
  C        1.6197410     2.3450710    -0.0456480
  H       -0.4989150     0.2672930    -1.2933800
  H        0.7896660     0.1408860     1.4600880
  H       -1.3425120    -1.8245460     0.7655480
  H       -1.2523250    -2.0240820    -1.0064780
  H       -1.3288740     1.8959250     0.4270340
  H       -1.6941720     0.5567670     1.5060070
  H        2.8729810     0.5983550     0.1779310
  H        1.9538560     0.6259360    -1.3212150
  H       -2.9803430     0.9928380    -1.2542670
  H       -3.7577360     1.3235000     0.3006380
  H       -3.3631330    -0.3381970    -0.1530850
  H        0.6957430     2.6486760    -0.5454840
  H        2.4328210     2.9512940    -0.4556920
  H        1.5246440     2.5856330     1.0178510
units angstrom
no_reorient  #important for SAPT in psi4, default
symmetry c1  #important for SAPT in psi4, default
}

set PROPERTIES_ORIGIN ["COM"]
properties('MP2/aug-cc-pvtz', properties = ['dipole'])
--------------------------------------------------------------------------

    Molecular point group: c1
  Charge       = 0
  Multiplicity = 1
  Basis Set: AUG-CC-PVTZ
    Blend: AUG-CC-PVTZ
  Basis Set: (AUG-CC-PVTZ AUX)
    Blend: AUG-CC-PVTZ-JKFIT

    Orbital Energies [Eh]
    ---------------------

    Doubly Occupied:

       1A    -91.936951     2A    -11.254476     3A    -11.254181
       4A    -11.236755     5A    -11.227018     6A    -11.225886
       7A    -11.220369     8A    -11.218689     9A     -8.938908
      10A     -6.619863    11A     -6.619451    12A     -6.618111
      13A     -1.154800    14A     -1.046043    15A     -1.025921
      16A     -0.918029    17A     -0.910452    18A     -0.834006
      19A     -0.804261    20A     -0.742857    21A     -0.647113
      22A     -0.630217    23A     -0.600288    24A     -0.596492
      25A     -0.570428    26A     -0.554319    27A     -0.540547
      28A     -0.529011    29A     -0.514788    30A     -0.501508
      31A     -0.480152    32A     -0.469923    33A     -0.468403
      34A     -0.428161    35A     -0.404537    36A     -0.330794

  @DF-RHF Final Energy:  -670.84398548974548

   => Energetics <=

    Nuclear Repulsion Energy =            468.8684871516929888
    One-Electron Energy =               -1849.2775261258809678
    Two-Electron Energy =                 709.5650534844425010
    Total Energy =                       -670.8439854897454779
  Basis Set: (AUG-CC-PVTZ AUX)
    Blend: AUG-CC-PVTZ-RI
    Molecular point group: c1

    Geometry (in Angstrom), charge = 0, multiplicity = 1:

       Center              X                  Y                   Z               Mass
    ------------   -----------------  -----------------  -----------------  -----------------
         S            0.959668537707    -1.748227092057     0.037936928962    31.972071174400
         C           -0.628755462293     0.074312907943    -0.237938071038    12.000000000000
         C            0.781159937707    -0.045256692057     0.381266628962    12.000000000000
         C           -0.843629462293    -1.448043092057    -0.144026071038    12.000000000000
         C           -1.683321462293     0.933362907943     0.444144928962    12.000000000000
         C            1.852181537707     0.945187907943    -0.254830071038    12.000000000000
         C           -3.058249462293     0.786539907943    -0.204547071038    12.000000000000
         C            1.575417537707     2.433876907943    -0.049346071038    12.000000000000
         H           -0.543238462293     0.356098907943    -1.297078071038     1.007825032230
         H            0.745342537707     0.229691907943     1.456389928962     1.007825032230
         H           -1.386835462293    -1.735740092057     0.761849928962     1.007825032230
         H           -1.296648462293    -1.935276092057    -1.010176071038     1.007825032230
         H           -1.373197462293     1.984730907943     0.423335928962     1.007825032230
         H           -1.738495462293     0.645572907943     1.502308928962     1.007825032230
         H            2.828657537707     0.687160907943     0.174232928962     1.007825032230
         H            1.909532537707     0.714741907943    -1.324913071038     1.007825032230
         H           -3.024666462293     1.081643907943    -1.257965071038     1.007825032230
         H           -3.802059462293     1.412305907943     0.296939928962     1.007825032230
         H           -3.407456462293    -0.249391092057    -0.156783071038     1.007825032230
         H            0.651419537707     2.737481907943    -0.549182071038     1.007825032230
         H            2.388497537707     3.040099907943    -0.459390071038     1.007825032230
         H            1.480320537707     2.674438907943     1.014152928962     1.007825032230

  Basis Set: AUG-CC-PVTZ
    Blend: AUG-CC-PVTZ
  Basis Set: (AUG-CC-PVTZ AUX)
    Blend: AUG-CC-PVTZ-JKFIT
	 Reference Energy          =    -670.8439854897454779 [Eh]
	 Singles Energy            =      -0.0000000000000000 [Eh]
	 Same-Spin Energy          =      -0.3561807092049850 [Eh]
	 Opposite-Spin Energy      =      -1.2395566048969129 [Eh]
	 Correlation Energy        =      -1.5957373141018980 [Eh]
	 Total Energy              =    -672.4397228038474168 [Eh]

	 ================> DF-SCS-MP2 Energies <==================
	-----------------------------------------------------------
	 SCS Same-Spin Scale       =       0.3333333333333333 [-]
	 SCS Opposite-Spin Scale   =       1.2000000000000000 [-]
	 SCS Same-Spin Energy      =      -0.1187269030683283 [Eh]
	 SCS Opposite-Spin Energy  =      -1.4874679258762955 [Eh]
	 SCS Correlation Energy    =      -1.6061948289446240 [Eh]
	 SCS Total Energy          =    -672.4501803186900588 [Eh]
	-----------------------------------------------------------

  Dipole Moment: [D]
     X:    -1.3335      Y:     1.5843      Z:     0.0455     Total:     2.0713

*** Psi4 exiting successfully. Buy a developer a beer!
