                               Psi4 1.3.2 release

  ==> Input File <==

--------------------------------------------------------------------------
#psi4
#
memory 32 gb

molecule  {
0 1
  S        1.0039920    -1.8370330     0.0416350
  C       -0.6028851    -0.0232658    -0.2512043
  C        0.8344880    -0.0270290     0.3757450
  C       -0.7993060    -1.5368490    -0.1403280
  C       -1.6389980     0.8445570     0.4478430
  C        1.8965050     0.8563820    -0.2511320
  C       -3.0139260     0.6977340    -0.2008490
  C        1.6197410     2.3450710    -0.0456480
  H       -0.4989150     0.2672930    -1.2933800
  H        0.7896660     0.1408860     1.4600880
  H       -1.3425120    -1.8245460     0.7655480
  H       -1.2523250    -2.0240820    -1.0064780
  H       -1.3288740     1.8959250     0.4270340
  H       -1.6941720     0.5567670     1.5060070
  H        2.8729810     0.5983550     0.1779310
  H        1.9538560     0.6259360    -1.3212150
  H       -2.9803430     0.9928380    -1.2542670
  H       -3.7577360     1.3235000     0.3006380
  H       -3.3631330    -0.3381970    -0.1530850
  H        0.6957430     2.6486760    -0.5454840
  H        2.4328210     2.9512940    -0.4556920
  H        1.5246440     2.5856330     1.0178510
units angstrom
no_reorient  #important for SAPT in psi4, default
symmetry c1  #important for SAPT in psi4, default
}

set PROPERTIES_ORIGIN ["COM"]
properties('MP2/aug-cc-pvtz', properties = ['dipole'])
--------------------------------------------------------------------------

    Molecular point group: c1
  Charge       = 0
  Multiplicity = 1
  Basis Set: AUG-CC-PVTZ
    Blend: AUG-CC-PVTZ
  Basis Set: (AUG-CC-PVTZ AUX)
    Blend: AUG-CC-PVTZ-JKFIT

    Orbital Energies [Eh]
    ---------------------

    Doubly Occupied:

       1A    -91.934817     2A    -11.257642     3A    -11.252538
       4A    -11.238405     5A    -11.226778     6A    -11.225399
       7A    -11.219586     8A    -11.219460     9A     -8.935236
      10A     -6.616049    11A     -6.615689    12A     -6.614460
      13A     -1.145982    14A     -1.050940    15A     -1.026466
      16A     -0.917348    17A     -0.908761    18A     -0.833065
      19A     -0.804486    20A     -0.747593    21A     -0.649932
      22A     -0.631887    23A     -0.601934    24A     -0.597155
      25A     -0.570725    26A     -0.554978    27A     -0.540838
      28A     -0.529598    29A     -0.518009    30A     -0.502097
      31A     -0.485085    32A     -0.474830    33A     -0.459824
      34A     -0.433103    35A     -0.393177    36A     -0.331042

  @DF-RHF Final Energy:  -670.85300082676542

   => Energetics <=

    Nuclear Repulsion Energy =            467.9590579621512347
    One-Electron Energy =               -1847.4942942895183933
    Two-Electron Energy =                 708.6822355006016778
    Total Energy =                       -670.8530008267654239
  Basis Set: (AUG-CC-PVTZ AUX)
    Blend: AUG-CC-PVTZ-RI
    Molecular point group: c1

    Geometry (in Angstrom), charge = 0, multiplicity = 1:

       Center              X                  Y                   Z               Mass
    ------------   -----------------  -----------------  -----------------  -----------------
         S            0.960540159682    -1.757291628502     0.040352397005    31.972071174400
         C           -0.646336940318     0.056475571498    -0.252486902995    12.000000000000
         C            0.791036159682     0.052712371498     0.374462397005    12.000000000000
         C           -0.842757840318    -1.457107628502    -0.141610602995    12.000000000000
         C           -1.682449840318     0.924298371498     0.446560397005    12.000000000000
         C            1.853053159682     0.936123371498    -0.252414602995    12.000000000000
         C           -3.057377840318     0.777475371498    -0.202131602995    12.000000000000
         C            1.576289159682     2.424812371498    -0.046930602995    12.000000000000
         H           -0.542366840318     0.347034371498    -1.294662602995     1.007825032230
         H            0.746214159682     0.220627371498     1.458805397005     1.007825032230
         H           -1.385963840318    -1.744804628502     0.764265397005     1.007825032230
         H           -1.295776840318    -1.944340628502    -1.007760602995     1.007825032230
         H           -1.372325840318     1.975666371498     0.425751397005     1.007825032230
         H           -1.737623840318     0.636508371498     1.504724397005     1.007825032230
         H            2.829529159682     0.678096371498     0.176648397005     1.007825032230
         H            1.910404159682     0.705677371498    -1.322497602995     1.007825032230
         H           -3.023794840318     1.072579371498    -1.255549602995     1.007825032230
         H           -3.801187840318     1.403241371498     0.299355397005     1.007825032230
         H           -3.406584840318    -0.258455628502    -0.154367602995     1.007825032230
         H            0.652291159682     2.728417371498    -0.546766602995     1.007825032230
         H            2.389369159682     3.031035371498    -0.456974602995     1.007825032230
         H            1.481192159682     2.665374371498     1.016568397005     1.007825032230

  Basis Set: AUG-CC-PVTZ
    Blend: AUG-CC-PVTZ
  Basis Set: (AUG-CC-PVTZ AUX)
    Blend: AUG-CC-PVTZ-JKFIT
	 Reference Energy          =    -670.8530008267654239 [Eh]
	 Singles Energy            =      -0.0000000000000000 [Eh]
	 Same-Spin Energy          =      -0.3557155017144223 [Eh]
	 Opposite-Spin Energy      =      -1.2391368248288916 [Eh]
	 Correlation Energy        =      -1.5948523265433139 [Eh]
	 Total Energy              =    -672.4478531533087562 [Eh]

	 ================> DF-SCS-MP2 Energies <==================
	-----------------------------------------------------------
	 SCS Same-Spin Scale       =       0.3333333333333333 [-]
	 SCS Opposite-Spin Scale   =       1.2000000000000000 [-]
	 SCS Same-Spin Energy      =      -0.1185718339048074 [Eh]
	 SCS Opposite-Spin Energy  =      -1.4869641897946699 [Eh]
	 SCS Correlation Energy    =      -1.6055360236994773 [Eh]
	 SCS Total Energy          =    -672.4585368504649523 [Eh]
	-----------------------------------------------------------

  Dipole Moment: [D]
     X:    -1.2688      Y:     1.7844      Z:     0.0433     Total:     2.1899

*** Psi4 exiting successfully. Buy a developer a beer!
