                               Psi4 1.3.2 release

  ==> Input File <==

--------------------------------------------------------------------------
#psi4
#
memory 32 gb

molecule  {
0 1
  S        1.0039920    -1.8370330     0.0416350
  C       -0.5844320    -0.0144930    -0.2342400
  C        0.8344880    -0.0270290     0.3757450
  C       -0.7993060    -1.5368490    -0.1403280
  C       -1.6600552     0.9158025     0.3069610
  C        1.8965050     0.8563820    -0.2511320
  C       -3.0139260     0.6977340    -0.2008490
  C        1.6197410     2.3450710    -0.0456480
  H       -0.4989150     0.2672930    -1.2933800
  H        0.7896660     0.1408860     1.4600880
  H       -1.3425120    -1.8245460     0.7655480
  H       -1.2523250    -2.0240820    -1.0064780
  H       -1.3288740     1.8959250     0.4270340
  H       -1.6941720     0.5567670     1.5060070
  H        2.8729810     0.5983550     0.1779310
  H        1.9538560     0.6259360    -1.3212150
  H       -2.9803430     0.9928380    -1.2542670
  H       -3.7577360     1.3235000     0.3006380
  H       -3.3631330    -0.3381970    -0.1530850
  H        0.6957430     2.6486760    -0.5454840
  H        2.4328210     2.9512940    -0.4556920
  H        1.5246440     2.5856330     1.0178510
units angstrom
no_reorient  #important for SAPT in psi4, default
symmetry c1  #important for SAPT in psi4, default
}

set PROPERTIES_ORIGIN ["COM"]
properties('MP2/aug-cc-pvtz', properties = ['dipole'])
--------------------------------------------------------------------------

    Molecular point group: c1
  Charge       = 0
  Multiplicity = 1
  Basis Set: AUG-CC-PVTZ
    Blend: AUG-CC-PVTZ
  Basis Set: (AUG-CC-PVTZ AUX)
    Blend: AUG-CC-PVTZ-JKFIT

    Orbital Energies [Eh]
    ---------------------

    Doubly Occupied:

       1A    -91.936285     2A    -11.259058     3A    -11.254435
       4A    -11.240780     5A    -11.234240     6A    -11.226089
       7A    -11.220407     8A    -11.219983     9A     -8.936694
      10A     -6.617508    11A     -6.617142    12A     -6.615895
      13A     -1.148397    14A     -1.058158    15A     -1.032635
      16A     -0.918472    17A     -0.914010    18A     -0.832912
      19A     -0.802666    20A     -0.746258    21A     -0.652246
      22A     -0.636112    23A     -0.607472    24A     -0.591382
      25A     -0.576978    26A     -0.565704    27A     -0.547747
      28A     -0.533672    29A     -0.522470    30A     -0.499404
      31A     -0.481559    32A     -0.467328    33A     -0.438312
      34A     -0.427478    35A     -0.400650    36A     -0.332137

  @DF-RHF Final Energy:  -670.82894205812681

   => Energetics <=

    Nuclear Repulsion Energy =            468.2551806902021099
    One-Electron Energy =               -1847.9428964084768268
    Two-Electron Energy =                 708.8587736601480174
    Total Energy =                       -670.8289420581268132
  Basis Set: (AUG-CC-PVTZ AUX)
    Blend: AUG-CC-PVTZ-RI
    Molecular point group: c1

    Geometry (in Angstrom), charge = 0, multiplicity = 1:

       Center              X                  Y                   Z               Mass
    ------------   -----------------  -----------------  -----------------  -----------------
         S            0.960780387315    -1.764673298472     0.051783776638    31.972071174400
         C           -0.627643612685     0.057866701528    -0.224091223362    12.000000000000
         C            0.791276387315     0.045330701528     0.385893776638    12.000000000000
         C           -0.842517612685    -1.464489298472    -0.130179223362    12.000000000000
         C           -1.703266812685     0.988162201528     0.317109776638    12.000000000000
         C            1.853293387315     0.928741701528    -0.240983223362    12.000000000000
         C           -3.057137612685     0.770093701528    -0.190700223362    12.000000000000
         C            1.576529387315     2.417430701528    -0.035499223362    12.000000000000
         H           -0.542126612685     0.339652701528    -1.283231223362     1.007825032230
         H            0.746454387315     0.213245701528     1.470236776638     1.007825032230
         H           -1.385723612685    -1.752186298472     0.775696776638     1.007825032230
         H           -1.295536612685    -1.951722298472    -0.996329223362     1.007825032230
         H           -1.372085612685     1.968284701528     0.437182776638     1.007825032230
         H           -1.737383612685     0.629126701528     1.516155776638     1.007825032230
         H            2.829769387315     0.670714701528     0.188079776638     1.007825032230
         H            1.910644387315     0.698295701528    -1.311066223362     1.007825032230
         H           -3.023554612685     1.065197701528    -1.244118223362     1.007825032230
         H           -3.800947612685     1.395859701528     0.310786776638     1.007825032230
         H           -3.406344612685    -0.265837298472    -0.142936223362     1.007825032230
         H            0.652531387315     2.721035701528    -0.535335223362     1.007825032230
         H            2.389609387315     3.023653701528    -0.445543223362     1.007825032230
         H            1.481432387315     2.657992701528     1.027999776638     1.007825032230

  Basis Set: AUG-CC-PVTZ
    Blend: AUG-CC-PVTZ
  Basis Set: (AUG-CC-PVTZ AUX)
    Blend: AUG-CC-PVTZ-JKFIT
	 Reference Energy          =    -670.8289420581268132 [Eh]
	 Singles Energy            =      -0.0000000000000000 [Eh]
	 Same-Spin Energy          =      -0.3567008024522460 [Eh]
	 Opposite-Spin Energy      =      -1.2408500994017597 [Eh]
	 Correlation Energy        =      -1.5975509018540057 [Eh]
	 Total Energy              =    -672.4264929599808056 [Eh]

	 ================> DF-SCS-MP2 Energies <==================
	-----------------------------------------------------------
	 SCS Same-Spin Scale       =       0.3333333333333333 [-]
	 SCS Opposite-Spin Scale   =       1.2000000000000000 [-]
	 SCS Same-Spin Energy      =      -0.1189002674840820 [Eh]
	 SCS Opposite-Spin Energy  =      -1.4890201192821115 [Eh]
	 SCS Correlation Energy    =      -1.6079203867661935 [Eh]
	 SCS Total Energy          =    -672.4368624448929950 [Eh]
	-----------------------------------------------------------

  Dipole Moment: [D]
     X:    -1.2561      Y:     1.7865      Z:    -0.0892     Total:     2.1857

*** Psi4 exiting successfully. Buy a developer a beer!
