                               Psi4 1.3.2 release

  ==> Input File <==

--------------------------------------------------------------------------
#psi4
#
memory 32 gb

molecule  {
0 1
  S        1.0039920    -1.8370330     0.0416350
  C       -0.5844320    -0.0144930    -0.2342400
  C        0.7986051     0.0412190     0.4510902
  C       -0.7993060    -1.5368490    -0.1403280
  C       -1.6389980     0.8445570     0.4478430
  C        1.8965050     0.8563820    -0.2511320
  C       -3.0139260     0.6977340    -0.2008490
  C        1.6197410     2.3450710    -0.0456480
  H       -0.4989150     0.2672930    -1.2933800
  H        0.7896660     0.1408860     1.4600880
  H       -1.3425120    -1.8245460     0.7655480
  H       -1.2523250    -2.0240820    -1.0064780
  H       -1.3288740     1.8959250     0.4270340
  H       -1.6941720     0.5567670     1.5060070
  H        2.8729810     0.5983550     0.1779310
  H        1.9538560     0.6259360    -1.3212150
  H       -2.9803430     0.9928380    -1.2542670
  H       -3.7577360     1.3235000     0.3006380
  H       -3.3631330    -0.3381970    -0.1530850
  H        0.6957430     2.6486760    -0.5454840
  H        2.4328210     2.9512940    -0.4556920
  H        1.5246440     2.5856330     1.0178510
units angstrom
no_reorient  #important for SAPT in psi4, default
symmetry c1  #important for SAPT in psi4, default
}

set PROPERTIES_ORIGIN ["COM"]
properties('MP2/aug-cc-pvtz', properties = ['dipole'])
--------------------------------------------------------------------------

    Molecular point group: c1
  Charge       = 0
  Multiplicity = 1
  Basis Set: AUG-CC-PVTZ
    Blend: AUG-CC-PVTZ
  Basis Set: (AUG-CC-PVTZ AUX)
    Blend: AUG-CC-PVTZ-JKFIT

    Orbital Energies [Eh]
    ---------------------

    Doubly Occupied:

       1A    -91.931245     2A    -11.258401     3A    -11.251370
       4A    -11.241109     5A    -11.228675     6A    -11.226181
       7A    -11.219480     8A    -11.219236     9A     -8.930987
      10A     -6.611752    11A     -6.611302    12A     -6.610162
      13A     -1.143151    14A     -1.050384    15A     -1.023582
      16A     -0.920493    17A     -0.905293    18A     -0.828469
      19A     -0.805917    20A     -0.762440    21A     -0.650242
      22A     -0.634357    23A     -0.599935    24A     -0.597265
      25A     -0.577689    26A     -0.553121    27A     -0.539295
      28A     -0.533612    29A     -0.519435    30A     -0.500724
      31A     -0.492292    32A     -0.477827    33A     -0.456216
      34A     -0.429910    35A     -0.381098    36A     -0.329117

  @DF-RHF Final Energy:  -670.84370824220650

   => Energetics <=

    Nuclear Repulsion Energy =            467.2360263323836307
    One-Electron Energy =               -1846.0559380197062183
    Two-Electron Energy =                 707.9762034451159707
    Total Energy =                       -670.8437082422065032
  Basis Set: (AUG-CC-PVTZ AUX)
    Blend: AUG-CC-PVTZ-RI
    Molecular point group: c1

    Geometry (in Angstrom), charge = 0, multiplicity = 1:

       Center              X                  Y                   Z               Mass
    ------------   -----------------  -----------------  -----------------  -----------------
         S            0.962148054767    -1.764396779778     0.031836866632    31.972071174400
         C           -0.626275945233     0.058143220222    -0.244038133368    12.000000000000
         C            0.756761154767     0.113855220222     0.441292066632    12.000000000000
         C           -0.841149945233    -1.464212779778    -0.150126133368    12.000000000000
         C           -1.680841945233     0.917193220222     0.438044866632    12.000000000000
         C            1.854661054767     0.929018220222    -0.260930133368    12.000000000000
         C           -3.055769945233     0.770370220222    -0.210647133368    12.000000000000
         C            1.577897054767     2.417707220222    -0.055446133368    12.000000000000
         H           -0.540758945233     0.339929220222    -1.303178133368     1.007825032230
         H            0.747822054767     0.213522220222     1.450289866632     1.007825032230
         H           -1.384355945233    -1.751909779778     0.755749866632     1.007825032230
         H           -1.294168945233    -1.951445779778    -1.016276133368     1.007825032230
         H           -1.370717945233     1.968561220222     0.417235866632     1.007825032230
         H           -1.736015945233     0.629403220222     1.496208866632     1.007825032230
         H            2.831137054767     0.670991220222     0.168132866632     1.007825032230
         H            1.912012054767     0.698572220222    -1.331013133368     1.007825032230
         H           -3.022186945233     1.065474220222    -1.264065133368     1.007825032230
         H           -3.799579945233     1.396136220222     0.290839866632     1.007825032230
         H           -3.404976945233    -0.265560779778    -0.162883133368     1.007825032230
         H            0.653899054767     2.721312220222    -0.555282133368     1.007825032230
         H            2.390977054767     3.023930220222    -0.465490133368     1.007825032230
         H            1.482800054767     2.658269220222     1.008052866632     1.007825032230

  Basis Set: AUG-CC-PVTZ
    Blend: AUG-CC-PVTZ
  Basis Set: (AUG-CC-PVTZ AUX)
    Blend: AUG-CC-PVTZ-JKFIT
	 Reference Energy          =    -670.8437082422065032 [Eh]
	 Singles Energy            =      -0.0000000000000000 [Eh]
	 Same-Spin Energy          =      -0.3555688134276895 [Eh]
	 Opposite-Spin Energy      =      -1.2396243973134711 [Eh]
	 Correlation Energy        =      -1.5951932107411606 [Eh]
	 Total Energy              =    -672.4389014529476754 [Eh]

	 ================> DF-SCS-MP2 Energies <==================
	-----------------------------------------------------------
	 SCS Same-Spin Scale       =       0.3333333333333333 [-]
	 SCS Opposite-Spin Scale   =       1.2000000000000000 [-]
	 SCS Same-Spin Energy      =      -0.1185229378092298 [Eh]
	 SCS Opposite-Spin Energy  =      -1.4875492767761653 [Eh]
	 SCS Correlation Energy    =      -1.6060722145853952 [Eh]
	 SCS Total Energy          =    -672.4497804567919275 [Eh]
	-----------------------------------------------------------

  Dipole Moment: [D]
     X:    -1.2438      Y:     1.9011      Z:     0.0611     Total:     2.2727

*** Psi4 exiting successfully. Buy a developer a beer!
