                               Psi4 1.3.2 release

  ==> Input File <==

--------------------------------------------------------------------------
#psi4
#
memory 32 gb

molecule  {
0 1
  S        1.0039920    -1.8370330     0.0416350
  C       -0.5844320    -0.0144930    -0.2342400
  C        0.8217231    -0.0053787     0.3840704
  C       -0.7993060    -1.5368490    -0.1403280
  C       -1.6389980     0.8445570     0.4478430
  C        1.8965050     0.8563820    -0.2511320
  C       -3.0139260     0.6977340    -0.2008490
  C        1.6197410     2.3450710    -0.0456480
  H       -0.4989150     0.2672930    -1.2933800
  H        0.7896660     0.1408860     1.4600880
  H       -1.3425120    -1.8245460     0.7655480
  H       -1.2523250    -2.0240820    -1.0064780
  H       -1.3288740     1.8959250     0.4270340
  H       -1.6941720     0.5567670     1.5060070
  H        2.8729810     0.5983550     0.1779310
  H        1.9538560     0.6259360    -1.3212150
  H       -2.9803430     0.9928380    -1.2542670
  H       -3.7577360     1.3235000     0.3006380
  H       -3.3631330    -0.3381970    -0.1530850
  H        0.6957430     2.6486760    -0.5454840
  H        2.4328210     2.9512940    -0.4556920
  H        1.5246440     2.5856330     1.0178510
units angstrom
no_reorient  #important for SAPT in psi4, default
symmetry c1  #important for SAPT in psi4, default
}

set PROPERTIES_ORIGIN ["COM"]
properties('MP2/aug-cc-pvtz', properties = ['dipole'])
--------------------------------------------------------------------------

    Molecular point group: c1
  Charge       = 0
  Multiplicity = 1
  Basis Set: AUG-CC-PVTZ
    Blend: AUG-CC-PVTZ
  Basis Set: (AUG-CC-PVTZ AUX)
    Blend: AUG-CC-PVTZ-JKFIT

    Orbital Energies [Eh]
    ---------------------

    Doubly Occupied:

       1A    -91.933886     2A    -11.257757     3A    -11.252378
       4A    -11.239060     5A    -11.226728     6A    -11.226098
       7A    -11.219979     8A    -11.219502     9A     -8.934109
      10A     -6.614901    11A     -6.614522    12A     -6.613315
      13A     -1.147251    14A     -1.051002    15A     -1.025902
      16A     -0.918261    17A     -0.908509    18A     -0.831324
      19A     -0.806416    20A     -0.749263    21A     -0.650465
      22A     -0.633102    23A     -0.601419    24A     -0.597285
      25A     -0.571370    26A     -0.555719    27A     -0.539760
      28A     -0.530877    29A     -0.519274    30A     -0.501954
      31A     -0.486514    32A     -0.472961    33A     -0.458700
      34A     -0.435112    35A     -0.390869    36A     -0.330764

  @DF-RHF Final Energy:  -670.85309725071863

   => Energetics <=

    Nuclear Repulsion Energy =            468.0281462893024127
    One-Electron Energy =               -1847.6298748922240520
    Two-Electron Energy =                 708.7486313522030059
    Total Energy =                       -670.8530972507186334
  Basis Set: (AUG-CC-PVTZ AUX)
    Blend: AUG-CC-PVTZ-RI
    Molecular point group: c1

    Geometry (in Angstrom), charge = 0, multiplicity = 1:

       Center              X                  Y                   Z               Mass
    ------------   -----------------  -----------------  -----------------  -----------------
         S            0.960015424526    -1.760098152555     0.038019427934    31.972071174400
         C           -0.628408575474     0.062441847445    -0.237855572066    12.000000000000
         C            0.777746524526     0.071556147445     0.380454827934    12.000000000000
         C           -0.843282575474    -1.459914152555    -0.143943572066    12.000000000000
         C           -1.682974575474     0.921491847445     0.444227427934    12.000000000000
         C            1.852528424526     0.933316847445    -0.254747572066    12.000000000000
         C           -3.057902575474     0.774668847445    -0.204464572066    12.000000000000
         C            1.575764424526     2.422005847445    -0.049263572066    12.000000000000
         H           -0.542891575474     0.344227847445    -1.296995572066     1.007825032230
         H            0.745689424526     0.217820847445     1.456472427934     1.007825032230
         H           -1.386488575474    -1.747611152555     0.761932427934     1.007825032230
         H           -1.296301575474    -1.947147152555    -1.010093572066     1.007825032230
         H           -1.372850575474     1.972859847445     0.423418427934     1.007825032230
         H           -1.738148575474     0.633701847445     1.502391427934     1.007825032230
         H            2.829004424526     0.675289847445     0.174315427934     1.007825032230
         H            1.909879424526     0.702870847445    -1.324830572066     1.007825032230
         H           -3.024319575474     1.069772847445    -1.257882572066     1.007825032230
         H           -3.801712575474     1.400434847445     0.297022427934     1.007825032230
         H           -3.407109575474    -0.261262152555    -0.156700572066     1.007825032230
         H            0.651766424526     2.725610847445    -0.549099572066     1.007825032230
         H            2.388844424526     3.028228847445    -0.459307572066     1.007825032230
         H            1.480667424526     2.662567847445     1.014235427934     1.007825032230

  Basis Set: AUG-CC-PVTZ
    Blend: AUG-CC-PVTZ
  Basis Set: (AUG-CC-PVTZ AUX)
    Blend: AUG-CC-PVTZ-JKFIT
	 Reference Energy          =    -670.8530972507186334 [Eh]
	 Singles Energy            =      -0.0000000000000000 [Eh]
	 Same-Spin Energy          =      -0.3557617790737169 [Eh]
	 Opposite-Spin Energy      =      -1.2392282374555690 [Eh]
	 Correlation Energy        =      -1.5949900165292858 [Eh]
	 Total Energy              =    -672.4480872672479563 [Eh]

	 ================> DF-SCS-MP2 Energies <==================
	-----------------------------------------------------------
	 SCS Same-Spin Scale       =       0.3333333333333333 [-]
	 SCS Opposite-Spin Scale   =       1.2000000000000000 [-]
	 SCS Same-Spin Energy      =      -0.1185872596912390 [Eh]
	 SCS Opposite-Spin Energy  =      -1.4870738849466827 [Eh]
	 SCS Correlation Energy    =      -1.6056611446379216 [Eh]
	 SCS Total Energy          =    -672.4587583953565399 [Eh]
	-----------------------------------------------------------

  Dipole Moment: [D]
     X:    -1.2640      Y:     1.8136      Z:     0.0471     Total:     2.2111

*** Psi4 exiting successfully. Buy a developer a beer!
