                               Psi4 1.3.2 release

  ==> Input File <==

--------------------------------------------------------------------------
#psi4
#
memory 32 gb

molecule  {
0 1
  S        1.0039920    -1.8370330     0.0416350
  C       -0.5139849    -0.0414186    -0.3772402
  C        0.8344880    -0.0270290     0.3757450
  C       -0.7993060    -1.5368490    -0.1403280
  C       -1.6389980     0.8445570     0.4478430
  C        1.8965050     0.8563820    -0.2511320
  C       -3.0139260     0.6977340    -0.2008490
  C        1.6197410     2.3450710    -0.0456480
  H       -0.4989150     0.2672930    -1.2933800
  H        0.7896660     0.1408860     1.4600880
  H       -1.3425120    -1.8245460     0.7655480
  H       -1.2523250    -2.0240820    -1.0064780
  H       -1.3288740     1.8959250     0.4270340
  H       -1.6941720     0.5567670     1.5060070
  H        2.8729810     0.5983550     0.1779310
  H        1.9538560     0.6259360    -1.3212150
  H       -2.9803430     0.9928380    -1.2542670
  H       -3.7577360     1.3235000     0.3006380
  H       -3.3631330    -0.3381970    -0.1530850
  H        0.6957430     2.6486760    -0.5454840
  H        2.4328210     2.9512940    -0.4556920
  H        1.5246440     2.5856330     1.0178510
units angstrom
no_reorient  #important for SAPT in psi4, default
symmetry c1  #important for SAPT in psi4, default
}

set PROPERTIES_ORIGIN ["COM"]
properties('MP2/aug-cc-pvtz', properties = ['dipole'])
--------------------------------------------------------------------------

    Molecular point group: c1
  Charge       = 0
  Multiplicity = 1
  Basis Set: AUG-CC-PVTZ
    Blend: AUG-CC-PVTZ
  Basis Set: (AUG-CC-PVTZ AUX)
    Blend: AUG-CC-PVTZ-JKFIT

    Orbital Energies [Eh]
    ---------------------

    Doubly Occupied:

       1A    -91.933966     2A    -11.257424     3A    -11.253360
       4A    -11.235728     5A    -11.229522     6A    -11.224545
       7A    -11.219567     8A    -11.217610     9A     -8.934516
      10A     -6.615236    11A     -6.615002    12A     -6.613725
      13A     -1.146790    14A     -1.044958    15A     -1.021219
      16A     -0.917875    17A     -0.906806    18A     -0.831282
      19A     -0.808747    20A     -0.760019    21A     -0.648805
      22A     -0.631291    23A     -0.598062    24A     -0.595585
      25A     -0.570757    26A     -0.559791    27A     -0.551625
      28A     -0.528301    29A     -0.516924    30A     -0.494750
      31A     -0.484873    32A     -0.481063    33A     -0.457128
      34A     -0.436813    35A     -0.374842    36A     -0.330833

  @DF-RHF Final Energy:  -670.82541907795394

   => Energetics <=

    Nuclear Repulsion Energy =            467.6683479332165803
    One-Electron Energy =               -1846.8888568421930358
    Two-Electron Energy =                 708.3950898310224602
    Total Energy =                       -670.8254190779539385
  Basis Set: (AUG-CC-PVTZ AUX)
    Blend: AUG-CC-PVTZ-RI
    Molecular point group: c1

    Geometry (in Angstrom), charge = 0, multiplicity = 1:

       Center              X                  Y                   Z               Mass
    ------------   -----------------  -----------------  -----------------  -----------------
         S            0.952339136458    -1.755617036831     0.051979180106    31.972071174400
         C           -0.565637763542     0.039997363169    -0.366896019894    12.000000000000
         C            0.782835136458     0.054386963169     0.386089180106    12.000000000000
         C           -0.850958863542    -1.455433036831    -0.129983819894    12.000000000000
         C           -1.690650863542     0.925972963169     0.458187180106    12.000000000000
         C            1.844852136458     0.937797963169    -0.240787819894    12.000000000000
         C           -3.065578863542     0.779149963169    -0.190504819894    12.000000000000
         C            1.568088136458     2.426486963169    -0.035303819894    12.000000000000
         H           -0.550567863542     0.348708963169    -1.283035819894     1.007825032230
         H            0.738013136458     0.222301963169     1.470432180106     1.007825032230
         H           -1.394164863542    -1.743130036831     0.775892180106     1.007825032230
         H           -1.303977863542    -1.942666036831    -0.996133819894     1.007825032230
         H           -1.380526863542     1.977340963169     0.437378180106     1.007825032230
         H           -1.745824863542     0.638182963169     1.516351180106     1.007825032230
         H            2.821328136458     0.679770963169     0.188275180106     1.007825032230
         H            1.902203136458     0.707351963169    -1.310870819894     1.007825032230
         H           -3.031995863542     1.074253963169    -1.243922819894     1.007825032230
         H           -3.809388863542     1.404915963169     0.310982180106     1.007825032230
         H           -3.414785863542    -0.256781036831    -0.142740819894     1.007825032230
         H            0.644090136458     2.730091963169    -0.535139819894     1.007825032230
         H            2.381168136458     3.032709963169    -0.445347819894     1.007825032230
         H            1.472991136458     2.667048963169     1.028195180106     1.007825032230

  Basis Set: AUG-CC-PVTZ
    Blend: AUG-CC-PVTZ
  Basis Set: (AUG-CC-PVTZ AUX)
    Blend: AUG-CC-PVTZ-JKFIT
	 Reference Energy          =    -670.8254190779539385 [Eh]
	 Singles Energy            =      -0.0000000000000000 [Eh]
	 Same-Spin Energy          =      -0.3556276684920164 [Eh]
	 Opposite-Spin Energy      =      -1.2398794038762042 [Eh]
	 Correlation Energy        =      -1.5955070723682208 [Eh]
	 Total Energy              =    -672.4209261503222024 [Eh]

	 ================> DF-SCS-MP2 Energies <==================
	-----------------------------------------------------------
	 SCS Same-Spin Scale       =       0.3333333333333333 [-]
	 SCS Opposite-Spin Scale   =       1.2000000000000000 [-]
	 SCS Same-Spin Energy      =      -0.1185425561640055 [Eh]
	 SCS Opposite-Spin Energy  =      -1.4878552846514450 [Eh]
	 SCS Correlation Energy    =      -1.6063978408154505 [Eh]
	 SCS Total Energy          =    -672.4318169187694139 [Eh]
	-----------------------------------------------------------

  Dipole Moment: [D]
     X:    -1.2289      Y:     1.7477      Z:    -0.0092     Total:     2.1365

*** Psi4 exiting successfully. Buy a developer a beer!
