                               Psi4 1.4a3.dev225

  ==> Input File <==

--------------------------------------------------------------------------
#psi4
#
memory 32 gb

molecule  {
0 1
  S        1.0039920    -1.8370330     0.0416350
  C       -0.5844320    -0.0144930    -0.2342400
  C        0.8326539    -0.0074441     0.3793602
  C       -0.7993060    -1.5368490    -0.1403280
  C       -1.6389980     0.8445570     0.4478430
  C        1.8965050     0.8563820    -0.2511320
  C       -3.0139260     0.6977340    -0.2008490
  C        1.6197410     2.3450710    -0.0456480
  H       -0.4989150     0.2672930    -1.2933800
  H        0.7896660     0.1408860     1.4600880
  H       -1.3425120    -1.8245460     0.7655480
  H       -1.2523250    -2.0240820    -1.0064780
  H       -1.3288740     1.8959250     0.4270340
  H       -1.6941720     0.5567670     1.5060070
  H        2.8729810     0.5983550     0.1779310
  H        1.9538560     0.6259360    -1.3212150
  H       -2.9803430     0.9928380    -1.2542670
  H       -3.7577360     1.3235000     0.3006380
  H       -3.3631330    -0.3381970    -0.1530850
  H        0.6957430     2.6486760    -0.5454840
  H        2.4328210     2.9512940    -0.4556920
  H        1.5246440     2.5856330     1.0178510
units angstrom
no_reorient  #important for SAPT in psi4, default
symmetry c1  #important for SAPT in psi4, default
}

set PROPERTIES_ORIGIN ["COM"]
properties('MP2/aug-cc-pvtz', properties = ['dipole'])
--------------------------------------------------------------------------

    Molecular point group: c1
  Charge       = 0
  Multiplicity = 1
  Basis Set: AUG-CC-PVTZ
    Blend: AUG-CC-PVTZ
  Basis Set: (AUG-CC-PVTZ AUX)
    Blend: AUG-CC-PVTZ-JKFIT

    Orbital Energies [Eh]
    ---------------------

    Doubly Occupied:

       1A    -91.934207     2A    -11.257780     3A    -11.252401
       4A    -11.239352     5A    -11.226749     6A    -11.225646
       7A    -11.220020     8A    -11.219680     9A     -8.934437
      10A     -6.615232    11A     -6.614860    12A     -6.613650
      13A     -1.146687    14A     -1.051771    15A     -1.026074
      16A     -0.918354    17A     -0.908549    18A     -0.831896
      19A     -0.805968    20A     -0.748257    21A     -0.650397
      22A     -0.632899    23A     -0.601444    24A     -0.597328
      25A     -0.571320    26A     -0.556140    27A     -0.539801
      28A     -0.530432    29A     -0.519342    30A     -0.502075
      31A     -0.486626    32A     -0.472605    33A     -0.458449
      34A     -0.435633    35A     -0.390926    36A     -0.330893

  @DF-RHF Final Energy:  -670.85325988007548

   => Energetics <=

    Nuclear Repulsion Energy =            468.0147225189376172
    One-Electron Energy =               -1847.6002056772063042
    Two-Electron Energy =                 708.7322232781932598
    Total Energy =                       -670.8532598800754840
  Basis Set: (AUG-CC-PVTZ AUX)
    Blend: AUG-CC-PVTZ-RI
    Molecular point group: c1

    Geometry (in Angstrom), charge = 0, multiplicity = 1:

       Center              X                  Y                   Z               Mass
    ------------   -----------------  -----------------  -----------------  -----------------
         S            0.959007060713    -1.759907619875     0.038453942812    31.972071174400
         C           -0.629416939287     0.062632380125    -0.237421057188    12.000000000000
         C            0.787668960713     0.069681280125     0.376179142812    12.000000000000
         C           -0.844290939287    -1.459723619875    -0.143509057188    12.000000000000
         C           -1.683982939287     0.921682380125     0.444661942812    12.000000000000
         C            1.851520060713     0.933507380125    -0.254313057188    12.000000000000
         C           -3.058910939287     0.774859380125    -0.204030057188    12.000000000000
         C            1.574756060713     2.422196380125    -0.048829057188    12.000000000000
         H           -0.543899939287     0.344418380125    -1.296561057188     1.007825032230
         H            0.744681060713     0.218011380125     1.456906942812     1.007825032230
         H           -1.387496939287    -1.747420619875     0.762366942812     1.007825032230
         H           -1.297309939287    -1.946956619875    -1.009659057188     1.007825032230
         H           -1.373858939287     1.973050380125     0.423852942812     1.007825032230
         H           -1.739156939287     0.633892380125     1.502825942812     1.007825032230
         H            2.827996060713     0.675480380125     0.174749942812     1.007825032230
         H            1.908871060713     0.703061380125    -1.324396057188     1.007825032230
         H           -3.025327939287     1.069963380125    -1.257448057188     1.007825032230
         H           -3.802720939287     1.400625380125     0.297456942812     1.007825032230
         H           -3.408117939287    -0.261071619875    -0.156266057188     1.007825032230
         H            0.650758060713     2.725801380125    -0.548665057188     1.007825032230
         H            2.387836060713     3.028419380125    -0.458873057188     1.007825032230
         H            1.479659060713     2.662758380125     1.014669942812     1.007825032230

  Basis Set: AUG-CC-PVTZ
    Blend: AUG-CC-PVTZ
  Basis Set: (AUG-CC-PVTZ AUX)
    Blend: AUG-CC-PVTZ-JKFIT
	 Reference Energy          =    -670.8532598800754840 [Eh]
	 Singles Energy            =      -0.0000000000000000 [Eh]
	 Same-Spin Energy          =      -0.3557771953015814 [Eh]
	 Opposite-Spin Energy      =      -1.2392245277124498 [Eh]
	 Correlation Energy        =      -1.5950017230140312 [Eh]
	 Total Energy              =    -672.4482616030894633 [Eh]

	 ================> DF-SCS-MP2 Energies <==================
	-----------------------------------------------------------
	 SCS Same-Spin Scale       =       0.3333333333333333 [-]
	 SCS Opposite-Spin Scale   =       1.2000000000000000 [-]
	 SCS Same-Spin Energy      =      -0.1185923984338605 [Eh]
	 SCS Opposite-Spin Energy  =      -1.4870694332549397 [Eh]
	 SCS Correlation Energy    =      -1.6056618316888001 [Eh]
	 SCS Total Energy          =    -672.4589217117643329 [Eh]
	-----------------------------------------------------------

  Dipole Moment: [D]
     X:    -1.2638      Y:     1.8135      Z:     0.0440     Total:     2.2109

*** Psi4 exiting successfully. Buy a developer a beer!
