                               Psi4 1.3.2 release

  ==> Input File <==

--------------------------------------------------------------------------
#psi4
#
memory 32 gb

molecule  {
0 1
  S        1.0039920    -1.8370330     0.0416350
  C       -0.5844320    -0.0144930    -0.2342400
  C        0.8475764    -0.0484102     0.3672286
  C       -0.7993060    -1.5368490    -0.1403280
  C       -1.6389980     0.8445570     0.4478430
  C        1.8965050     0.8563820    -0.2511320
  C       -3.0139260     0.6977340    -0.2008490
  C        1.6197410     2.3450710    -0.0456480
  H       -0.4989150     0.2672930    -1.2933800
  H        0.7896660     0.1408860     1.4600880
  H       -1.3425120    -1.8245460     0.7655480
  H       -1.2523250    -2.0240820    -1.0064780
  H       -1.3288740     1.8959250     0.4270340
  H       -1.6941720     0.5567670     1.5060070
  H        2.8729810     0.5983550     0.1779310
  H        1.9538560     0.6259360    -1.3212150
  H       -2.9803430     0.9928380    -1.2542670
  H       -3.7577360     1.3235000     0.3006380
  H       -3.3631330    -0.3381970    -0.1530850
  H        0.6957430     2.6486760    -0.5454840
  H        2.4328210     2.9512940    -0.4556920
  H        1.5246440     2.5856330     1.0178510
units angstrom
no_reorient  #important for SAPT in psi4, default
symmetry c1  #important for SAPT in psi4, default
}

set PROPERTIES_ORIGIN ["COM"]
properties('MP2/aug-cc-pvtz', properties = ['dipole'])
--------------------------------------------------------------------------

    Molecular point group: c1
  Charge       = 0
  Multiplicity = 1
  Basis Set: AUG-CC-PVTZ
    Blend: AUG-CC-PVTZ
  Basis Set: (AUG-CC-PVTZ AUX)
    Blend: AUG-CC-PVTZ-JKFIT

    Orbital Energies [Eh]
    ---------------------

    Doubly Occupied:

       1A    -91.935853     2A    -11.256739     3A    -11.252977
       4A    -11.238776     5A    -11.226904     6A    -11.224991
       7A    -11.220213     8A    -11.219630     9A     -8.936525
      10A     -6.617350    11A     -6.617020    12A     -6.615755
      13A     -1.148114    14A     -1.050476    15A     -1.027049
      16A     -0.917795    17A     -0.909782    18A     -0.833736
      19A     -0.805078    20A     -0.744160    21A     -0.649280
      22A     -0.631689    23A     -0.601283    24A     -0.597097
      25A     -0.570788    26A     -0.555922    27A     -0.540013
      28A     -0.529329    29A     -0.518150    30A     -0.502254
      31A     -0.483816    32A     -0.470807    33A     -0.461167
      34A     -0.434813    35A     -0.396665    36A     -0.331369

  @DF-RHF Final Energy:  -670.85288132470134

   => Energetics <=

    Nuclear Repulsion Energy =            468.2873170452826912
    One-Electron Energy =               -1848.1336675931042919
    Two-Electron Energy =                 708.9934692231203144
    Total Energy =                       -670.8528813247013431
  Basis Set: (AUG-CC-PVTZ AUX)
    Blend: AUG-CC-PVTZ-RI
    Molecular point group: c1

    Geometry (in Angstrom), charge = 0, multiplicity = 1:

       Center              X                  Y                   Z               Mass
    ------------   -----------------  -----------------  -----------------  -----------------
         S            0.957630463483    -1.756128506470     0.039573080152    31.972071174400
         C           -0.630793536517     0.066411493530    -0.236301919848    12.000000000000
         C            0.801214863483     0.032494293530     0.365166680152    12.000000000000
         C           -0.845667536517    -1.455944506470    -0.142389919848    12.000000000000
         C           -1.685359536517     0.925461493530     0.445781080152    12.000000000000
         C            1.850143463483     0.937286493530    -0.253193919848    12.000000000000
         C           -3.060287536517     0.778638493530    -0.202910919848    12.000000000000
         C            1.573379463483     2.425975493530    -0.047709919848    12.000000000000
         H           -0.545276536517     0.348197493530    -1.295441919848     1.007825032230
         H            0.743304463483     0.221790493530     1.458026080152     1.007825032230
         H           -1.388873536517    -1.743641506470     0.763486080152     1.007825032230
         H           -1.298686536517    -1.943177506470    -1.008539919848     1.007825032230
         H           -1.375235536517     1.976829493530     0.424972080152     1.007825032230
         H           -1.740533536517     0.637671493530     1.503945080152     1.007825032230
         H            2.826619463483     0.679259493530     0.175869080152     1.007825032230
         H            1.907494463483     0.706840493530    -1.323276919848     1.007825032230
         H           -3.026704536517     1.073742493530    -1.256328919848     1.007825032230
         H           -3.804097536517     1.404404493530     0.298576080152     1.007825032230
         H           -3.409494536517    -0.257292506470    -0.155146919848     1.007825032230
         H            0.649381463483     2.729580493530    -0.547545919848     1.007825032230
         H            2.386459463483     3.032198493530    -0.457753919848     1.007825032230
         H            1.478282463483     2.666537493530     1.015789080152     1.007825032230

  Basis Set: AUG-CC-PVTZ
    Blend: AUG-CC-PVTZ
  Basis Set: (AUG-CC-PVTZ AUX)
    Blend: AUG-CC-PVTZ-JKFIT
	 Reference Energy          =    -670.8528813247013431 [Eh]
	 Singles Energy            =      -0.0000000000000000 [Eh]
	 Same-Spin Energy          =      -0.3558257545630937 [Eh]
	 Opposite-Spin Energy      =      -1.2391451194284313 [Eh]
	 Correlation Energy        =      -1.5949708739915249 [Eh]
	 Total Energy              =    -672.4478521986928854 [Eh]

	 ================> DF-SCS-MP2 Energies <==================
	-----------------------------------------------------------
	 SCS Same-Spin Scale       =       0.3333333333333333 [-]
	 SCS Opposite-Spin Scale   =       1.2000000000000000 [-]
	 SCS Same-Spin Energy      =      -0.1186085848543646 [Eh]
	 SCS Opposite-Spin Energy  =      -1.4869741433141175 [Eh]
	 SCS Correlation Energy    =      -1.6055827281684820 [Eh]
	 SCS Total Energy          =    -672.4584640528697719 [Eh]
	-----------------------------------------------------------

  Dipole Moment: [D]
     X:    -1.2853      Y:     1.7408      Z:     0.0379     Total:     2.1642

*** Psi4 exiting successfully. Buy a developer a beer!
