                               Psi4 1.3.2 release

  ==> Input File <==

--------------------------------------------------------------------------
#psi4
#
memory 32 gb

molecule  {
0 1
  S        1.0039920    -1.8370330     0.0416350
  C       -0.5138867     0.0231870    -0.1643576
  C        0.8344880    -0.0270290     0.3757450
  C       -0.7993060    -1.5368490    -0.1403280
  C       -1.6389980     0.8445570     0.4478430
  C        1.8965050     0.8563820    -0.2511320
  C       -3.0139260     0.6977340    -0.2008490
  C        1.6197410     2.3450710    -0.0456480
  H       -0.4989150     0.2672930    -1.2933800
  H        0.7896660     0.1408860     1.4600880
  H       -1.3425120    -1.8245460     0.7655480
  H       -1.2523250    -2.0240820    -1.0064780
  H       -1.3288740     1.8959250     0.4270340
  H       -1.6941720     0.5567670     1.5060070
  H        2.8729810     0.5983550     0.1779310
  H        1.9538560     0.6259360    -1.3212150
  H       -2.9803430     0.9928380    -1.2542670
  H       -3.7577360     1.3235000     0.3006380
  H       -3.3631330    -0.3381970    -0.1530850
  H        0.6957430     2.6486760    -0.5454840
  H        2.4328210     2.9512940    -0.4556920
  H        1.5246440     2.5856330     1.0178510
units angstrom
no_reorient  #important for SAPT in psi4, default
symmetry c1  #important for SAPT in psi4, default
}

set PROPERTIES_ORIGIN ["COM"]
properties('MP2/aug-cc-pvtz', properties = ['dipole'])
--------------------------------------------------------------------------

    Molecular point group: c1
  Charge       = 0
  Multiplicity = 1
  Basis Set: AUG-CC-PVTZ
    Blend: AUG-CC-PVTZ
  Basis Set: (AUG-CC-PVTZ AUX)
    Blend: AUG-CC-PVTZ-JKFIT

    Orbital Energies [Eh]
    ---------------------

    Doubly Occupied:

       1A    -91.935699     2A    -11.254417     3A    -11.253676
       4A    -11.242576     5A    -11.227897     6A    -11.225816
       7A    -11.222455     8A    -11.219780     9A     -8.936127
      10A     -6.616909    11A     -6.616587    12A     -6.615323
      13A     -1.155641    14A     -1.049851    15A     -1.026704
      16A     -0.923727    17A     -0.908801    18A     -0.830433
      19A     -0.812180    20A     -0.742844    21A     -0.649994
      22A     -0.634327    23A     -0.600830    24A     -0.596141
      25A     -0.571711    26A     -0.560755    27A     -0.537990
      28A     -0.531681    29A     -0.520748    30A     -0.502469
      31A     -0.485715    32A     -0.463925    33A     -0.454103
      34A     -0.443489    35A     -0.390607    36A     -0.331278

  @DF-RHF Final Energy:  -670.84171061819325

   => Energetics <=

    Nuclear Repulsion Energy =            468.9107791167591586
    One-Electron Energy =               -1849.3185602435737565
    Two-Electron Energy =                 709.5660705086213511
    Total Energy =                       -670.8417106181932468
  Basis Set: (AUG-CC-PVTZ AUX)
    Blend: AUG-CC-PVTZ-RI
    Molecular point group: c1

    Geometry (in Angstrom), charge = 0, multiplicity = 1:

       Center              X                  Y                   Z               Mass
    ------------   -----------------  -----------------  -----------------  -----------------
         S            0.952330077530    -1.761576888733     0.032340808689    31.972071174400
         C           -0.565548622470     0.098643111267    -0.173651791311    12.000000000000
         C            0.782826077530     0.048427111267     0.366450808689    12.000000000000
         C           -0.850967922470    -1.461392888733    -0.149622191311    12.000000000000
         C           -1.690659922470     0.920013111267     0.438548808689    12.000000000000
         C            1.844843077530     0.931838111267    -0.260426191311    12.000000000000
         C           -3.065587922470     0.773190111267    -0.210143191311    12.000000000000
         C            1.568079077530     2.420527111267    -0.054942191311    12.000000000000
         H           -0.550576922470     0.342749111267    -1.302674191311     1.007825032230
         H            0.738004077530     0.216342111267     1.450793808689     1.007825032230
         H           -1.394173922470    -1.749089888733     0.756253808689     1.007825032230
         H           -1.303986922470    -1.948625888733    -1.015772191311     1.007825032230
         H           -1.380535922470     1.971381111267     0.417739808689     1.007825032230
         H           -1.745833922470     0.632223111267     1.496712808689     1.007825032230
         H            2.821319077530     0.673811111267     0.168636808689     1.007825032230
         H            1.902194077530     0.701392111267    -1.330509191311     1.007825032230
         H           -3.032004922470     1.068294111267    -1.263561191311     1.007825032230
         H           -3.809397922470     1.398956111267     0.291343808689     1.007825032230
         H           -3.414794922470    -0.262740888733    -0.162379191311     1.007825032230
         H            0.644081077530     2.724132111267    -0.554778191311     1.007825032230
         H            2.381159077530     3.026750111267    -0.464986191311     1.007825032230
         H            1.472982077530     2.661089111267     1.008556808689     1.007825032230

  Basis Set: AUG-CC-PVTZ
    Blend: AUG-CC-PVTZ
  Basis Set: (AUG-CC-PVTZ AUX)
    Blend: AUG-CC-PVTZ-JKFIT
	 Reference Energy          =    -670.8417106181932468 [Eh]
	 Singles Energy            =      -0.0000000000000000 [Eh]
	 Same-Spin Energy          =      -0.3566048217228023 [Eh]
	 Opposite-Spin Energy      =      -1.2403692931957626 [Eh]
	 Correlation Energy        =      -1.5969741149185648 [Eh]
	 Total Energy              =    -672.4386847331118133 [Eh]

	 ================> DF-SCS-MP2 Energies <==================
	-----------------------------------------------------------
	 SCS Same-Spin Scale       =       0.3333333333333333 [-]
	 SCS Opposite-Spin Scale   =       1.2000000000000000 [-]
	 SCS Same-Spin Energy      =      -0.1188682739076008 [Eh]
	 SCS Opposite-Spin Energy  =      -1.4884431518349150 [Eh]
	 SCS Correlation Energy    =      -1.6073114257425158 [Eh]
	 SCS Total Energy          =    -672.4490220439357699 [Eh]
	-----------------------------------------------------------

  Dipole Moment: [D]
     X:    -1.3007      Y:     1.7430      Z:     0.0527     Total:     2.1755

*** Psi4 exiting successfully. Buy a developer a beer!
