                               Psi4 1.3.2 release

  ==> Input File <==

--------------------------------------------------------------------------
#psi4
#
memory 32 gb

molecule  {
0 1
  S        1.0039920    -1.8370330     0.0416350
  C       -0.5844320    -0.0144930    -0.2342400
  C        0.8308479    -0.0805860     0.3807295
  C       -0.7993060    -1.5368490    -0.1403280
  C       -1.6389980     0.8445570     0.4478430
  C        1.8965050     0.8563820    -0.2511320
  C       -3.0139260     0.6977340    -0.2008490
  C        1.6197410     2.3450710    -0.0456480
  H       -0.4989150     0.2672930    -1.2933800
  H        0.7896660     0.1408860     1.4600880
  H       -1.3425120    -1.8245460     0.7655480
  H       -1.2523250    -2.0240820    -1.0064780
  H       -1.3288740     1.8959250     0.4270340
  H       -1.6941720     0.5567670     1.5060070
  H        2.8729810     0.5983550     0.1779310
  H        1.9538560     0.6259360    -1.3212150
  H       -2.9803430     0.9928380    -1.2542670
  H       -3.7577360     1.3235000     0.3006380
  H       -3.3631330    -0.3381970    -0.1530850
  H        0.6957430     2.6486760    -0.5454840
  H        2.4328210     2.9512940    -0.4556920
  H        1.5246440     2.5856330     1.0178510
units angstrom
no_reorient  #important for SAPT in psi4, default
symmetry c1  #important for SAPT in psi4, default
}

set PROPERTIES_ORIGIN ["COM"]
properties('MP2/aug-cc-pvtz', properties = ['dipole'])
--------------------------------------------------------------------------

    Molecular point group: c1
  Charge       = 0
  Multiplicity = 1
  Basis Set: AUG-CC-PVTZ
    Blend: AUG-CC-PVTZ
  Basis Set: (AUG-CC-PVTZ AUX)
    Blend: AUG-CC-PVTZ-JKFIT

    Orbital Energies [Eh]
    ---------------------

    Doubly Occupied:

       1A    -91.936239     2A    -11.255378     3A    -11.253363
       4A    -11.237681     5A    -11.226866     6A    -11.225651
       7A    -11.220201     8A    -11.219027     9A     -8.937328
      10A     -6.618183    11A     -6.617851    12A     -6.616550
      13A     -1.150594    14A     -1.047528    15A     -1.026683
      16A     -0.916568    17A     -0.910926    18A     -0.833337
      19A     -0.804994    20A     -0.744903    21A     -0.648276
      22A     -0.631085    23A     -0.600728    24A     -0.596682
      25A     -0.570364    26A     -0.555093    27A     -0.540048
      28A     -0.529630    29A     -0.516587    30A     -0.501820
      31A     -0.482113    32A     -0.470605    33A     -0.463837
      34A     -0.431443    35A     -0.401272    36A     -0.331418

  @DF-RHF Final Energy:  -670.85120044390999

   => Energetics <=

    Nuclear Repulsion Energy =            468.4884593426928632
    One-Electron Energy =               -1848.5376174138509668
    Two-Electron Energy =                 709.1979576272482291
    Total Energy =                       -670.8512004439099883
  Basis Set: (AUG-CC-PVTZ AUX)
    Blend: AUG-CC-PVTZ-RI
    Molecular point group: c1

    Geometry (in Angstrom), charge = 0, multiplicity = 1:

       Center              X                  Y                   Z               Mass
    ------------   -----------------  -----------------  -----------------  -----------------
         S            0.959173663802    -1.753160296240     0.038327625199    31.972071174400
         C           -0.629250336198     0.069379703760    -0.237547374801    12.000000000000
         C            0.786029563802     0.003286703760     0.377422125199    12.000000000000
         C           -0.844124336198    -1.452976296240    -0.143635374801    12.000000000000
         C           -1.683816336198     0.928429703760     0.444535625199    12.000000000000
         C            1.851686663802     0.940254703760    -0.254439374801    12.000000000000
         C           -3.058744336198     0.781606703760    -0.204156374801    12.000000000000
         C            1.574922663802     2.428943703760    -0.048955374801    12.000000000000
         H           -0.543733336198     0.351165703760    -1.296687374801     1.007825032230
         H            0.744847663802     0.224758703760     1.456780625199     1.007825032230
         H           -1.387330336198    -1.740673296240     0.762240625199     1.007825032230
         H           -1.297143336198    -1.940209296240    -1.009785374801     1.007825032230
         H           -1.373692336198     1.979797703760     0.423726625199     1.007825032230
         H           -1.738990336198     0.640639703760     1.502699625199     1.007825032230
         H            2.828162663802     0.682227703760     0.174623625199     1.007825032230
         H            1.909037663802     0.709808703760    -1.324522374801     1.007825032230
         H           -3.025161336198     1.076710703760    -1.257574374801     1.007825032230
         H           -3.802554336198     1.407372703760     0.297330625199     1.007825032230
         H           -3.407951336198    -0.254324296240    -0.156392374801     1.007825032230
         H            0.650924663802     2.732548703760    -0.548791374801     1.007825032230
         H            2.388002663802     3.035166703760    -0.458999374801     1.007825032230
         H            1.479825663802     2.669505703760     1.014543625199     1.007825032230

  Basis Set: AUG-CC-PVTZ
    Blend: AUG-CC-PVTZ
  Basis Set: (AUG-CC-PVTZ AUX)
    Blend: AUG-CC-PVTZ-JKFIT
	 Reference Energy          =    -670.8512004439099883 [Eh]
	 Singles Energy            =      -0.0000000000000000 [Eh]
	 Same-Spin Energy          =      -0.3558306153609225 [Eh]
	 Opposite-Spin Energy      =      -1.2391237411293228 [Eh]
	 Correlation Energy        =      -1.5949543564902453 [Eh]
	 Total Energy              =    -672.4461548004002225 [Eh]

	 ================> DF-SCS-MP2 Energies <==================
	-----------------------------------------------------------
	 SCS Same-Spin Scale       =       0.3333333333333333 [-]
	 SCS Opposite-Spin Scale   =       1.2000000000000000 [-]
	 SCS Same-Spin Energy      =      -0.1186102051203075 [Eh]
	 SCS Opposite-Spin Energy  =      -1.4869484893551872 [Eh]
	 SCS Correlation Energy    =      -1.6055586944754947 [Eh]
	 SCS Total Energy          =    -672.4567591383854506 [Eh]
	-----------------------------------------------------------

  Dipole Moment: [D]
     X:    -1.3033      Y:     1.6782      Z:     0.0457     Total:     2.1254

*** Psi4 exiting successfully. Buy a developer a beer!
