                               Psi4 1.3.2 release

  ==> Input File <==

--------------------------------------------------------------------------
#psi4
#
memory 32 gb

molecule  {
0 1
  S        1.0039920    -1.8370330     0.0416350
  C       -0.5844320    -0.0144930    -0.2342400
  C        0.8753054    -0.1291826     0.2572738
  C       -0.7993060    -1.5368490    -0.1403280
  C       -1.6389980     0.8445570     0.4478430
  C        1.8965050     0.8563820    -0.2511320
  C       -3.0139260     0.6977340    -0.2008490
  C        1.6197410     2.3450710    -0.0456480
  H       -0.4989150     0.2672930    -1.2933800
  H        0.7896660     0.1408860     1.4600880
  H       -1.3425120    -1.8245460     0.7655480
  H       -1.2523250    -2.0240820    -1.0064780
  H       -1.3288740     1.8959250     0.4270340
  H       -1.6941720     0.5567670     1.5060070
  H        2.8729810     0.5983550     0.1779310
  H        1.9538560     0.6259360    -1.3212150
  H       -2.9803430     0.9928380    -1.2542670
  H       -3.7577360     1.3235000     0.3006380
  H       -3.3631330    -0.3381970    -0.1530850
  H        0.6957430     2.6486760    -0.5454840
  H        2.4328210     2.9512940    -0.4556920
  H        1.5246440     2.5856330     1.0178510
units angstrom
no_reorient  #important for SAPT in psi4, default
symmetry c1  #important for SAPT in psi4, default
}

set PROPERTIES_ORIGIN ["COM"]
properties('MP2/aug-cc-pvtz', properties = ['dipole'])
--------------------------------------------------------------------------

    Molecular point group: c1
  Charge       = 0
  Multiplicity = 1
  Basis Set: AUG-CC-PVTZ
    Blend: AUG-CC-PVTZ
  Basis Set: (AUG-CC-PVTZ AUX)
    Blend: AUG-CC-PVTZ-JKFIT

    Orbital Energies [Eh]
    ---------------------

    Doubly Occupied:

       1A    -91.938883     2A    -11.261012     3A    -11.255423
       4A    -11.238300     5A    -11.228503     6A    -11.224599
       7A    -11.221366     8A    -11.220928     9A     -8.941116
      10A     -6.622137    11A     -6.621649    12A     -6.620318
      13A     -1.158838    14A     -1.051723    15A     -1.031282
      16A     -0.922995    17A     -0.911657    18A     -0.840565
      19A     -0.807653    20A     -0.724917    21A     -0.650335
      22A     -0.630934    23A     -0.604828    24A     -0.598625
      25A     -0.575484    26A     -0.550222    27A     -0.542558
      28A     -0.525581    29A     -0.519571    30A     -0.504644
      31A     -0.478094    32A     -0.473787    33A     -0.457858
      34A     -0.434222    35A     -0.406179    36A     -0.326479

  @DF-RHF Final Energy:  -670.82991547552024

   => Energetics <=

    Nuclear Repulsion Energy =            469.5800266258650026
    One-Electron Energy =               -1850.5733588694749869
    Two-Electron Energy =                 710.1634167680897463
    Total Energy =                       -670.8299154755202380
  Basis Set: (AUG-CC-PVTZ AUX)
    Blend: AUG-CC-PVTZ-RI
    Molecular point group: c1

    Geometry (in Angstrom), charge = 0, multiplicity = 1:

       Center              X                  Y                   Z               Mass
    ------------   -----------------  -----------------  -----------------  -----------------
         S            0.955072469542    -1.748677270947     0.049716385436    31.972071174400
         C           -0.633351530458     0.073862729053    -0.226158614564    12.000000000000
         C            0.826385869542    -0.040826870947     0.265355185436    12.000000000000
         C           -0.848225530458    -1.448493270947    -0.132246614564    12.000000000000
         C           -1.687917530458     0.932912729053     0.455924385436    12.000000000000
         C            1.847585469542     0.944737729053    -0.243050614564    12.000000000000
         C           -3.062845530458     0.786089729053    -0.192767614564    12.000000000000
         C            1.570821469542     2.433426729053    -0.037566614564    12.000000000000
         H           -0.547834530458     0.355648729053    -1.285298614564     1.007825032230
         H            0.740746469542     0.229241729053     1.468169385436     1.007825032230
         H           -1.391431530458    -1.736190270947     0.773629385436     1.007825032230
         H           -1.301244530458    -1.935726270947    -0.998396614564     1.007825032230
         H           -1.377793530458     1.984280729053     0.435115385436     1.007825032230
         H           -1.743091530458     0.645122729053     1.514088385436     1.007825032230
         H            2.824061469542     0.686710729053     0.186012385436     1.007825032230
         H            1.904936469542     0.714291729053    -1.313133614564     1.007825032230
         H           -3.029262530458     1.081193729053    -1.246185614564     1.007825032230
         H           -3.806655530458     1.411855729053     0.308719385436     1.007825032230
         H           -3.412052530458    -0.249841270947    -0.145003614564     1.007825032230
         H            0.646823469542     2.737031729053    -0.537402614564     1.007825032230
         H            2.383901469542     3.039649729053    -0.447610614564     1.007825032230
         H            1.475724469542     2.673988729053     1.025932385436     1.007825032230

  Basis Set: AUG-CC-PVTZ
    Blend: AUG-CC-PVTZ
  Basis Set: (AUG-CC-PVTZ AUX)
    Blend: AUG-CC-PVTZ-JKFIT
	 Reference Energy          =    -670.8299154755202380 [Eh]
	 Singles Energy            =      -0.0000000000000000 [Eh]
	 Same-Spin Energy          =      -0.3571272850007776 [Eh]
	 Opposite-Spin Energy      =      -1.2408307892386838 [Eh]
	 Correlation Energy        =      -1.5979580742394615 [Eh]
	 Total Energy              =    -672.4278735497597381 [Eh]

	 ================> DF-SCS-MP2 Energies <==================
	-----------------------------------------------------------
	 SCS Same-Spin Scale       =       0.3333333333333333 [-]
	 SCS Opposite-Spin Scale   =       1.2000000000000000 [-]
	 SCS Same-Spin Energy      =      -0.1190424283335925 [Eh]
	 SCS Opposite-Spin Energy  =      -1.4889969470864206 [Eh]
	 SCS Correlation Energy    =      -1.6080393754200131 [Eh]
	 SCS Total Energy          =    -672.4379548509402866 [Eh]
	-----------------------------------------------------------

  Dipole Moment: [D]
     X:    -1.3441      Y:     1.5627      Z:    -0.0483     Total:     2.0618

*** Psi4 exiting successfully. Buy a developer a beer!
