                               Psi4 1.3.2 release

  ==> Input File <==

--------------------------------------------------------------------------
#psi4
#
memory 32 gb

molecule  {
0 1
  S        1.0039920    -1.8370330     0.0416350
  C       -0.5674243     0.0214117    -0.2706823
  C        0.8344880    -0.0270290     0.3757450
  C       -0.7993060    -1.5368490    -0.1403280
  C       -1.6389980     0.8445570     0.4478430
  C        1.8965050     0.8563820    -0.2511320
  C       -3.0139260     0.6977340    -0.2008490
  C        1.6197410     2.3450710    -0.0456480
  H       -0.4989150     0.2672930    -1.2933800
  H        0.7896660     0.1408860     1.4600880
  H       -1.3425120    -1.8245460     0.7655480
  H       -1.2523250    -2.0240820    -1.0064780
  H       -1.3288740     1.8959250     0.4270340
  H       -1.6941720     0.5567670     1.5060070
  H        2.8729810     0.5983550     0.1779310
  H        1.9538560     0.6259360    -1.3212150
  H       -2.9803430     0.9928380    -1.2542670
  H       -3.7577360     1.3235000     0.3006380
  H       -3.3631330    -0.3381970    -0.1530850
  H        0.6957430     2.6486760    -0.5454840
  H        2.4328210     2.9512940    -0.4556920
  H        1.5246440     2.5856330     1.0178510
units angstrom
no_reorient  #important for SAPT in psi4, default
symmetry c1  #important for SAPT in psi4, default
}

set PROPERTIES_ORIGIN ["COM"]
properties('MP2/aug-cc-pvtz', properties = ['dipole'])
--------------------------------------------------------------------------

    Molecular point group: c1
  Charge       = 0
  Multiplicity = 1
  Basis Set: AUG-CC-PVTZ
    Blend: AUG-CC-PVTZ
  Basis Set: (AUG-CC-PVTZ AUX)
    Blend: AUG-CC-PVTZ-JKFIT

    Orbital Energies [Eh]
    ---------------------

    Doubly Occupied:

       1A    -91.934522     2A    -11.257332     3A    -11.253479
       4A    -11.237679     5A    -11.227122     6A    -11.224687
       7A    -11.219928     8A    -11.219505     9A     -8.934909
      10A     -6.615727    11A     -6.615364    12A     -6.614145
      13A     -1.143948    14A     -1.049527    15A     -1.024626
      16A     -0.916310    17A     -0.909793    18A     -0.830987
      19A     -0.806755    20A     -0.751464    21A     -0.646800
      22A     -0.632962    23A     -0.599187    24A     -0.596651
      25A     -0.570656    26A     -0.554241    27A     -0.542156
      28A     -0.531021    29A     -0.518005    30A     -0.499990
      31A     -0.486500    32A     -0.480481    33A     -0.456199
      34A     -0.431578    35A     -0.392014    36A     -0.330908

  @DF-RHF Final Energy:  -670.85079639197090

   => Energetics <=

    Nuclear Repulsion Energy =            467.8133060833467880
    One-Electron Energy =               -1847.2138877218321795
    Two-Electron Energy =                 708.5497852465144888
    Total Energy =                       -670.8507963919709027
  Basis Set: (AUG-CC-PVTZ AUX)
    Blend: AUG-CC-PVTZ-RI
    Molecular point group: c1

    Geometry (in Angstrom), charge = 0, multiplicity = 1:

       Center              X                  Y                   Z               Mass
    ------------   -----------------  -----------------  -----------------  -----------------
         S            0.957268908950    -1.761413117712     0.042149238074    31.972071174400
         C           -0.614147391050     0.097031582288    -0.270168061926    12.000000000000
         C            0.787764908950     0.048590882288     0.376259238074    12.000000000000
         C           -0.846029091050    -1.461229117712    -0.139813761926    12.000000000000
         C           -1.685721091050     0.920176882288     0.448357238074    12.000000000000
         C            1.849781908950     0.932001882288    -0.250617761926    12.000000000000
         C           -3.060649091050     0.773353882288    -0.200334761926    12.000000000000
         C            1.573017908950     2.420690882288    -0.045133761926    12.000000000000
         H           -0.545638091050     0.342912882288    -1.292865761926     1.007825032230
         H            0.742942908950     0.216505882288     1.460602238074     1.007825032230
         H           -1.389235091050    -1.748926117712     0.766062238074     1.007825032230
         H           -1.299048091050    -1.948462117712    -1.005963761926     1.007825032230
         H           -1.375597091050     1.971544882288     0.427548238074     1.007825032230
         H           -1.740895091050     0.632386882288     1.506521238074     1.007825032230
         H            2.826257908950     0.673974882288     0.178445238074     1.007825032230
         H            1.907132908950     0.701555882288    -1.320700761926     1.007825032230
         H           -3.027066091050     1.068457882288    -1.253752761926     1.007825032230
         H           -3.804459091050     1.399119882288     0.301152238074     1.007825032230
         H           -3.409856091050    -0.262577117712    -0.152570761926     1.007825032230
         H            0.649019908950     2.724295882288    -0.544969761926     1.007825032230
         H            2.386097908950     3.026913882288    -0.455177761926     1.007825032230
         H            1.477920908950     2.661252882288     1.018365238074     1.007825032230

  Basis Set: AUG-CC-PVTZ
    Blend: AUG-CC-PVTZ
  Basis Set: (AUG-CC-PVTZ AUX)
    Blend: AUG-CC-PVTZ-JKFIT
	 Reference Energy          =    -670.8507963919709027 [Eh]
	 Singles Energy            =      -0.0000000000000000 [Eh]
	 Same-Spin Energy          =      -0.3555768785723445 [Eh]
	 Opposite-Spin Energy      =      -1.2391249324404152 [Eh]
	 Correlation Energy        =      -1.5947018110127598 [Eh]
	 Total Energy              =    -672.4454982029836856 [Eh]

	 ================> DF-SCS-MP2 Energies <==================
	-----------------------------------------------------------
	 SCS Same-Spin Scale       =       0.3333333333333333 [-]
	 SCS Opposite-Spin Scale   =       1.2000000000000000 [-]
	 SCS Same-Spin Energy      =      -0.1185256261907815 [Eh]
	 SCS Opposite-Spin Energy  =      -1.4869499189284983 [Eh]
	 SCS Correlation Energy    =      -1.6054755451192797 [Eh]
	 SCS Total Energy          =    -672.4562719370901505 [Eh]
	-----------------------------------------------------------

  Dipole Moment: [D]
     X:    -1.2842      Y:     1.7837      Z:     0.0305     Total:     2.1981

*** Psi4 exiting successfully. Buy a developer a beer!
