                               Psi4 1.3.2 release

  ==> Input File <==

--------------------------------------------------------------------------
#psi4
#
memory 32 gb

molecule  {
0 1
  S        1.0039920    -1.8370330     0.0416350
  C       -0.5844320    -0.0144930    -0.2342400
  C        0.8365797     0.0800656     0.3635535
  C       -0.7993060    -1.5368490    -0.1403280
  C       -1.6389980     0.8445570     0.4478430
  C        1.8965050     0.8563820    -0.2511320
  C       -3.0139260     0.6977340    -0.2008490
  C        1.6197410     2.3450710    -0.0456480
  H       -0.4989150     0.2672930    -1.2933800
  H        0.7896660     0.1408860     1.4600880
  H       -1.3425120    -1.8245460     0.7655480
  H       -1.2523250    -2.0240820    -1.0064780
  H       -1.3288740     1.8959250     0.4270340
  H       -1.6941720     0.5567670     1.5060070
  H        2.8729810     0.5983550     0.1779310
  H        1.9538560     0.6259360    -1.3212150
  H       -2.9803430     0.9928380    -1.2542670
  H       -3.7577360     1.3235000     0.3006380
  H       -3.3631330    -0.3381970    -0.1530850
  H        0.6957430     2.6486760    -0.5454840
  H        2.4328210     2.9512940    -0.4556920
  H        1.5246440     2.5856330     1.0178510
units angstrom
no_reorient  #important for SAPT in psi4, default
symmetry c1  #important for SAPT in psi4, default
}

set PROPERTIES_ORIGIN ["COM"]
properties('MP2/aug-cc-pvtz', properties = ['dipole'])
--------------------------------------------------------------------------

    Molecular point group: c1
  Charge       = 0
  Multiplicity = 1
  Basis Set: AUG-CC-PVTZ
    Blend: AUG-CC-PVTZ
  Basis Set: (AUG-CC-PVTZ AUX)
    Blend: AUG-CC-PVTZ-JKFIT

    Orbital Energies [Eh]
    ---------------------

    Doubly Occupied:

       1A    -91.930260     2A    -11.263308     3A    -11.251472
       4A    -11.242083     5A    -11.226993     6A    -11.225707
       7A    -11.221363     8A    -11.220048     9A     -8.929919
      10A     -6.610683    11A     -6.610212    12A     -6.609092
      13A     -1.145162    14A     -1.060361    15A     -1.024488
      16A     -0.921753    17A     -0.906195    18A     -0.830268
      19A     -0.807371    20A     -0.749718    21A     -0.654814
      22A     -0.635819    23A     -0.603859    24A     -0.598464
      25A     -0.572768    26A     -0.557804    27A     -0.540676
      28A     -0.530327    29A     -0.523720    30A     -0.502729
      31A     -0.492689    32A     -0.473643    33A     -0.458012
      34A     -0.435860    35A     -0.374114    36A     -0.328540

  @DF-RHF Final Energy:  -670.84487578930941

   => Energetics <=

    Nuclear Repulsion Energy =            467.6274527859681029
    One-Electron Energy =               -1846.8040691612288811
    Two-Electron Energy =                 708.3317405859514793
    Total Energy =                       -670.8448757893094125
  Basis Set: (AUG-CC-PVTZ AUX)
    Blend: AUG-CC-PVTZ-RI
    Molecular point group: c1

    Geometry (in Angstrom), charge = 0, multiplicity = 1:

       Center              X                  Y                   Z               Mass
    ------------   -----------------  -----------------  -----------------  -----------------
         S            0.958644906556    -1.767980369790     0.039912107291    31.972071174400
         C           -0.629779093444     0.054559630210    -0.235962892709    12.000000000000
         C            0.791232606556     0.149118230210     0.361830607291    12.000000000000
         C           -0.844653093444    -1.467796369790    -0.142050892709    12.000000000000
         C           -1.684345093444     0.913609630210     0.446120107291    12.000000000000
         C            1.851157906556     0.925434630210    -0.252854892709    12.000000000000
         C           -3.059273093444     0.766786630210    -0.202571892709    12.000000000000
         C            1.574393906556     2.414123630210    -0.047370892709    12.000000000000
         H           -0.544262093444     0.336345630210    -1.295102892709     1.007825032230
         H            0.744318906556     0.209938630210     1.458365107291     1.007825032230
         H           -1.387859093444    -1.755493369790     0.763825107291     1.007825032230
         H           -1.297672093444    -1.955029369790    -1.008200892709     1.007825032230
         H           -1.374221093444     1.964977630210     0.425311107291     1.007825032230
         H           -1.739519093444     0.625819630210     1.504284107291     1.007825032230
         H            2.827633906556     0.667407630210     0.176208107291     1.007825032230
         H            1.908508906556     0.694988630210    -1.322937892709     1.007825032230
         H           -3.025690093444     1.061890630210    -1.255989892709     1.007825032230
         H           -3.803083093444     1.392552630210     0.298915107291     1.007825032230
         H           -3.408480093444    -0.269144369790    -0.154807892709     1.007825032230
         H            0.650395906556     2.717728630210    -0.547206892709     1.007825032230
         H            2.387473906556     3.020346630210    -0.457414892709     1.007825032230
         H            1.479296906556     2.654685630210     1.016128107291     1.007825032230

  Basis Set: AUG-CC-PVTZ
    Blend: AUG-CC-PVTZ
  Basis Set: (AUG-CC-PVTZ AUX)
    Blend: AUG-CC-PVTZ-JKFIT
	 Reference Energy          =    -670.8448757893094125 [Eh]
	 Singles Energy            =      -0.0000000000000000 [Eh]
	 Same-Spin Energy          =      -0.3564393224406396 [Eh]
	 Opposite-Spin Energy      =      -1.2403962924722838 [Eh]
	 Correlation Energy        =      -1.5968356149129233 [Eh]
	 Total Energy              =    -672.4417114042223602 [Eh]

	 ================> DF-SCS-MP2 Energies <==================
	-----------------------------------------------------------
	 SCS Same-Spin Scale       =       0.3333333333333333 [-]
	 SCS Opposite-Spin Scale   =       1.2000000000000000 [-]
	 SCS Same-Spin Energy      =      -0.1188131074802132 [Eh]
	 SCS Opposite-Spin Energy  =      -1.4884755509667404 [Eh]
	 SCS Correlation Energy    =      -1.6072886584469537 [Eh]
	 SCS Total Energy          =    -672.4521644477563314 [Eh]
	-----------------------------------------------------------

  Dipole Moment: [D]
     X:    -1.2175      Y:     1.9919      Z:     0.0296     Total:     2.3347

*** Psi4 exiting successfully. Buy a developer a beer!
