                               Psi4 1.3.2 release

  ==> Input File <==

--------------------------------------------------------------------------
#psi4
#
memory 32 gb

molecule  {
0 1
  S        1.0039920    -1.8370330     0.0416350
  C       -0.5844320    -0.0144930    -0.2342400
  C        0.8026665    -0.0294239     0.3710178
  C       -0.7993060    -1.5368490    -0.1403280
  C       -1.6389980     0.8445570     0.4478430
  C        1.8965050     0.8563820    -0.2511320
  C       -3.0139260     0.6977340    -0.2008490
  C        1.6197410     2.3450710    -0.0456480
  H       -0.4989150     0.2672930    -1.2933800
  H        0.7896660     0.1408860     1.4600880
  H       -1.3425120    -1.8245460     0.7655480
  H       -1.2523250    -2.0240820    -1.0064780
  H       -1.3288740     1.8959250     0.4270340
  H       -1.6941720     0.5567670     1.5060070
  H        2.8729810     0.5983550     0.1779310
  H        1.9538560     0.6259360    -1.3212150
  H       -2.9803430     0.9928380    -1.2542670
  H       -3.7577360     1.3235000     0.3006380
  H       -3.3631330    -0.3381970    -0.1530850
  H        0.6957430     2.6486760    -0.5454840
  H        2.4328210     2.9512940    -0.4556920
  H        1.5246440     2.5856330     1.0178510
units angstrom
no_reorient  #important for SAPT in psi4, default
symmetry c1  #important for SAPT in psi4, default
}

set PROPERTIES_ORIGIN ["COM"]
properties('MP2/aug-cc-pvtz', properties = ['dipole'])
--------------------------------------------------------------------------

    Molecular point group: c1
  Charge       = 0
  Multiplicity = 1
  Basis Set: AUG-CC-PVTZ
    Blend: AUG-CC-PVTZ
  Basis Set: (AUG-CC-PVTZ AUX)
    Blend: AUG-CC-PVTZ-JKFIT

    Orbital Energies [Eh]
    ---------------------

    Doubly Occupied:

       1A    -91.934411     2A    -11.257373     3A    -11.252927
       4A    -11.237452     5A    -11.226948     6A    -11.226432
       7A    -11.220109     8A    -11.219102     9A     -8.934949
      10A     -6.615751    11A     -6.615393    12A     -6.614147
      13A     -1.151117    14A     -1.048721    15A     -1.026456
      16A     -0.917372    17A     -0.910000    18A     -0.831429
      19A     -0.807782    20A     -0.746372    21A     -0.650450
      22A     -0.632998    23A     -0.601874    24A     -0.597206
      25A     -0.570104    26A     -0.554976    27A     -0.539950
      28A     -0.530704    29A     -0.518745    30A     -0.502100
      31A     -0.483762    32A     -0.471105    33A     -0.460910
      34A     -0.434320    35A     -0.396038    36A     -0.330762

  @DF-RHF Final Energy:  -670.85240502492832

   => Energetics <=

    Nuclear Repulsion Energy =            468.4292569389397158
    One-Electron Energy =               -1848.4228304521909649
    Two-Electron Energy =                 709.1411684883229327
    Total Energy =                       -670.8524050249283164
  Basis Set: (AUG-CC-PVTZ AUX)
    Blend: AUG-CC-PVTZ-RI
    Molecular point group: c1

    Geometry (in Angstrom), charge = 0, multiplicity = 1:

       Center              X                  Y                   Z               Mass
    ------------   -----------------  -----------------  -----------------  -----------------
         S            0.961773391541    -1.757879988325     0.039223527314    31.972071174400
         C           -0.626650608459     0.064660011674    -0.236651472686    12.000000000000
         C            0.760447891541     0.049729111674     0.368606327314    12.000000000000
         C           -0.841524608459    -1.457695988325    -0.142739472686    12.000000000000
         C           -1.681216608459     0.923710011675     0.445431527314    12.000000000000
         C            1.854286391541     0.935535011675    -0.253543472686    12.000000000000
         C           -3.056144608459     0.776887011674    -0.203260472686    12.000000000000
         C            1.577522391541     2.424224011674    -0.048059472686    12.000000000000
         H           -0.541133608459     0.346446011674    -1.295791472686     1.007825032230
         H            0.747447391541     0.220039011674     1.457676527314     1.007825032230
         H           -1.384730608459    -1.745392988325     0.763136527314     1.007825032230
         H           -1.294543608459    -1.944928988325    -1.008889472686     1.007825032230
         H           -1.371092608459     1.975078011675     0.424622527314     1.007825032230
         H           -1.736390608459     0.635920011674     1.503595527314     1.007825032230
         H            2.830762391541     0.677508011674     0.175519527314     1.007825032230
         H            1.911637391541     0.705089011674    -1.323626472686     1.007825032230
         H           -3.022561608459     1.071991011674    -1.256678472686     1.007825032230
         H           -3.799954608459     1.402653011674     0.298226527314     1.007825032230
         H           -3.405351608459    -0.259043988326    -0.155496472686     1.007825032230
         H            0.653524391541     2.727829011674    -0.547895472686     1.007825032230
         H            2.390602391541     3.030447011674    -0.458103472686     1.007825032230
         H            1.482425391541     2.664786011674     1.015439527314     1.007825032230

  Basis Set: AUG-CC-PVTZ
    Blend: AUG-CC-PVTZ
  Basis Set: (AUG-CC-PVTZ AUX)
    Blend: AUG-CC-PVTZ-JKFIT
	 Reference Energy          =    -670.8524050249283164 [Eh]
	 Singles Energy            =      -0.0000000000000000 [Eh]
	 Same-Spin Energy          =      -0.3558915985524124 [Eh]
	 Opposite-Spin Energy      =      -1.2392775327108581 [Eh]
	 Correlation Energy        =      -1.5951691312632703 [Eh]
	 Total Energy              =    -672.4475741561915356 [Eh]

	 ================> DF-SCS-MP2 Energies <==================
	-----------------------------------------------------------
	 SCS Same-Spin Scale       =       0.3333333333333333 [-]
	 SCS Opposite-Spin Scale   =       1.2000000000000000 [-]
	 SCS Same-Spin Energy      =      -0.1186305328508041 [Eh]
	 SCS Opposite-Spin Energy  =      -1.4871330392530295 [Eh]
	 SCS Correlation Energy    =      -1.6057635721038337 [Eh]
	 SCS Total Energy          =    -672.4581685970321132 [Eh]
	-----------------------------------------------------------

  Dipole Moment: [D]
     X:    -1.2802      Y:     1.7563      Z:     0.0460     Total:     2.1739

*** Psi4 exiting successfully. Buy a developer a beer!
