                               Psi4 1.4a3.dev225

  ==> Input File <==

--------------------------------------------------------------------------
#psi4
#
memory 32 gb

molecule  {
0 1
  N        0.5963620     0.0240630    -0.0000100
  N       -0.0914470    -1.1353650    -0.0000170
  C       -0.2099680     1.1214940     0.0000230
  C        2.0462730    -0.0202480    -0.0000060
  C       -1.5131730     0.6485270     0.0000150
  C       -1.3848740    -0.7486420    -0.0000060
  H        0.1985450     2.1230060     0.0000470
  H        2.4129273    -0.5675380     0.9317843
  H        2.3968520    -0.5436990    -0.8908890
  H        2.4236260     1.0030860    -0.0000880
  H       -2.4195430     1.2372430     0.0000190
  H       -2.1602880    -1.5037500    -0.0000180
units angstrom
no_reorient  #important for SAPT in psi4, default
symmetry c1  #important for SAPT in psi4, default
}

set PROPERTIES_ORIGIN ["COM"]
properties('MP2/aug-cc-pvtz', properties = ['dipole'])
--------------------------------------------------------------------------

    Molecular point group: c1
  Charge       = 0
  Multiplicity = 1
  Basis Set: AUG-CC-PVTZ
    Blend: AUG-CC-PVTZ
  Basis Set: (AUG-CC-PVTZ AUX)
    Blend: AUG-CC-PVTZ-JKFIT

    Orbital Energies [Eh]
    ---------------------

    Doubly Occupied:

       1A    -15.642257     2A    -15.582343     3A    -11.280048
       4A    -11.275540     5A    -11.251229     6A    -11.219907
       7A     -1.372958     8A     -1.115763     9A     -1.054823
      10A     -0.942423    11A     -0.804389    12A     -0.771723
      13A     -0.713890    14A     -0.646955    15A     -0.611241
      16A     -0.581516    17A     -0.569502    18A     -0.545785
      19A     -0.539648    20A     -0.456355    21A     -0.349069
      22A     -0.340945

  @DF-RHF Final Energy:  -263.91624808857375

   => Energetics <=

    Nuclear Repulsion Energy =            225.9964179734477625
    One-Electron Energy =                -804.4887145223067364
    Two-Electron Energy =                 314.5760484602852785
    Total Energy =                       -263.9162480885737523
  Basis Set: (AUG-CC-PVTZ AUX)
    Blend: AUG-CC-PVTZ-RI
    Molecular point group: c1

    Geometry (in Angstrom), charge = 0, multiplicity = 1:

       Center              X                  Y                   Z               Mass
    ------------   -----------------  -----------------  -----------------  -----------------
         N            0.630438771321     0.045829920530    -0.000511003764    14.003074004430
         N           -0.057370228679    -1.113598079470    -0.000518003764    14.003074004430
         C           -0.175891228679     1.143260920530    -0.000478003764    12.000000000000
         C            2.080349771321     0.001518920530    -0.000507003764    12.000000000000
         C           -1.479096228679     0.670293920530    -0.000486003764    12.000000000000
         C           -1.350797228679    -0.726875079470    -0.000507003764    12.000000000000
         H            0.232621771321     2.144772920530    -0.000454003764     1.007825032230
         H            2.447004071321    -0.545771079470     0.931283296236     1.007825032230
         H            2.430928771321    -0.521932079470    -0.891390003764     1.007825032230
         H            2.457702771321     1.024852920530    -0.000589003764     1.007825032230
         H           -2.385466228679     1.259009920530    -0.000482003764     1.007825032230
         H           -2.126211228679    -1.481983079470    -0.000519003764     1.007825032230

  Basis Set: AUG-CC-PVTZ
    Blend: AUG-CC-PVTZ
  Basis Set: (AUG-CC-PVTZ AUX)
    Blend: AUG-CC-PVTZ-JKFIT
	 Reference Energy          =    -263.9162480885737523 [Eh]
	 Singles Energy            =      -0.0000000000000000 [Eh]
	 Same-Spin Energy          =      -0.2883401605171660 [Eh]
	 Opposite-Spin Energy      =      -0.9017730748526764 [Eh]
	 Correlation Energy        =      -1.1901132353698425 [Eh]
	 Total Energy              =    -265.1063613239435881 [Eh]

	 ================> DF-SCS-MP2 Energies <==================
	-----------------------------------------------------------
	 SCS Same-Spin Scale       =       0.3333333333333333 [-]
	 SCS Opposite-Spin Scale   =       1.2000000000000000 [-]
	 SCS Same-Spin Energy      =      -0.0961133868390553 [Eh]
	 SCS Opposite-Spin Energy  =      -1.0821276898232117 [Eh]
	 SCS Correlation Energy    =      -1.1782410766622671 [Eh]
	 SCS Total Energy          =    -265.0944891652360411 [Eh]
	-----------------------------------------------------------

  Dipole Moment: [D]
     X:     1.3143      Y:     2.0612      Z:    -0.0112     Total:     2.4445

*** Psi4 exiting successfully. Buy a developer a beer!
