                               Psi4 1.4a3.dev225

  ==> Input File <==

--------------------------------------------------------------------------
#psi4
#
memory 32 gb

molecule  {
0 1
  N        0.5963620     0.0240630    -0.0000100
  N       -0.0914470    -1.1353650    -0.0000170
  C       -0.2099680     1.1214940     0.0000230
  C        2.0462730    -0.0202480    -0.0000060
  C       -1.5131730     0.6485270     0.0000150
  C       -1.3848740    -0.7486420    -0.0000060
  H        0.1985450     2.1230060     0.0000470
  H        2.3968620    -0.5435580     0.8909570
  H        2.3968520    -0.5436990    -0.8908890
  H        2.4063272     0.9561738    -0.0000842
  H       -2.4195430     1.2372430     0.0000190
  H       -2.1602880    -1.5037500    -0.0000180
units angstrom
no_reorient  #important for SAPT in psi4, default
symmetry c1  #important for SAPT in psi4, default
}

set PROPERTIES_ORIGIN ["COM"]
properties('MP2/aug-cc-pvtz', properties = ['dipole'])
--------------------------------------------------------------------------

    Molecular point group: c1
  Charge       = 0
  Multiplicity = 1
  Basis Set: AUG-CC-PVTZ
    Blend: AUG-CC-PVTZ
  Basis Set: (AUG-CC-PVTZ AUX)
    Blend: AUG-CC-PVTZ-JKFIT

    Orbital Energies [Eh]
    ---------------------

    Doubly Occupied:

       1A    -15.641401     2A    -15.581887     3A    -11.275068
       4A    -11.268422     5A    -11.250670     6A    -11.219514
       7A     -1.372508     8A     -1.117298     9A     -1.054646
      10A     -0.949415    11A     -0.804598    12A     -0.772967
      13A     -0.715541    14A     -0.649636    15A     -0.616962
      16A     -0.581965    17A     -0.571414    18A     -0.548606
      19A     -0.544816    20A     -0.455912    21A     -0.348873
      22A     -0.340597

  @DF-RHF Final Energy:  -263.91740092393746

   => Energetics <=

    Nuclear Repulsion Energy =            226.4243096415360696
    One-Electron Energy =                -805.3179910635492433
    Two-Electron Energy =                 314.9762804980757096
    Total Energy =                       -263.9174009239374641
  Basis Set: (AUG-CC-PVTZ AUX)
    Blend: AUG-CC-PVTZ-RI
    Molecular point group: c1

    Geometry (in Angstrom), charge = 0, multiplicity = 1:

       Center              X                  Y                   Z               Mass
    ------------   -----------------  -----------------  -----------------  -----------------
         N            0.630848569073     0.046111587472    -0.000009585218    14.003074004430
         N           -0.056960430927    -1.113316412528    -0.000016585218    14.003074004430
         C           -0.175481430927     1.143542587472     0.000023414782    12.000000000000
         C            2.080759569073     0.001800587472    -0.000005585218    12.000000000000
         C           -1.478686430927     0.670575587472     0.000015414782    12.000000000000
         C           -1.350387430927    -0.726593412528    -0.000005585218    12.000000000000
         H            0.233031569073     2.145054587472     0.000047414782     1.007825032230
         H            2.431348569073    -0.521509412528     0.890957414782     1.007825032230
         H            2.431338569073    -0.521650412528    -0.890888585218     1.007825032230
         H            2.440813769073     0.978222387472    -0.000083785218     1.007825032230
         H           -2.385056430927     1.259291587472     0.000019414782     1.007825032230
         H           -2.125801430927    -1.481701412528    -0.000017585218     1.007825032230

  Basis Set: AUG-CC-PVTZ
    Blend: AUG-CC-PVTZ
  Basis Set: (AUG-CC-PVTZ AUX)
    Blend: AUG-CC-PVTZ-JKFIT
	 Reference Energy          =    -263.9174009239374641 [Eh]
	 Singles Energy            =      -0.0000000000000000 [Eh]
	 Same-Spin Energy          =      -0.2883167994812038 [Eh]
	 Opposite-Spin Energy      =      -0.9011355597155276 [Eh]
	 Correlation Energy        =      -1.1894523591967314 [Eh]
	 Total Energy              =    -265.1068532831341713 [Eh]

	 ================> DF-SCS-MP2 Energies <==================
	-----------------------------------------------------------
	 SCS Same-Spin Scale       =       0.3333333333333333 [-]
	 SCS Opposite-Spin Scale   =       1.2000000000000000 [-]
	 SCS Same-Spin Energy      =      -0.0961055998270679 [Eh]
	 SCS Opposite-Spin Energy  =      -1.0813626716586331 [Eh]
	 SCS Correlation Energy    =      -1.1774682714857010 [Eh]
	 SCS Total Energy          =    -265.0948691954231435 [Eh]
	-----------------------------------------------------------

  Dipole Moment: [D]
     X:     1.3536      Y:     2.0679      Z:     0.0000     Total:     2.4715

*** Psi4 exiting successfully. Buy a developer a beer!
