                               Psi4 1.4a3.dev225

  ==> Input File <==

--------------------------------------------------------------------------
#psi4
#
memory 32 gb

molecule  {
0 1
  N        0.5963620     0.0240630    -0.0000100
  N       -0.0914470    -1.1353650    -0.0000170
  C       -0.2099680     1.1214940     0.0000230
  C        2.0462730    -0.0202480    -0.0000060
  C       -1.5131730     0.6485270     0.0000150
  C       -1.3848740    -0.7486420    -0.0000060
  H        0.1985450     2.1230060     0.0000470
  H        2.3807967    -0.5195780     0.8501297
  H        2.3968520    -0.5436990    -0.8908890
  H        2.4236260     1.0030860    -0.0000880
  H       -2.4195430     1.2372430     0.0000190
  H       -2.1602880    -1.5037500    -0.0000180
units angstrom
no_reorient  #important for SAPT in psi4, default
symmetry c1  #important for SAPT in psi4, default
}

set PROPERTIES_ORIGIN ["COM"]
properties('MP2/aug-cc-pvtz', properties = ['dipole'])
--------------------------------------------------------------------------

    Molecular point group: c1
  Charge       = 0
  Multiplicity = 1
  Basis Set: AUG-CC-PVTZ
    Blend: AUG-CC-PVTZ
  Basis Set: (AUG-CC-PVTZ AUX)
    Blend: AUG-CC-PVTZ-JKFIT

    Orbital Energies [Eh]
    ---------------------

    Doubly Occupied:

       1A    -15.641337     2A    -15.582052     3A    -11.274843
       4A    -11.268648     5A    -11.250668     6A    -11.219353
       7A     -1.372536     8A     -1.116940     9A     -1.054793
      10A     -0.949380    11A     -0.803879    12A     -0.773318
      13A     -0.715077    14A     -0.653865    15A     -0.613761
      16A     -0.581491    17A     -0.570153    18A     -0.549831
      19A     -0.545131    20A     -0.456037    21A     -0.349159
      22A     -0.340599

  @DF-RHF Final Energy:  -263.91739130500423

   => Energetics <=

    Nuclear Repulsion Energy =            226.4270003575399812
    One-Electron Energy =                -805.3230784764994041
    Two-Electron Energy =                 314.9786868139551643
    Total Energy =                       -263.9173913050042302
  Basis Set: (AUG-CC-PVTZ AUX)
    Blend: AUG-CC-PVTZ-RI
    Molecular point group: c1

    Geometry (in Angstrom), charge = 0, multiplicity = 1:

       Center              X                  Y                   Z               Mass
    ------------   -----------------  -----------------  -----------------  -----------------
         N            0.630833418491     0.045240847240     0.000491926676    14.003074004430
         N           -0.056975581509    -1.114187152760     0.000484926676    14.003074004430
         C           -0.175496581509     1.142671847240     0.000524926676    12.000000000000
         C            2.080744418491     0.000929847240     0.000495926676    12.000000000000
         C           -1.478701581509     0.669704847240     0.000516926676    12.000000000000
         C           -1.350402581509    -0.727464152760     0.000495926676    12.000000000000
         H            0.233016418491     2.144183847240     0.000548926676     1.007825032230
         H            2.415268118491    -0.498400152760     0.850631626676     1.007825032230
         H            2.431323418491    -0.522521152760    -0.890387073324     1.007825032230
         H            2.458097418491     1.024263847240     0.000413926676     1.007825032230
         H           -2.385071581509     1.258420847240     0.000520926676     1.007825032230
         H           -2.125816581509    -1.482572152760     0.000483926676     1.007825032230

  Basis Set: AUG-CC-PVTZ
    Blend: AUG-CC-PVTZ
  Basis Set: (AUG-CC-PVTZ AUX)
    Blend: AUG-CC-PVTZ-JKFIT
	 Reference Energy          =    -263.9173913050042302 [Eh]
	 Singles Energy            =      -0.0000000000000000 [Eh]
	 Same-Spin Energy          =      -0.2883218762671869 [Eh]
	 Opposite-Spin Energy      =      -0.9011607675302526 [Eh]
	 Correlation Energy        =      -1.1894826437974395 [Eh]
	 Total Energy              =    -265.1068739488016490 [Eh]

	 ================> DF-SCS-MP2 Energies <==================
	-----------------------------------------------------------
	 SCS Same-Spin Scale       =       0.3333333333333333 [-]
	 SCS Opposite-Spin Scale   =       1.2000000000000000 [-]
	 SCS Same-Spin Energy      =      -0.0961072920890623 [Eh]
	 SCS Opposite-Spin Energy  =      -1.0813929210363031 [Eh]
	 SCS Correlation Energy    =      -1.1775002131253653 [Eh]
	 SCS Total Energy          =    -265.0948915181296002 [Eh]
	-----------------------------------------------------------

  Dipole Moment: [D]
     X:     1.3622      Y:     2.0551      Z:     0.0085     Total:     2.4656

*** Psi4 exiting successfully. Buy a developer a beer!
