                               Psi4 1.4a3.dev225

  ==> Input File <==

--------------------------------------------------------------------------
#psi4
#
memory 32 gb

molecule  {
0 1
  N        0.5963620     0.0240630    -0.0000100
  N       -0.0914470    -1.1353650    -0.0000170
  C       -0.2099680     1.1214940     0.0000230
  C        2.0462730    -0.0202480    -0.0000060
  C       -1.5131730     0.6485270     0.0000150
  C       -1.3848740    -0.7486420    -0.0000060
  H        0.1985450     2.1230060     0.0000470
  H        2.4032881    -0.5531500     0.9072879
  H        2.3968520    -0.5436990    -0.8908890
  H        2.4236260     1.0030860    -0.0000880
  H       -2.4195430     1.2372430     0.0000190
  H       -2.1602880    -1.5037500    -0.0000180
units angstrom
no_reorient  #important for SAPT in psi4, default
symmetry c1  #important for SAPT in psi4, default
}

set PROPERTIES_ORIGIN ["COM"]
properties('MP2/aug-cc-pvtz', properties = ['dipole'])
--------------------------------------------------------------------------

    Molecular point group: c1
  Charge       = 0
  Multiplicity = 1
  Basis Set: AUG-CC-PVTZ
    Blend: AUG-CC-PVTZ
  Basis Set: (AUG-CC-PVTZ AUX)
    Blend: AUG-CC-PVTZ-JKFIT

    Orbital Energies [Eh]
    ---------------------

    Doubly Occupied:

       1A    -15.641951     2A    -15.582238     3A    -11.276698
       4A    -11.275309     5A    -11.251041     6A    -11.219721
       7A     -1.372804     8A     -1.116015     9A     -1.054775
      10A     -0.944241    11A     -0.804216    12A     -0.772101
      13A     -0.714145    14A     -0.648737    15A     -0.611977
      16A     -0.581449    17A     -0.569622    18A     -0.545562
      19A     -0.543124    20A     -0.456245    21A     -0.349087
      22A     -0.340827

  @DF-RHF Final Energy:  -263.91785925031184

   => Energetics <=

    Nuclear Repulsion Energy =            226.1200554639411848
    One-Electron Energy =                -804.7320605905116508
    Two-Electron Energy =                 314.6941458762586308
    Total Energy =                       -263.9178592503118352
  Basis Set: (AUG-CC-PVTZ AUX)
    Blend: AUG-CC-PVTZ-RI
    Molecular point group: c1

    Geometry (in Angstrom), charge = 0, multiplicity = 1:

       Center              X                  Y                   Z               Mass
    ------------   -----------------  -----------------  -----------------  -----------------
         N            0.630557165717     0.045653198543    -0.000210124386    14.003074004430
         N           -0.057251834283    -1.113774801457    -0.000217124386    14.003074004430
         C           -0.175772834283     1.143084198543    -0.000177124386    12.000000000000
         C            2.080468165717     0.001342198543    -0.000206124386    12.000000000000
         C           -1.478977834283     0.670117198543    -0.000185124386    12.000000000000
         C           -1.350678834283    -0.727051801457    -0.000206124386    12.000000000000
         H            0.232740165717     2.144596198543    -0.000153124386     1.007825032230
         H            2.437483265717    -0.531559801457     0.907087775614     1.007825032230
         H            2.431047165717    -0.522108801457    -0.891089124386     1.007825032230
         H            2.457821165717     1.024676198543    -0.000288124386     1.007825032230
         H           -2.385347834283     1.258833198543    -0.000181124386     1.007825032230
         H           -2.126092834283    -1.482159801457    -0.000218124386     1.007825032230

  Basis Set: AUG-CC-PVTZ
    Blend: AUG-CC-PVTZ
  Basis Set: (AUG-CC-PVTZ AUX)
    Blend: AUG-CC-PVTZ-JKFIT
	 Reference Energy          =    -263.9178592503118352 [Eh]
	 Singles Energy            =      -0.0000000000000000 [Eh]
	 Same-Spin Energy          =      -0.2883310581885273 [Eh]
	 Opposite-Spin Energy      =      -0.9015651726509920 [Eh]
	 Correlation Energy        =      -1.1898962308395193 [Eh]
	 Total Energy              =    -265.1077554811513437 [Eh]

	 ================> DF-SCS-MP2 Energies <==================
	-----------------------------------------------------------
	 SCS Same-Spin Scale       =       0.3333333333333333 [-]
	 SCS Opposite-Spin Scale   =       1.2000000000000000 [-]
	 SCS Same-Spin Energy      =      -0.0961103527295091 [Eh]
	 SCS Opposite-Spin Energy  =      -1.0818782071811903 [Eh]
	 SCS Correlation Energy    =      -1.1779885599106994 [Eh]
	 SCS Total Energy          =    -265.0958478102225513 [Eh]
	-----------------------------------------------------------

  Dipole Moment: [D]
     X:     1.3304      Y:     2.0587      Z:    -0.0041     Total:     2.4512

*** Psi4 exiting successfully. Buy a developer a beer!
