                               Psi4 1.4a3.dev225

  ==> Input File <==

--------------------------------------------------------------------------
#psi4
#
memory 32 gb

molecule  {
0 1
  N        0.5963620     0.0240630    -0.0000100
  N       -0.0914470    -1.1353650    -0.0000170
  C       -0.2099680     1.1214940     0.0000230
  C        2.0462730    -0.0202480    -0.0000060
  C       -1.5131730     0.6485270     0.0000150
  C       -1.3848740    -0.7486420    -0.0000060
  H        0.1985450     2.1230060     0.0000470
  H        2.3968620    -0.5435580     0.8909570
  H        2.3968520    -0.5436990    -0.8908890
  H        2.4236260     1.0030860    -0.0000880
  H       -2.4614742     1.2644786     0.0000192
  H       -2.1602880    -1.5037500    -0.0000180
units angstrom
no_reorient  #important for SAPT in psi4, default
symmetry c1  #important for SAPT in psi4, default
}

set PROPERTIES_ORIGIN ["COM"]
properties('MP2/aug-cc-pvtz', properties = ['dipole'])
--------------------------------------------------------------------------

    Molecular point group: c1
  Charge       = 0
  Multiplicity = 1
  Basis Set: AUG-CC-PVTZ
    Blend: AUG-CC-PVTZ
  Basis Set: (AUG-CC-PVTZ AUX)
    Blend: AUG-CC-PVTZ-JKFIT

    Orbital Energies [Eh]
    ---------------------

    Doubly Occupied:

       1A    -15.642036     2A    -15.582517     3A    -11.275567
       4A    -11.274605     5A    -11.251365     6A    -11.225198
       7A     -1.373050     8A     -1.116425     9A     -1.054138
      10A     -0.944911    11A     -0.801173    12A     -0.772636
      13A     -0.711872    14A     -0.650311    15A     -0.608681
      16A     -0.578696    17A     -0.568460    18A     -0.545464
      19A     -0.544104    20A     -0.456157    21A     -0.349370
      22A     -0.341014

  @DF-RHF Final Energy:  -263.91588465368386

   => Energetics <=

    Nuclear Repulsion Energy =            225.9731838338478838
    One-Electron Energy =                -804.4426349365522810
    Two-Electron Energy =                 314.5535664490205363
    Total Energy =                       -263.9158846536838610
  Basis Set: (AUG-CC-PVTZ AUX)
    Blend: AUG-CC-PVTZ-RI
    Molecular point group: c1

    Geometry (in Angstrom), charge = 0, multiplicity = 1:

       Center              X                  Y                   Z               Mass
    ------------   -----------------  -----------------  -----------------  -----------------
         N            0.631151118883     0.045200860021    -0.000009541000    14.003074004430
         N           -0.056657881117    -1.114227139979    -0.000016541000    14.003074004430
         C           -0.175178881117     1.142631860021     0.000023459000    12.000000000000
         C            2.081062118883     0.000889860021    -0.000005541000    12.000000000000
         C           -1.478383881117     0.669664860021     0.000015459000    12.000000000000
         C           -1.350084881117    -0.727504139979    -0.000005541000    12.000000000000
         H            0.233334118883     2.144143860021     0.000047459000     1.007825032230
         H            2.431651118883    -0.522420139979     0.890957459000     1.007825032230
         H            2.431641118883    -0.522561139979    -0.890888541000     1.007825032230
         H            2.458415118883     1.024223860021    -0.000087541000     1.007825032230
         H           -2.426685081117     1.285616460021     0.000019659000     1.007825032230
         H           -2.125498881117    -1.482612139979    -0.000017541000     1.007825032230

  Basis Set: AUG-CC-PVTZ
    Blend: AUG-CC-PVTZ
  Basis Set: (AUG-CC-PVTZ AUX)
    Blend: AUG-CC-PVTZ-JKFIT
	 Reference Energy          =    -263.9158846536838610 [Eh]
	 Singles Energy            =      -0.0000000000000000 [Eh]
	 Same-Spin Energy          =      -0.2884083671784577 [Eh]
	 Opposite-Spin Energy      =      -0.9017730092445941 [Eh]
	 Correlation Energy        =      -1.1901813764230518 [Eh]
	 Total Energy              =    -265.1060660301068879 [Eh]

	 ================> DF-SCS-MP2 Energies <==================
	-----------------------------------------------------------
	 SCS Same-Spin Scale       =       0.3333333333333333 [-]
	 SCS Opposite-Spin Scale   =       1.2000000000000000 [-]
	 SCS Same-Spin Energy      =      -0.0961361223928192 [Eh]
	 SCS Opposite-Spin Energy  =      -1.0821276110935130 [Eh]
	 SCS Correlation Energy    =      -1.1782637334863322 [Eh]
	 SCS Total Energy          =    -265.0941483871702076 [Eh]
	-----------------------------------------------------------

  Dipole Moment: [D]
     X:     1.3462      Y:     2.0522      Z:     0.0000     Total:     2.4543

*** Psi4 exiting successfully. Buy a developer a beer!
