                               Psi4 1.4a3.dev225

  ==> Input File <==

--------------------------------------------------------------------------
#psi4
#
memory 32 gb

molecule  {
0 1
  N        0.5963620     0.0240630    -0.0000100
  N       -0.0914470    -1.1353650    -0.0000170
  C       -0.2099680     1.1214940     0.0000230
  C        2.0462730    -0.0202480    -0.0000060
  C       -1.5131730     0.6485270     0.0000150
  C       -1.3848740    -0.7486420    -0.0000060
  H        0.1985450     2.1230060     0.0000470
  H        2.3968620    -0.5435580     0.8909570
  H        2.4500729    -0.4467983    -0.9195600
  H        2.4236260     1.0030860    -0.0000880
  H       -2.4195430     1.2372430     0.0000190
  H       -2.1602880    -1.5037500    -0.0000180
units angstrom
no_reorient  #important for SAPT in psi4, default
symmetry c1  #important for SAPT in psi4, default
}

set PROPERTIES_ORIGIN ["COM"]
properties('MP2/aug-cc-pvtz', properties = ['dipole'])
--------------------------------------------------------------------------

    Molecular point group: c1
  Charge       = 0
  Multiplicity = 1
  Basis Set: AUG-CC-PVTZ
    Blend: AUG-CC-PVTZ
  Basis Set: (AUG-CC-PVTZ AUX)
    Blend: AUG-CC-PVTZ-JKFIT

    Orbital Energies [Eh]
    ---------------------

    Doubly Occupied:

       1A    -15.642393     2A    -15.582377     3A    -11.275420
       4A    -11.274408     5A    -11.250995     6A    -11.219918
       7A     -1.372805     8A     -1.116121     9A     -1.054752
      10A     -0.946134    11A     -0.804167    12A     -0.773122
      13A     -0.715800    14A     -0.651966    15A     -0.608632
      16A     -0.583049    17A     -0.568160    18A     -0.549289
      19A     -0.540331    20A     -0.456195    21A     -0.349911
      22A     -0.340959

  @DF-RHF Final Energy:  -263.91726673226572

   => Energetics <=

    Nuclear Repulsion Energy =            226.1225142735487452
    One-Electron Energy =                -804.7257525918529382
    Two-Electron Energy =                 314.6859715860384767
    Total Energy =                       -263.9172667322657162
  Basis Set: (AUG-CC-PVTZ AUX)
    Blend: AUG-CC-PVTZ-RI
    Molecular point group: c1

    Geometry (in Angstrom), charge = 0, multiplicity = 1:

       Center              X                  Y                   Z               Mass
    ------------   -----------------  -----------------  -----------------  -----------------
         N            0.629982404108     0.044345191763     0.000342615758    14.003074004430
         N           -0.057826595892    -1.115082808237     0.000335615758    14.003074004430
         C           -0.176347595892     1.141776191763     0.000375615758    12.000000000000
         C            2.079893404108     0.000034191763     0.000346615758    12.000000000000
         C           -1.479552595892     0.668809191763     0.000367615758    12.000000000000
         C           -1.351253595892    -0.728359808237     0.000346615758    12.000000000000
         H            0.232165404108     2.143288191763     0.000399615758     1.007825032230
         H            2.430482404108    -0.523275808237     0.891309615758     1.007825032230
         H            2.483693304108    -0.426516108237    -0.919207384242     1.007825032230
         H            2.457246404108     1.023368191763     0.000264615758     1.007825032230
         H           -2.385922595892     1.257525191763     0.000371615758     1.007825032230
         H           -2.126667595892    -1.483467808237     0.000334615758     1.007825032230

  Basis Set: AUG-CC-PVTZ
    Blend: AUG-CC-PVTZ
  Basis Set: (AUG-CC-PVTZ AUX)
    Blend: AUG-CC-PVTZ-JKFIT
	 Reference Energy          =    -263.9172667322657162 [Eh]
	 Singles Energy            =      -0.0000000000000000 [Eh]
	 Same-Spin Energy          =      -0.2883253952837599 [Eh]
	 Opposite-Spin Energy      =      -0.9014715004227500 [Eh]
	 Correlation Energy        =      -1.1897968957065099 [Eh]
	 Total Energy              =    -265.1070636279722521 [Eh]

	 ================> DF-SCS-MP2 Energies <==================
	-----------------------------------------------------------
	 SCS Same-Spin Scale       =       0.3333333333333333 [-]
	 SCS Opposite-Spin Scale   =       1.2000000000000000 [-]
	 SCS Same-Spin Energy      =      -0.0961084650945866 [Eh]
	 SCS Opposite-Spin Energy  =      -1.0817658005073001 [Eh]
	 SCS Correlation Energy    =      -1.1778742656018868 [Eh]
	 SCS Total Energy          =    -265.0951409978675883 [Eh]
	-----------------------------------------------------------

  Dipole Moment: [D]
     X:     1.3387      Y:     2.0917      Z:    -0.0205     Total:     2.4835

*** Psi4 exiting successfully. Buy a developer a beer!
