                               Psi4 1.4a3.dev225

  ==> Input File <==

--------------------------------------------------------------------------
#psi4
#
memory 32 gb

molecule  {
0 1
  N        0.5963620     0.0240630    -0.0000100
  N       -0.0914470    -1.1353650    -0.0000170
  C       -0.2099680     1.1214940     0.0000230
  C        2.0962497    -0.0217753    -0.0000059
  C       -1.5131730     0.6485270     0.0000150
  C       -1.3848740    -0.7486420    -0.0000060
  H        0.1985450     2.1230060     0.0000470
  H        2.3968620    -0.5435580     0.8909570
  H        2.3968520    -0.5436990    -0.8908890
  H        2.4236260     1.0030860    -0.0000880
  H       -2.4195430     1.2372430     0.0000190
  H       -2.1602880    -1.5037500    -0.0000180
units angstrom
no_reorient  #important for SAPT in psi4, default
symmetry c1  #important for SAPT in psi4, default
}

set PROPERTIES_ORIGIN ["COM"]
properties('MP2/aug-cc-pvtz', properties = ['dipole'])
--------------------------------------------------------------------------

    Molecular point group: c1
  Charge       = 0
  Multiplicity = 1
  Basis Set: AUG-CC-PVTZ
    Blend: AUG-CC-PVTZ
  Basis Set: (AUG-CC-PVTZ AUX)
    Blend: AUG-CC-PVTZ-JKFIT

    Orbital Energies [Eh]
    ---------------------

    Doubly Occupied:

       1A    -15.640526     2A    -15.580651     3A    -11.276192
       4A    -11.273061     5A    -11.248807     6A    -11.217796
       7A     -1.366847     8A     -1.107544     9A     -1.051936
      10A     -0.948918    11A     -0.800886    12A     -0.769279
      13A     -0.709816    14A     -0.649189    15A     -0.615423
      16A     -0.571864    17A     -0.569861    18A     -0.553105
      19A     -0.548696    20A     -0.453979    21A     -0.348024
      22A     -0.339050

  @DF-RHF Final Energy:  -263.91596749719884

   => Energetics <=

    Nuclear Repulsion Energy =            225.3500783229818865
    One-Electron Energy =                -803.2491917829122485
    Two-Electron Energy =                 313.9831459627315553
    Total Energy =                       -263.9159674971988352
  Basis Set: (AUG-CC-PVTZ AUX)
    Blend: AUG-CC-PVTZ-RI
    Molecular point group: c1

    Geometry (in Angstrom), charge = 0, multiplicity = 1:

       Center              X                  Y                   Z               Mass
    ------------   -----------------  -----------------  -----------------  -----------------
         N            0.623327164309     0.045758746566    -0.000009553169    14.003074004430
         N           -0.064481835691    -1.113669253434    -0.000016553169    14.003074004430
         C           -0.183002835691     1.143189746566     0.000023446831    12.000000000000
         C            2.123214864309    -0.000079553434    -0.000005453169    12.000000000000
         C           -1.486207835691     0.670222746566     0.000015446831    12.000000000000
         C           -1.357908835691    -0.726946253434    -0.000005553169    12.000000000000
         H            0.225510164309     2.144701746566     0.000047446831     1.007825032230
         H            2.423827164309    -0.521862253434     0.890957446831     1.007825032230
         H            2.423817164309    -0.522003253434    -0.890888553169     1.007825032230
         H            2.450591164309     1.024781746566    -0.000087553169     1.007825032230
         H           -2.392577835691     1.258938746566     0.000019446831     1.007825032230
         H           -2.133322835691    -1.482054253434    -0.000017553169     1.007825032230

  Basis Set: AUG-CC-PVTZ
    Blend: AUG-CC-PVTZ
  Basis Set: (AUG-CC-PVTZ AUX)
    Blend: AUG-CC-PVTZ-JKFIT
	 Reference Energy          =    -263.9159674971988352 [Eh]
	 Singles Energy            =      -0.0000000000000000 [Eh]
	 Same-Spin Energy          =      -0.2882365502990792 [Eh]
	 Opposite-Spin Energy      =      -0.9017065591875983 [Eh]
	 Correlation Energy        =      -1.1899431094866775 [Eh]
	 Total Energy              =    -265.1059106066855406 [Eh]

	 ================> DF-SCS-MP2 Energies <==================
	-----------------------------------------------------------
	 SCS Same-Spin Scale       =       0.3333333333333333 [-]
	 SCS Opposite-Spin Scale   =       1.2000000000000000 [-]
	 SCS Same-Spin Energy      =      -0.0960788500996931 [Eh]
	 SCS Opposite-Spin Energy  =      -1.0820478710251180 [Eh]
	 SCS Correlation Energy    =      -1.1781267211248110 [Eh]
	 SCS Total Energy          =    -265.0940942183236189 [Eh]
	-----------------------------------------------------------

  Dipole Moment: [D]
     X:     1.4897      Y:     2.0470      Z:     0.0000     Total:     2.5317

*** Psi4 exiting successfully. Buy a developer a beer!
