                               Psi4 1.4a3.dev225

  ==> Input File <==

--------------------------------------------------------------------------
#psi4
#
memory 32 gb

molecule  {
0 1
  N        0.6364065    -0.0006475    -0.0000105
  N       -0.0914470    -1.1353650    -0.0000170
  C       -0.2099680     1.1214940     0.0000230
  C        2.0462730    -0.0202480    -0.0000060
  C       -1.5131730     0.6485270     0.0000150
  C       -1.3848740    -0.7486420    -0.0000060
  H        0.1985450     2.1230060     0.0000470
  H        2.3968620    -0.5435580     0.8909570
  H        2.3968520    -0.5436990    -0.8908890
  H        2.4236260     1.0030860    -0.0000880
  H       -2.4195430     1.2372430     0.0000190
  H       -2.1602880    -1.5037500    -0.0000180
units angstrom
no_reorient  #important for SAPT in psi4, default
symmetry c1  #important for SAPT in psi4, default
}

set PROPERTIES_ORIGIN ["COM"]
properties('MP2/aug-cc-pvtz', properties = ['dipole'])
--------------------------------------------------------------------------

    Molecular point group: c1
  Charge       = 0
  Multiplicity = 1
  Basis Set: AUG-CC-PVTZ
    Blend: AUG-CC-PVTZ
  Basis Set: (AUG-CC-PVTZ AUX)
    Blend: AUG-CC-PVTZ-JKFIT

    Orbital Energies [Eh]
    ---------------------

    Doubly Occupied:

       1A    -15.640884     2A    -15.585097     3A    -11.278525
       4A    -11.270500     5A    -11.252322     6A    -11.223972
       7A     -1.367911     8A     -1.123827     9A     -1.049599
      10A     -0.944978    11A     -0.802741    12A     -0.773958
      13A     -0.712334    14A     -0.651990    15A     -0.615751
      16A     -0.594789    17A     -0.565563    18A     -0.544799
      19A     -0.539889    20A     -0.451637    21A     -0.348397
      22A     -0.339863

  @DF-RHF Final Energy:  -263.91368399984378

   => Energetics <=

    Nuclear Repulsion Energy =            225.8361001804915702
    One-Electron Energy =                -804.1409183011942332
    Two-Electron Energy =                 314.3911341208588510
    Total Energy =                       -263.9136839998437836
  Basis Set: (AUG-CC-PVTZ AUX)
    Blend: AUG-CC-PVTZ-RI
    Molecular point group: c1

    Geometry (in Angstrom), charge = 0, multiplicity = 1:

       Center              X                  Y                   Z               Mass
    ------------   -----------------  -----------------  -----------------  -----------------
         N            0.663846653114     0.025041945370    -0.000009953215    14.003074004430
         N           -0.064006846886    -1.109675554630    -0.000016453215    14.003074004430
         C           -0.182527846886     1.147183445370     0.000023546785    12.000000000000
         C            2.073713153114     0.005441445370    -0.000005453215    12.000000000000
         C           -1.485732846886     0.674216445370     0.000015546785    12.000000000000
         C           -1.357433846886    -0.722952554630    -0.000005453215    12.000000000000
         H            0.225985153114     2.148695445370     0.000047546785     1.007825032230
         H            2.424302153114    -0.517868554630     0.890957546785     1.007825032230
         H            2.424292153114    -0.518009554630    -0.890888453215     1.007825032230
         H            2.451066153114     1.028775445370    -0.000087453215     1.007825032230
         H           -2.392102846886     1.262932445370     0.000019546785     1.007825032230
         H           -2.132847846886    -1.478060554630    -0.000017453215     1.007825032230

  Basis Set: AUG-CC-PVTZ
    Blend: AUG-CC-PVTZ
  Basis Set: (AUG-CC-PVTZ AUX)
    Blend: AUG-CC-PVTZ-JKFIT
	 Reference Energy          =    -263.9136839998437836 [Eh]
	 Singles Energy            =      -0.0000000000000000 [Eh]
	 Same-Spin Energy          =      -0.2887603240406433 [Eh]
	 Opposite-Spin Energy      =      -0.9024004145835384 [Eh]
	 Correlation Energy        =      -1.1911607386241818 [Eh]
	 Total Energy              =    -265.1048447384679889 [Eh]

	 ================> DF-SCS-MP2 Energies <==================
	-----------------------------------------------------------
	 SCS Same-Spin Scale       =       0.3333333333333333 [-]
	 SCS Opposite-Spin Scale   =       1.2000000000000000 [-]
	 SCS Same-Spin Energy      =      -0.0962534413468811 [Eh]
	 SCS Opposite-Spin Energy  =      -1.0828804975002460 [Eh]
	 SCS Correlation Energy    =      -1.1791339388471271 [Eh]
	 SCS Total Energy          =    -265.0928179386909278 [Eh]
	-----------------------------------------------------------

  Dipole Moment: [D]
     X:     1.2240      Y:     2.0645      Z:     0.0000     Total:     2.4001

*** Psi4 exiting successfully. Buy a developer a beer!
