                               Psi4 1.4a3.dev225

  ==> Input File <==

--------------------------------------------------------------------------
#psi4
#
memory 32 gb

molecule  {
0 1
  N        0.5963620     0.0240630    -0.0000100
  N       -0.0914470    -1.1353650    -0.0000170
  C       -0.2099680     1.1214940     0.0000230
  C        2.0462730    -0.0202480    -0.0000060
  C       -1.5131730     0.6485270     0.0000150
  C       -1.3848740    -0.7486420    -0.0000060
  H        0.1985450     2.1230060     0.0000470
  H        2.3968620    -0.5435580     0.8909570
  H        2.3875920    -0.5593194    -0.8851515
  H        2.4236260     1.0030860    -0.0000880
  H       -2.4195430     1.2372430     0.0000190
  H       -2.1602880    -1.5037500    -0.0000180
units angstrom
no_reorient  #important for SAPT in psi4, default
symmetry c1  #important for SAPT in psi4, default
}

set PROPERTIES_ORIGIN ["COM"]
properties('MP2/aug-cc-pvtz', properties = ['dipole'])
--------------------------------------------------------------------------

    Molecular point group: c1
  Charge       = 0
  Multiplicity = 1
  Basis Set: AUG-CC-PVTZ
    Blend: AUG-CC-PVTZ
  Basis Set: (AUG-CC-PVTZ AUX)
    Blend: AUG-CC-PVTZ-JKFIT

    Orbital Energies [Eh]
    ---------------------

    Doubly Occupied:

       1A    -15.641663     2A    -15.582146     3A    -11.275121
       4A    -11.274434     5A    -11.250917     6A    -11.219555
       7A     -1.372706     8A     -1.116258     9A     -1.054770
      10A     -0.945513    11A     -0.804117    12A     -0.772290
      13A     -0.714143    14A     -0.649757    15A     -0.613204
      16A     -0.581196    17A     -0.570046    18A     -0.546096
      19A     -0.544452    20A     -0.456182    21A     -0.348957
      22A     -0.340718

  @DF-RHF Final Energy:  -263.91832925434107

   => Energetics <=

    Nuclear Repulsion Energy =            226.2201630361955438
    One-Electron Energy =                -804.9285013805024391
    Two-Electron Energy =                 314.7900090899657926
    Total Energy =                       -263.9183292543410744
  Basis Set: (AUG-CC-PVTZ AUX)
    Blend: AUG-CC-PVTZ-RI
    Molecular point group: c1

    Geometry (in Angstrom), charge = 0, multiplicity = 1:

       Center              X                  Y                   Z               Mass
    ------------   -----------------  -----------------  -----------------  -----------------
         N            0.630749831742     0.045727242943    -0.000080009937    14.003074004430
         N           -0.057059168258    -1.113700757057    -0.000087009937    14.003074004430
         C           -0.175580168258     1.143158242943    -0.000047009937    12.000000000000
         C            2.080660831742     0.001416242943    -0.000076009937    12.000000000000
         C           -1.478785168258     0.670191242943    -0.000055009937    12.000000000000
         C           -1.350486168258    -0.726977757057    -0.000076009937    12.000000000000
         H            0.232932831742     2.144670242943    -0.000023009937     1.007825032230
         H            2.431249831742    -0.521893757057     0.890886990063     1.007825032230
         H            2.421979831742    -0.537655157057    -0.885221509937     1.007825032230
         H            2.458013831742     1.024750242943    -0.000158009937     1.007825032230
         H           -2.385155168258     1.258907242943    -0.000051009937     1.007825032230
         H           -2.125900168258    -1.482085757057    -0.000088009937     1.007825032230

  Basis Set: AUG-CC-PVTZ
    Blend: AUG-CC-PVTZ
  Basis Set: (AUG-CC-PVTZ AUX)
    Blend: AUG-CC-PVTZ-JKFIT
	 Reference Energy          =    -263.9183292543410744 [Eh]
	 Singles Energy            =      -0.0000000000000000 [Eh]
	 Same-Spin Energy          =      -0.2883385935358811 [Eh]
	 Opposite-Spin Energy      =      -0.9014474628041032 [Eh]
	 Correlation Energy        =      -1.1897860563399842 [Eh]
	 Total Energy              =    -265.1081153106810575 [Eh]

	 ================> DF-SCS-MP2 Energies <==================
	-----------------------------------------------------------
	 SCS Same-Spin Scale       =       0.3333333333333333 [-]
	 SCS Opposite-Spin Scale   =       1.2000000000000000 [-]
	 SCS Same-Spin Energy      =      -0.0961128645119604 [Eh]
	 SCS Opposite-Spin Energy  =      -1.0817369553649236 [Eh]
	 SCS Correlation Energy    =      -1.1778498198768841 [Eh]
	 SCS Total Energy          =    -265.0961790742179573 [Eh]
	-----------------------------------------------------------

  Dipole Moment: [D]
     X:     1.3404      Y:     2.0523      Z:     0.0039     Total:     2.4513

*** Psi4 exiting successfully. Buy a developer a beer!
