                               Psi4 1.4a3.dev225

  ==> Input File <==

--------------------------------------------------------------------------
#psi4
#
memory 32 gb

molecule  {
0 1
  N        0.5963620     0.0240630    -0.0000100
  N       -0.0914470    -1.1353650    -0.0000170
  C       -0.2099680     1.1214940     0.0000230
  C        2.0462730    -0.0202480    -0.0000060
  C       -1.5131730     0.6485270     0.0000150
  C       -1.3848740    -0.7486420    -0.0000060
  H        0.1909913     2.1044873     0.0000466
  H        2.3968620    -0.5435580     0.8909570
  H        2.3968520    -0.5436990    -0.8908890
  H        2.4236260     1.0030860    -0.0000880
  H       -2.4195430     1.2372430     0.0000190
  H       -2.1602880    -1.5037500    -0.0000180
units angstrom
no_reorient  #important for SAPT in psi4, default
symmetry c1  #important for SAPT in psi4, default
}

set PROPERTIES_ORIGIN ["COM"]
properties('MP2/aug-cc-pvtz', properties = ['dipole'])
--------------------------------------------------------------------------

    Molecular point group: c1
  Charge       = 0
  Multiplicity = 1
  Basis Set: AUG-CC-PVTZ
    Blend: AUG-CC-PVTZ
  Basis Set: (AUG-CC-PVTZ AUX)
    Blend: AUG-CC-PVTZ-JKFIT

    Orbital Energies [Eh]
    ---------------------

    Doubly Occupied:

       1A    -15.641652     2A    -15.582109     3A    -11.274467
       4A    -11.272943     5A    -11.250809     6A    -11.219486
       7A     -1.372636     8A     -1.116272     9A     -1.055302
      10A     -0.945594    11A     -0.804886    12A     -0.774174
      13A     -0.716297    14A     -0.650036    15A     -0.612979
      16A     -0.581429    17A     -0.571111    18A     -0.545698
      19A     -0.545167    20A     -0.456166    21A     -0.349024
      22A     -0.340695

  @DF-RHF Final Energy:  -263.91850654577109

   => Energetics <=

    Nuclear Repulsion Energy =            226.3036809235964029
    One-Electron Energy =                -805.0865132369696084
    Two-Electron Energy =                 314.8643257676021108
    Total Energy =                       -263.9185065457710948
  Basis Set: (AUG-CC-PVTZ AUX)
    Blend: AUG-CC-PVTZ-RI
    Molecular point group: c1

    Geometry (in Angstrom), charge = 0, multiplicity = 1:

       Center              X                  Y                   Z               Mass
    ------------   -----------------  -----------------  -----------------  -----------------
         N            0.630728873949     0.045762841590    -0.000009533631    14.003074004430
         N           -0.057080126051    -1.113665158410    -0.000016533631    14.003074004430
         C           -0.175601126051     1.143193841590     0.000023466369    12.000000000000
         C            2.080639873949     0.001451841590    -0.000005533631    12.000000000000
         C           -1.478806126051     0.670226841590     0.000015466369    12.000000000000
         C           -1.350507126051    -0.726942158410    -0.000005533631    12.000000000000
         H            0.225358173949     2.126187141590     0.000047066369     1.007825032230
         H            2.431228873949    -0.521858158410     0.890957466369     1.007825032230
         H            2.431218873949    -0.521999158410    -0.890888533631     1.007825032230
         H            2.457992873949     1.024785841590    -0.000087533631     1.007825032230
         H           -2.385176126051     1.258942841590     0.000019466369     1.007825032230
         H           -2.125921126051    -1.482050158410    -0.000017533631     1.007825032230

  Basis Set: AUG-CC-PVTZ
    Blend: AUG-CC-PVTZ
  Basis Set: (AUG-CC-PVTZ AUX)
    Blend: AUG-CC-PVTZ-JKFIT
	 Reference Energy          =    -263.9185065457710948 [Eh]
	 Singles Energy            =      -0.0000000000000000 [Eh]
	 Same-Spin Energy          =      -0.2882858847765311 [Eh]
	 Opposite-Spin Energy      =      -0.9012990756571196 [Eh]
	 Correlation Energy        =      -1.1895849604336508 [Eh]
	 Total Energy              =    -265.1080915062047438 [Eh]

	 ================> DF-SCS-MP2 Energies <==================
	-----------------------------------------------------------
	 SCS Same-Spin Scale       =       0.3333333333333333 [-]
	 SCS Opposite-Spin Scale   =       1.2000000000000000 [-]
	 SCS Same-Spin Energy      =      -0.0960952949255103 [Eh]
	 SCS Opposite-Spin Energy  =      -1.0815588907885436 [Eh]
	 SCS Correlation Energy    =      -1.1776541857140539 [Eh]
	 SCS Total Energy          =    -265.0961607314851562 [Eh]
	-----------------------------------------------------------

  Dipole Moment: [D]
     X:     1.3413      Y:     2.0577      Z:     0.0000     Total:     2.4562

*** Psi4 exiting successfully. Buy a developer a beer!
