                               Psi4 1.4a3.dev225

  ==> Input File <==

--------------------------------------------------------------------------
#psi4
#
memory 32 gb

molecule  {
0 1
  N        0.5963620     0.0240630    -0.0000100
  N       -0.0914470    -1.1353650    -0.0000170
  C       -0.2099680     1.1214940     0.0000230
  C        2.0462730    -0.0202480    -0.0000060
  C       -1.5131730     0.6485270     0.0000150
  C       -1.3848740    -0.7486420    -0.0000060
  H        0.1985450     2.1230060     0.0000470
  H        2.3968620    -0.5435580     0.8909570
  H        2.3968520    -0.5436990    -0.8908890
  H        2.4582236     1.0969103    -0.0000955
  H       -2.4195430     1.2372430     0.0000190
  H       -2.1602880    -1.5037500    -0.0000180
units angstrom
no_reorient  #important for SAPT in psi4, default
symmetry c1  #important for SAPT in psi4, default
}

set PROPERTIES_ORIGIN ["COM"]
properties('MP2/aug-cc-pvtz', properties = ['dipole'])
--------------------------------------------------------------------------

    Molecular point group: c1
  Charge       = 0
  Multiplicity = 1
  Basis Set: AUG-CC-PVTZ
    Blend: AUG-CC-PVTZ
  Basis Set: (AUG-CC-PVTZ AUX)
    Blend: AUG-CC-PVTZ-JKFIT

    Orbital Energies [Eh]
    ---------------------

    Doubly Occupied:

       1A    -15.642627     2A    -15.582872     3A    -11.285961
       4A    -11.275440     5A    -11.251537     6A    -11.219852
       7A     -1.373287     8A     -1.114875     9A     -1.055122
      10A     -0.939805    11A     -0.803449    12A     -0.771630
      13A     -0.712730    14A     -0.651173    15A     -0.606293
      16A     -0.581053    17A     -0.566474    18A     -0.546220
      19A     -0.535262    20A     -0.456816    21A     -0.349682
      22A     -0.341150

  @DF-RHF Final Energy:  -263.91164937331303

   => Energetics <=

    Nuclear Repulsion Energy =            225.8049615769744491
    One-Electron Energy =                -804.1066016779780057
    Two-Electron Energy =                 314.3899907276905878
    Total Energy =                       -263.9116493733130255
  Basis Set: (AUG-CC-PVTZ AUX)
    Blend: AUG-CC-PVTZ-RI
    Molecular point group: c1

    Geometry (in Angstrom), charge = 0, multiplicity = 1:

       Center              X                  Y                   Z               Mass
    ------------   -----------------  -----------------  -----------------  -----------------
         N            0.630211146572     0.044382977940    -0.000009446424    14.003074004430
         N           -0.057597853428    -1.115045022060    -0.000016446424    14.003074004430
         C           -0.176118853428     1.141813977940     0.000023553576    12.000000000000
         C            2.080122146572     0.000071977940    -0.000005446424    12.000000000000
         C           -1.479323853428     0.668846977940     0.000015553576    12.000000000000
         C           -1.351024853428    -0.728322022060    -0.000005446424    12.000000000000
         H            0.232394146572     2.143325977940     0.000047553576     1.007825032230
         H            2.430711146572    -0.523238022060     0.890957553576     1.007825032230
         H            2.430701146572    -0.523379022060    -0.890888446424     1.007825032230
         H            2.492072746572     1.117230277940    -0.000094946424     1.007825032230
         H           -2.385693853428     1.257562977940     0.000019553576     1.007825032230
         H           -2.126438853428    -1.483430022060    -0.000017446424     1.007825032230

  Basis Set: AUG-CC-PVTZ
    Blend: AUG-CC-PVTZ
  Basis Set: (AUG-CC-PVTZ AUX)
    Blend: AUG-CC-PVTZ-JKFIT
	 Reference Energy          =    -263.9116493733130255 [Eh]
	 Singles Energy            =      -0.0000000000000000 [Eh]
	 Same-Spin Energy          =      -0.2883650604844001 [Eh]
	 Opposite-Spin Energy      =      -0.9022191656467169 [Eh]
	 Correlation Energy        =      -1.1905842261311170 [Eh]
	 Total Energy              =    -265.1022335994441619 [Eh]

	 ================> DF-SCS-MP2 Energies <==================
	-----------------------------------------------------------
	 SCS Same-Spin Scale       =       0.3333333333333333 [-]
	 SCS Opposite-Spin Scale   =       1.2000000000000000 [-]
	 SCS Same-Spin Energy      =      -0.0961216868281334 [Eh]
	 SCS Opposite-Spin Energy  =      -1.0826629987760603 [Eh]
	 SCS Correlation Energy    =      -1.1787846856041937 [Eh]
	 SCS Total Energy          =    -265.0904340589171966 [Eh]
	-----------------------------------------------------------

  Dipole Moment: [D]
     X:     1.3080      Y:     2.0301      Z:     0.0000     Total:     2.4150

*** Psi4 exiting successfully. Buy a developer a beer!
