                               Psi4 1.4a3.dev225

  ==> Input File <==

--------------------------------------------------------------------------
#psi4
#
memory 32 gb

molecule  {
0 1
  N        0.5963620     0.0240630    -0.0000100
  N       -0.0914470    -1.1353650    -0.0000170
  C       -0.2099680     1.1214940     0.0000230
  C        2.0462730    -0.0202480    -0.0000060
  C       -1.5131730     0.6485270     0.0000150
  C       -1.3848740    -0.7486420    -0.0000060
  H        0.1985450     2.1230060     0.0000470
  H        2.3968620    -0.5435580     0.8909570
  H        2.3591997    -0.6051764    -0.8663286
  H        2.4236260     1.0030860    -0.0000880
  H       -2.4195430     1.2372430     0.0000190
  H       -2.1602880    -1.5037500    -0.0000180
units angstrom
no_reorient  #important for SAPT in psi4, default
symmetry c1  #important for SAPT in psi4, default
}

set PROPERTIES_ORIGIN ["COM"]
properties('MP2/aug-cc-pvtz', properties = ['dipole'])
--------------------------------------------------------------------------

    Molecular point group: c1
  Charge       = 0
  Multiplicity = 1
  Basis Set: AUG-CC-PVTZ
    Blend: AUG-CC-PVTZ
  Basis Set: (AUG-CC-PVTZ AUX)
    Blend: AUG-CC-PVTZ-JKFIT

    Orbital Energies [Eh]
    ---------------------

    Doubly Occupied:

       1A    -15.641382     2A    -15.582062     3A    -11.274985
       4A    -11.274453     5A    -11.250899     6A    -11.219405
       7A     -1.372694     8A     -1.116370     9A     -1.054807
      10A     -0.945368    11A     -0.804166    12A     -0.771984
      13A     -0.713532    14A     -0.648845    15A     -0.615486
      16A     -0.580557    17A     -0.571001    18A     -0.547752
      19A     -0.541960    20A     -0.456210    21A     -0.348503
      22A     -0.340604

  @DF-RHF Final Energy:  -263.91773782329733

   => Energetics <=

    Nuclear Repulsion Energy =            226.2680488209502130
    One-Electron Energy =                -805.0255222424460726
    Two-Electron Energy =                 314.8397355981985584
    Total Energy =                       -263.9177378232973297
  Basis Set: (AUG-CC-PVTZ AUX)
    Blend: AUG-CC-PVTZ-RI
    Molecular point group: c1

    Geometry (in Angstrom), charge = 0, multiplicity = 1:

       Center              X                  Y                   Z               Mass
    ------------   -----------------  -----------------  -----------------  -----------------
         N            0.631098562884     0.046290485935    -0.000311204008    14.003074004430
         N           -0.056710437116    -1.113137514065    -0.000318204008    14.003074004430
         C           -0.175231437116     1.143721485935    -0.000278204008    12.000000000000
         C            2.081009562884     0.001979485935    -0.000307204008    12.000000000000
         C           -1.478436437116     0.670754485935    -0.000286204008    12.000000000000
         C           -1.350137437116    -0.726414514065    -0.000307204008    12.000000000000
         H            0.233281562884     2.145233485935    -0.000254204008     1.007825032230
         H            2.431598562884    -0.521330514065     0.890655795992     1.007825032230
         H            2.393936262884    -0.582948914065    -0.866629804008     1.007825032230
         H            2.458362562884     1.025313485935    -0.000389204008     1.007825032230
         H           -2.384806437116     1.259470485935    -0.000282204008     1.007825032230
         H           -2.125551437116    -1.481522514065    -0.000319204008     1.007825032230

  Basis Set: AUG-CC-PVTZ
    Blend: AUG-CC-PVTZ
  Basis Set: (AUG-CC-PVTZ AUX)
    Blend: AUG-CC-PVTZ-JKFIT
	 Reference Energy          =    -263.9177378232973297 [Eh]
	 Singles Energy            =      -0.0000000000000000 [Eh]
	 Same-Spin Energy          =      -0.2883955323117839 [Eh]
	 Opposite-Spin Energy      =      -0.9015054564684557 [Eh]
	 Correlation Energy        =      -1.1899009887802396 [Eh]
	 Total Energy              =    -265.1076388120775960 [Eh]

	 ================> DF-SCS-MP2 Energies <==================
	-----------------------------------------------------------
	 SCS Same-Spin Scale       =       0.3333333333333333 [-]
	 SCS Opposite-Spin Scale   =       1.2000000000000000 [-]
	 SCS Same-Spin Energy      =      -0.0961318441039280 [Eh]
	 SCS Opposite-Spin Energy  =      -1.0818065477621468 [Eh]
	 SCS Correlation Energy    =      -1.1779383918660749 [Eh]
	 SCS Total Energy          =    -265.0956762151633939 [Eh]
	-----------------------------------------------------------

  Dipole Moment: [D]
     X:     1.3406      Y:     2.0379      Z:     0.0163     Total:     2.4394

*** Psi4 exiting successfully. Buy a developer a beer!
