                               Psi4 1.4a3.dev225

  ==> Input File <==

--------------------------------------------------------------------------
#psi4
#
memory 32 gb

molecule  {
0 1
  N        0.5963620     0.0240630    -0.0000100
  N       -0.0914470    -1.1353650    -0.0000170
  C       -0.2099680     1.1214940     0.0000230
  C        2.0462730    -0.0202480    -0.0000060
  C       -1.4191722     0.6826423     0.0000156
  C       -1.3848740    -0.7486420    -0.0000060
  H        0.1985450     2.1230060     0.0000470
  H        2.3968620    -0.5435580     0.8909570
  H        2.3968520    -0.5436990    -0.8908890
  H        2.4236260     1.0030860    -0.0000880
  H       -2.4195430     1.2372430     0.0000190
  H       -2.1602880    -1.5037500    -0.0000180
units angstrom
no_reorient  #important for SAPT in psi4, default
symmetry c1  #important for SAPT in psi4, default
}

set PROPERTIES_ORIGIN ["COM"]
properties('MP2/aug-cc-pvtz', properties = ['dipole'])
--------------------------------------------------------------------------

    Molecular point group: c1
  Charge       = 0
  Multiplicity = 1
  Basis Set: AUG-CC-PVTZ
    Blend: AUG-CC-PVTZ
  Basis Set: (AUG-CC-PVTZ AUX)
    Blend: AUG-CC-PVTZ-JKFIT

    Orbital Energies [Eh]
    ---------------------

    Doubly Occupied:

       1A    -15.631517     2A    -15.587296     3A    -11.271162
       4A    -11.261024     5A    -11.252287     6A    -11.216055
       7A     -1.374650     8A     -1.113232     9A     -1.072452
      10A     -0.937932    11A     -0.802400    12A     -0.773920
      13A     -0.713767    14A     -0.649770    15A     -0.605823
      16A     -0.588208    17A     -0.560318    18A     -0.546706
      19A     -0.544513    20A     -0.454146    21A     -0.357326
      22A     -0.342247

  @DF-RHF Final Energy:  -263.90614523836109

   => Energetics <=

    Nuclear Repulsion Energy =            227.5478135164786408
    One-Electron Energy =                -807.5944159273798277
    Two-Electron Energy =                 316.1404571725400956
    Total Energy =                       -263.9061452383610913
  Basis Set: (AUG-CC-PVTZ AUX)
    Blend: AUG-CC-PVTZ-RI
    Molecular point group: c1

    Geometry (in Angstrom), charge = 0, multiplicity = 1:

       Center              X                  Y                   Z               Mass
    ------------   -----------------  -----------------  -----------------  -----------------
         N            0.616888782193     0.040546131694    -0.000009626292    14.003074004430
         N           -0.070920217807    -1.118881868306    -0.000016626292    14.003074004430
         C           -0.189441217807     1.137977131694     0.000023373708    12.000000000000
         C            2.066799782193    -0.003764868306    -0.000005626292    12.000000000000
         C           -1.398645417807     0.699125431694     0.000015973708    12.000000000000
         C           -1.364347217807    -0.732158868306    -0.000005626292    12.000000000000
         H            0.219071782193     2.139489131694     0.000047373708     1.007825032230
         H            2.417388782193    -0.527074868306     0.890957373708     1.007825032230
         H            2.417378782193    -0.527215868306    -0.890888626292     1.007825032230
         H            2.444152782193     1.019569131694    -0.000087626292     1.007825032230
         H           -2.399016217807     1.253726131694     0.000019373708     1.007825032230
         H           -2.139761217807    -1.487266868306    -0.000017626292     1.007825032230

  Basis Set: AUG-CC-PVTZ
    Blend: AUG-CC-PVTZ
  Basis Set: (AUG-CC-PVTZ AUX)
    Blend: AUG-CC-PVTZ-JKFIT
	 Reference Energy          =    -263.9061452383610913 [Eh]
	 Singles Energy            =      -0.0000000000000000 [Eh]
	 Same-Spin Energy          =      -0.2876433596172765 [Eh]
	 Opposite-Spin Energy      =      -0.9003709966362912 [Eh]
	 Correlation Energy        =      -1.1880143562535677 [Eh]
	 Total Energy              =    -265.0941595946146663 [Eh]

	 ================> DF-SCS-MP2 Energies <==================
	-----------------------------------------------------------
	 SCS Same-Spin Scale       =       0.3333333333333333 [-]
	 SCS Opposite-Spin Scale   =       1.2000000000000000 [-]
	 SCS Same-Spin Energy      =      -0.0958811198724255 [Eh]
	 SCS Opposite-Spin Energy  =      -1.0804451959635493 [Eh]
	 SCS Correlation Energy    =      -1.1763263158359747 [Eh]
	 SCS Total Energy          =    -265.0824715541970704 [Eh]
	-----------------------------------------------------------

  Dipole Moment: [D]
     X:     1.2343      Y:     2.0507      Z:     0.0000     Total:     2.3935

*** Psi4 exiting successfully. Buy a developer a beer!
