                               Psi4 1.4a3.dev225

  ==> Input File <==

--------------------------------------------------------------------------
#psi4
#
memory 32 gb

molecule  {
0 1
  N        0.5963620     0.0240630    -0.0000100
  N       -0.0914470    -1.1353650    -0.0000170
  C       -0.2099680     1.1214940     0.0000230
  C        2.0462730    -0.0202480    -0.0000060
  C       -1.5131730     0.6485270     0.0000150
  C       -1.3848740    -0.7486420    -0.0000060
  H        0.2174293     2.1693027     0.0000481
  H        2.3968620    -0.5435580     0.8909570
  H        2.3968520    -0.5436990    -0.8908890
  H        2.4236260     1.0030860    -0.0000880
  H       -2.4195430     1.2372430     0.0000190
  H       -2.1602880    -1.5037500    -0.0000180
units angstrom
no_reorient  #important for SAPT in psi4, default
symmetry c1  #important for SAPT in psi4, default
}

set PROPERTIES_ORIGIN ["COM"]
properties('MP2/aug-cc-pvtz', properties = ['dipole'])
--------------------------------------------------------------------------

    Molecular point group: c1
  Charge       = 0
  Multiplicity = 1
  Basis Set: AUG-CC-PVTZ
    Blend: AUG-CC-PVTZ
  Basis Set: (AUG-CC-PVTZ AUX)
    Blend: AUG-CC-PVTZ-JKFIT

    Orbital Energies [Eh]
    ---------------------

    Doubly Occupied:

       1A    -15.642074     2A    -15.582383     3A    -11.280580
       4A    -11.274335     5A    -11.251241     6A    -11.219949
       7A     -1.372947     8A     -1.116171     9A     -1.053631
      10A     -0.945570    11A     -0.802789    12A     -0.768490
      13A     -0.709312    14A     -0.650162    15A     -0.611331
      16A     -0.581525    17A     -0.565974    18A     -0.545315
      19A     -0.544658    20A     -0.456226    21A     -0.349326
      22A     -0.340943

  @DF-RHF Final Energy:  -263.91584907525231

   => Energetics <=

    Nuclear Repulsion Energy =            225.9687723118015867
    One-Electron Energy =                -804.4393793935837493
    Two-Electron Energy =                 314.5547580065298803
    Total Energy =                       -263.9158490752523107
  Basis Set: (AUG-CC-PVTZ AUX)
    Blend: AUG-CC-PVTZ-RI
    Molecular point group: c1

    Geometry (in Angstrom), charge = 0, multiplicity = 1:

       Center              X                  Y                   Z               Mass
    ------------   -----------------  -----------------  -----------------  -----------------
         N            0.630404146684     0.044966740236    -0.000009552055    14.003074004430
         N           -0.057404853316    -1.114461259764    -0.000016552055    14.003074004430
         C           -0.175925853316     1.142397740236     0.000023447945    12.000000000000
         C            2.080315146684     0.000655740236    -0.000005552055    12.000000000000
         C           -1.479130853316     0.669430740236     0.000015447945    12.000000000000
         C           -1.350831853316    -0.727738259764    -0.000005552055    12.000000000000
         H            0.251471446684     2.190206440236     0.000048547945     1.007825032230
         H            2.430904146684    -0.522654259764     0.890957447945     1.007825032230
         H            2.430894146684    -0.522795259764    -0.890888552055     1.007825032230
         H            2.457668146684     1.023989740236    -0.000087552055     1.007825032230
         H           -2.385500853316     1.258146740236     0.000019447945     1.007825032230
         H           -2.126245853316    -1.482846259764    -0.000017552055     1.007825032230

  Basis Set: AUG-CC-PVTZ
    Blend: AUG-CC-PVTZ
  Basis Set: (AUG-CC-PVTZ AUX)
    Blend: AUG-CC-PVTZ-JKFIT
	 Reference Energy          =    -263.9158490752523107 [Eh]
	 Singles Energy            =      -0.0000000000000000 [Eh]
	 Same-Spin Energy          =      -0.2884428088111171 [Eh]
	 Opposite-Spin Energy      =      -0.9018592974828898 [Eh]
	 Correlation Energy        =      -1.1903021062940069 [Eh]
	 Total Energy              =    -265.1061511815462950 [Eh]

	 ================> DF-SCS-MP2 Energies <==================
	-----------------------------------------------------------
	 SCS Same-Spin Scale       =       0.3333333333333333 [-]
	 SCS Opposite-Spin Scale   =       1.2000000000000000 [-]
	 SCS Same-Spin Energy      =      -0.0961476029370390 [Eh]
	 SCS Opposite-Spin Energy  =      -1.0822311569794678 [Eh]
	 SCS Correlation Energy    =      -1.1783787599165068 [Eh]
	 SCS Total Energy          =    -265.0942278351687946 [Eh]
	-----------------------------------------------------------

  Dipole Moment: [D]
     X:     1.3373      Y:     2.0548      Z:     0.0000     Total:     2.4517

*** Psi4 exiting successfully. Buy a developer a beer!
