                               Psi4 1.4a3.dev225

  ==> Input File <==

--------------------------------------------------------------------------
#psi4
#
memory 32 gb

molecule  {
0 1
  N        0.5963620     0.0240630    -0.0000100
  N       -0.0914470    -1.1353650    -0.0000170
  C       -0.2099680     1.1214940     0.0000230
  C        2.0462730    -0.0202480    -0.0000060
  C       -1.5601734     0.6314693     0.0000147
  C       -1.3848740    -0.7486420    -0.0000060
  H        0.1985450     2.1230060     0.0000470
  H        2.3968620    -0.5435580     0.8909570
  H        2.3968520    -0.5436990    -0.8908890
  H        2.4236260     1.0030860    -0.0000880
  H       -2.4195430     1.2372430     0.0000190
  H       -2.1602880    -1.5037500    -0.0000180
units angstrom
no_reorient  #important for SAPT in psi4, default
symmetry c1  #important for SAPT in psi4, default
}

set PROPERTIES_ORIGIN ["COM"]
properties('MP2/aug-cc-pvtz', properties = ['dipole'])
--------------------------------------------------------------------------

    Molecular point group: c1
  Charge       = 0
  Multiplicity = 1
  Basis Set: AUG-CC-PVTZ
    Blend: AUG-CC-PVTZ
  Basis Set: (AUG-CC-PVTZ AUX)
    Blend: AUG-CC-PVTZ-JKFIT

    Orbital Energies [Eh]
    ---------------------

    Doubly Occupied:

       1A    -15.646751     2A    -15.579736     3A    -11.281244
       4A    -11.276030     5A    -11.250749     6A    -11.221443
       7A     -1.372122     8A     -1.117529     9A     -1.047803
      10A     -0.949303    11A     -0.806763    12A     -0.770571
      13A     -0.714776    14A     -0.650454    15A     -0.619309
      16A     -0.584934    17A     -0.570503    18A     -0.544759
      19A     -0.536723    20A     -0.456841    21A     -0.352537
      22A     -0.333977

  @DF-RHF Final Energy:  -263.91415358953805

   => Energetics <=

    Nuclear Repulsion Energy =            225.5769395179337948
    One-Electron Energy =                -803.6124718710593697
    Two-Electron Energy =                 314.1213787635874723
    Total Energy =                       -263.9141535895380457
  Basis Set: (AUG-CC-PVTZ AUX)
    Blend: AUG-CC-PVTZ-RI
    Molecular point group: c1

    Geometry (in Angstrom), charge = 0, multiplicity = 1:

       Center              X                  Y                   Z               Mass
    ------------   -----------------  -----------------  -----------------  -----------------
         N            0.637509751262     0.048030017293    -0.000009494670    14.003074004430
         N           -0.050299248738    -1.111397982707    -0.000016494670    14.003074004430
         C           -0.168820248738     1.145461017293     0.000023505330    12.000000000000
         C            2.087420751262     0.003719017293    -0.000005494670    12.000000000000
         C           -1.519025648738     0.655436317293     0.000015205330    12.000000000000
         C           -1.343726248738    -0.724674982707    -0.000005494670    12.000000000000
         H            0.239692751262     2.146973017293     0.000047505330     1.007825032230
         H            2.438009751262    -0.519590982707     0.890957505330     1.007825032230
         H            2.437999751262    -0.519731982707    -0.890888494670     1.007825032230
         H            2.464773751262     1.027053017293    -0.000087494670     1.007825032230
         H           -2.378395248738     1.261210017293     0.000019505330     1.007825032230
         H           -2.119140248738    -1.479782982707    -0.000017494670     1.007825032230

  Basis Set: AUG-CC-PVTZ
    Blend: AUG-CC-PVTZ
  Basis Set: (AUG-CC-PVTZ AUX)
    Blend: AUG-CC-PVTZ-JKFIT
	 Reference Energy          =    -263.9141535895380457 [Eh]
	 Singles Energy            =      -0.0000000000000000 [Eh]
	 Same-Spin Energy          =      -0.2886931751951843 [Eh]
	 Opposite-Spin Energy      =      -0.9022798106893181 [Eh]
	 Correlation Energy        =      -1.1909729858845024 [Eh]
	 Total Energy              =    -265.1051265754225597 [Eh]

	 ================> DF-SCS-MP2 Energies <==================
	-----------------------------------------------------------
	 SCS Same-Spin Scale       =       0.3333333333333333 [-]
	 SCS Opposite-Spin Scale   =       1.2000000000000000 [-]
	 SCS Same-Spin Energy      =      -0.0962310583983948 [Eh]
	 SCS Opposite-Spin Energy  =      -1.0827357728271816 [Eh]
	 SCS Correlation Energy    =      -1.1789668312255763 [Eh]
	 SCS Total Energy          =    -265.0931204207636256 [Eh]
	-----------------------------------------------------------

  Dipole Moment: [D]
     X:     1.3899      Y:     2.0560      Z:     0.0000     Total:     2.4817

*** Psi4 exiting successfully. Buy a developer a beer!
