                               Psi4 1.4a3.dev225

  ==> Input File <==

--------------------------------------------------------------------------
#psi4
#
memory 32 gb

molecule  {
0 1
  N        0.5963620     0.0240630    -0.0000100
  N       -0.0914470    -1.1353650    -0.0000170
  C       -0.2099680     1.1214940     0.0000230
  C        2.0462730    -0.0202480    -0.0000060
  C       -1.5131730     0.6485270     0.0000150
  C       -1.3848740    -0.7486420    -0.0000060
  H        0.1985450     2.1230060     0.0000470
  H        2.3968620    -0.5435580     0.8909570
  H        2.4060052    -0.5279192    -0.8963552
  H        2.4236260     1.0030860    -0.0000880
  H       -2.4195430     1.2372430     0.0000190
  H       -2.1602880    -1.5037500    -0.0000180
units angstrom
no_reorient  #important for SAPT in psi4, default
symmetry c1  #important for SAPT in psi4, default
}

set PROPERTIES_ORIGIN ["COM"]
properties('MP2/aug-cc-pvtz', properties = ['dipole'])
--------------------------------------------------------------------------

    Molecular point group: c1
  Charge       = 0
  Multiplicity = 1
  Basis Set: AUG-CC-PVTZ
    Blend: AUG-CC-PVTZ
  Basis Set: (AUG-CC-PVTZ AUX)
    Blend: AUG-CC-PVTZ-JKFIT

    Orbital Energies [Eh]
    ---------------------

    Doubly Occupied:

       1A    -15.641862     2A    -15.582209     3A    -11.275210
       4A    -11.274423     5A    -11.250935     6A    -11.219658
       7A     -1.372725     8A     -1.116202     9A     -1.054756
      10A     -0.945649    11A     -0.804109    12A     -0.772511
      13A     -0.714584    14A     -0.650379    15A     -0.611783
      16A     -0.581678    17A     -0.569438    18A     -0.545984
      19A     -0.544731    20A     -0.456177    21A     -0.349247
      22A     -0.340791

  @DF-RHF Final Energy:  -263.91837485920058

   => Energetics <=

    Nuclear Repulsion Energy =            226.1902569881198417
    One-Electron Energy =                -804.8671921109315690
    Two-Electron Energy =                 314.7585602636111730
    Total Energy =                       -263.9183748592005827
  Basis Set: (AUG-CC-PVTZ AUX)
    Blend: AUG-CC-PVTZ-RI
    Molecular point group: c1

    Geometry (in Angstrom), charge = 0, multiplicity = 1:

       Center              X                  Y                   Z               Mass
    ------------   -----------------  -----------------  -----------------  -----------------
         N            0.630523669851     0.045341566981     0.000057600581    14.003074004430
         N           -0.057285330149    -1.114086433019     0.000050600581    14.003074004430
         C           -0.175806330149     1.142772566981     0.000090600581    12.000000000000
         C            2.080434669851     0.001030566981     0.000061600581    12.000000000000
         C           -1.479011330149     0.669805566981     0.000082600581    12.000000000000
         C           -1.350712330149    -0.727363433019     0.000061600581    12.000000000000
         H            0.232706669851     2.144284566981     0.000114600581     1.007825032230
         H            2.431023669851    -0.522279433019     0.891024600581     1.007825032230
         H            2.440166869851    -0.506640633019    -0.896287599419     1.007825032230
         H            2.457787669851     1.024364566981    -0.000020399419     1.007825032230
         H           -2.385381330149     1.258521566981     0.000086600581     1.007825032230
         H           -2.126126330149    -1.482471433019     0.000049600581     1.007825032230

  Basis Set: AUG-CC-PVTZ
    Blend: AUG-CC-PVTZ
  Basis Set: (AUG-CC-PVTZ AUX)
    Blend: AUG-CC-PVTZ-JKFIT
	 Reference Energy          =    -263.9183748592005827 [Eh]
	 Singles Energy            =      -0.0000000000000000 [Eh]
	 Same-Spin Energy          =      -0.2883176597295436 [Eh]
	 Opposite-Spin Energy      =      -0.9014315117478275 [Eh]
	 Correlation Energy        =      -1.1897491714773711 [Eh]
	 Total Energy              =    -265.1081240306779705 [Eh]

	 ================> DF-SCS-MP2 Energies <==================
	-----------------------------------------------------------
	 SCS Same-Spin Scale       =       0.3333333333333333 [-]
	 SCS Opposite-Spin Scale   =       1.2000000000000000 [-]
	 SCS Same-Spin Energy      =      -0.0961058865765145 [Eh]
	 SCS Opposite-Spin Energy  =      -1.0817178140973931 [Eh]
	 SCS Correlation Energy    =      -1.1778237006739076 [Eh]
	 SCS Total Energy          =    -265.0961985598744945 [Eh]
	-----------------------------------------------------------

  Dipole Moment: [D]
     X:     1.3401      Y:     2.0627      Z:    -0.0037     Total:     2.4598

*** Psi4 exiting successfully. Buy a developer a beer!
