                               Psi4 1.4a3.dev225

  ==> Input File <==

--------------------------------------------------------------------------
#psi4
#
memory 32 gb

molecule  {
0 1
  N        0.5963620     0.0240630    -0.0000100
  N       -0.0914470    -1.1353650    -0.0000170
  C       -0.2099680     1.1214940     0.0000230
  C        2.0462730    -0.0202480    -0.0000060
  C       -1.5131730     0.6485270     0.0000150
  C       -1.3848740    -0.7486420    -0.0000060
  H        0.1985450     2.1230060     0.0000470
  H        2.3968620    -0.5435580     0.8909570
  H        2.3968520    -0.5436990    -0.8908890
  H        2.4236260     1.0030860    -0.0000880
  H       -2.4363155     1.2481372     0.0000191
  H       -2.1602880    -1.5037500    -0.0000180
units angstrom
no_reorient  #important for SAPT in psi4, default
symmetry c1  #important for SAPT in psi4, default
}

set PROPERTIES_ORIGIN ["COM"]
properties('MP2/aug-cc-pvtz', properties = ['dipole'])
--------------------------------------------------------------------------

    Molecular point group: c1
  Charge       = 0
  Multiplicity = 1
  Basis Set: AUG-CC-PVTZ
    Blend: AUG-CC-PVTZ
  Basis Set: (AUG-CC-PVTZ AUX)
    Blend: AUG-CC-PVTZ-JKFIT

    Orbital Energies [Eh]
    ---------------------

    Doubly Occupied:

       1A    -15.641866     2A    -15.582308     3A    -11.275318
       4A    -11.274496     5A    -11.251094     6A    -11.221867
       7A     -1.372844     8A     -1.116300     9A     -1.054484
      10A     -0.945286    11A     -0.802852    12A     -0.772488
      13A     -0.713321    14A     -0.650160    15A     -0.610826
      16A     -0.580303    17A     -0.569343    18A     -0.545304
      19A     -0.545009    20A     -0.456172    21A     -0.349205
      22A     -0.340851

  @DF-RHF Final Energy:  -263.91774138566154

   => Energetics <=

    Nuclear Repulsion Energy =            226.1105088610004543
    One-Electron Energy =                -804.7131104208391434
    Two-Electron Energy =                 314.6848601741771745
    Total Energy =                       -263.9177413856615431
  Basis Set: (AUG-CC-PVTZ AUX)
    Blend: AUG-CC-PVTZ-RI
    Molecular point group: c1

    Geometry (in Angstrom), charge = 0, multiplicity = 1:

       Center              X                  Y                   Z               Mass
    ------------   -----------------  -----------------  -----------------  -----------------
         N            0.630842104742     0.045401574831    -0.000009539772    14.003074004430
         N           -0.056966895258    -1.114026425169    -0.000016539772    14.003074004430
         C           -0.175487895258     1.142832574831     0.000023460228    12.000000000000
         C            2.080753104742     0.001090574831    -0.000005539772    12.000000000000
         C           -1.478692895258     0.669865574831     0.000015460228    12.000000000000
         C           -1.350393895258    -0.727303425169    -0.000005539772    12.000000000000
         H            0.233025104742     2.144344574831     0.000047460228     1.007825032230
         H            2.431342104742    -0.522219425169     0.890957460228     1.007825032230
         H            2.431332104742    -0.522360425169    -0.890888539772     1.007825032230
         H            2.458106104742     1.024424574831    -0.000087539772     1.007825032230
         H           -2.401835395258     1.269475774831     0.000019560228     1.007825032230
         H           -2.125807895258    -1.482411425169    -0.000017539772     1.007825032230

  Basis Set: AUG-CC-PVTZ
    Blend: AUG-CC-PVTZ
  Basis Set: (AUG-CC-PVTZ AUX)
    Blend: AUG-CC-PVTZ-JKFIT
	 Reference Energy          =    -263.9177413856615431 [Eh]
	 Singles Energy            =      -0.0000000000000000 [Eh]
	 Same-Spin Energy          =      -0.2883576213821821 [Eh]
	 Opposite-Spin Energy      =      -0.9015593648573876 [Eh]
	 Correlation Energy        =      -1.1899169862395698 [Eh]
	 Total Energy              =    -265.1076583719010955 [Eh]

	 ================> DF-SCS-MP2 Energies <==================
	-----------------------------------------------------------
	 SCS Same-Spin Scale       =       0.3333333333333333 [-]
	 SCS Opposite-Spin Scale   =       1.2000000000000000 [-]
	 SCS Same-Spin Energy      =      -0.0961192071273940 [Eh]
	 SCS Opposite-Spin Energy  =      -1.0818712378288651 [Eh]
	 SCS Correlation Energy    =      -1.1779904449562590 [Eh]
	 SCS Total Energy          =    -265.0957318306178081 [Eh]
	-----------------------------------------------------------

  Dipole Moment: [D]
     X:     1.3424      Y:     2.0555      Z:     0.0000     Total:     2.4550

*** Psi4 exiting successfully. Buy a developer a beer!
