                               Psi4 1.4a3.dev225

  ==> Input File <==

--------------------------------------------------------------------------
#psi4
#
memory 32 gb

molecule  {
0 1
  N        0.6164921     0.0118825    -0.0000102
  N       -0.0914470    -1.1353650    -0.0000170
  C       -0.2099680     1.1214940     0.0000230
  C        2.0462730    -0.0202480    -0.0000060
  C       -1.5131730     0.6485270     0.0000150
  C       -1.3848740    -0.7486420    -0.0000060
  H        0.1985450     2.1230060     0.0000470
  H        2.3968620    -0.5435580     0.8909570
  H        2.3968520    -0.5436990    -0.8908890
  H        2.4236260     1.0030860    -0.0000880
  H       -2.4195430     1.2372430     0.0000190
  H       -2.1602880    -1.5037500    -0.0000180
units angstrom
no_reorient  #important for SAPT in psi4, default
symmetry c1  #important for SAPT in psi4, default
}

set PROPERTIES_ORIGIN ["COM"]
properties('MP2/aug-cc-pvtz', properties = ['dipole'])
--------------------------------------------------------------------------

    Molecular point group: c1
  Charge       = 0
  Multiplicity = 1
  Basis Set: AUG-CC-PVTZ
    Blend: AUG-CC-PVTZ
  Basis Set: (AUG-CC-PVTZ AUX)
    Blend: AUG-CC-PVTZ-JKFIT

    Orbital Energies [Eh]
    ---------------------

    Doubly Occupied:

       1A    -15.641349     2A    -15.583626     3A    -11.276882
       4A    -11.272457     5A    -11.251620     6A    -11.221796
       7A     -1.370139     8A     -1.119711     9A     -1.052181
      10A     -0.945348    11A     -0.803408    12A     -0.773237
      13A     -0.713321    14A     -0.650898    15A     -0.614076
      16A     -0.588155    17A     -0.567701    18A     -0.545226
      19A     -0.542499    20A     -0.454006    21A     -0.348022
      22A     -0.341062

  @DF-RHF Final Energy:  -263.91687497516159

   => Energetics <=

    Nuclear Repulsion Energy =            226.0140900316904435
    One-Electron Energy =                -804.5084913492493115
    Two-Electron Energy =                 314.5775263423972774
    Total Energy =                       -263.9168749751615906
  Basis Set: (AUG-CC-PVTZ AUX)
    Blend: AUG-CC-PVTZ-RI
    Molecular point group: c1

    Geometry (in Angstrom), charge = 0, multiplicity = 1:

       Center              X                  Y                   Z               Mass
    ------------   -----------------  -----------------  -----------------  -----------------
         N            0.647330818470     0.035433592022    -0.000009704412    14.003074004430
         N           -0.060608281530    -1.111813907978    -0.000016504412    14.003074004430
         C           -0.179129281530     1.145045092022     0.000023495588    12.000000000000
         C            2.077111718470     0.003303092022    -0.000005504412    12.000000000000
         C           -1.482334281530     0.672078092022     0.000015495588    12.000000000000
         C           -1.354035281530    -0.725090907978    -0.000005504412    12.000000000000
         H            0.229383718470     2.146557092022     0.000047495588     1.007825032230
         H            2.427700718470    -0.520006907978     0.890957495588     1.007825032230
         H            2.427690718470    -0.520147907978    -0.890888504412     1.007825032230
         H            2.454464718470     1.026637092022    -0.000087504412     1.007825032230
         H           -2.388704281530     1.260794092022     0.000019495588     1.007825032230
         H           -2.129449281530    -1.480198907978    -0.000017504412     1.007825032230

  Basis Set: AUG-CC-PVTZ
    Blend: AUG-CC-PVTZ
  Basis Set: (AUG-CC-PVTZ AUX)
    Blend: AUG-CC-PVTZ-JKFIT
	 Reference Energy          =    -263.9168749751615906 [Eh]
	 Singles Energy            =      -0.0000000000000000 [Eh]
	 Same-Spin Energy          =      -0.2885250710805863 [Eh]
	 Opposite-Spin Energy      =      -0.9018756405491952 [Eh]
	 Correlation Energy        =      -1.1904007116297817 [Eh]
	 Total Energy              =    -265.1072756867913540 [Eh]

	 ================> DF-SCS-MP2 Energies <==================
	-----------------------------------------------------------
	 SCS Same-Spin Scale       =       0.3333333333333333 [-]
	 SCS Opposite-Spin Scale   =       1.2000000000000000 [-]
	 SCS Same-Spin Energy      =      -0.0961750236935288 [Eh]
	 SCS Opposite-Spin Energy  =      -1.0822507686590341 [Eh]
	 SCS Correlation Energy    =      -1.1784257923525630 [Eh]
	 SCS Total Energy          =    -265.0953007675141748 [Eh]
	-----------------------------------------------------------

  Dipole Moment: [D]
     X:     1.2815      Y:     2.0603      Z:     0.0000     Total:     2.4263

*** Psi4 exiting successfully. Buy a developer a beer!
