                               Psi4 1.4a3.dev225

  ==> Input File <==

--------------------------------------------------------------------------
#psi4
#
memory 32 gb

molecule  {
0 1
  N        0.7137873    -0.0541841    -0.0000114
  N       -0.0914470    -1.1353650    -0.0000170
  C       -0.2099680     1.1214940     0.0000230
  C        2.0462730    -0.0202480    -0.0000060
  C       -1.5131730     0.6485270     0.0000150
  C       -1.3848740    -0.7486420    -0.0000060
  H        0.1985450     2.1230060     0.0000470
  H        2.3968620    -0.5435580     0.8909570
  H        2.3968520    -0.5436990    -0.8908890
  H        2.4236260     1.0030860    -0.0000880
  H       -2.4195430     1.2372430     0.0000190
  H       -2.1602880    -1.5037500    -0.0000180
units angstrom
no_reorient  #important for SAPT in psi4, default
symmetry c1  #important for SAPT in psi4, default
}

set PROPERTIES_ORIGIN ["COM"]
properties('MP2/aug-cc-pvtz', properties = ['dipole'])
--------------------------------------------------------------------------

    Molecular point group: c1
  Charge       = 0
  Multiplicity = 1
  Basis Set: AUG-CC-PVTZ
    Blend: AUG-CC-PVTZ
  Basis Set: (AUG-CC-PVTZ AUX)
    Blend: AUG-CC-PVTZ-JKFIT

    Orbital Energies [Eh]
    ---------------------

    Doubly Occupied:

       1A    -15.638695     2A    -15.591167     3A    -11.284216
       4A    -11.263171     5A    -11.255154     6A    -11.232321
       7A     -1.362440     8A     -1.143862     9A     -1.041720
      10A     -0.942292    11A     -0.800925    12A     -0.775167
      13A     -0.709046    14A     -0.658852    15A     -0.624226
      16A     -0.617669    17A     -0.559304    18A     -0.539784
      19A     -0.530616    20A     -0.439927    21A     -0.354169
      22A     -0.330108

  @DF-RHF Final Energy:  -263.88486760978964

   => Energetics <=

    Nuclear Repulsion Energy =            225.2453524329206402
    One-Electron Energy =                -802.8707787669898153
    Two-Electron Energy =                 313.7405587242795377
    Total Energy =                       -263.8848676097896373
  Basis Set: (AUG-CC-PVTZ AUX)
    Blend: AUG-CC-PVTZ-RI
    Molecular point group: c1

    Geometry (in Angstrom), charge = 0, multiplicity = 1:

       Center              X                  Y                   Z               Mass
    ------------   -----------------  -----------------  -----------------  -----------------
         N            0.728021747386    -0.019358168767    -0.000010699622    14.003074004430
         N           -0.077212552614    -1.100539068767    -0.000016299622    14.003074004430
         C           -0.195733552614     1.156319931233     0.000023700378    12.000000000000
         C            2.060507447386     0.014577931233    -0.000005299622    12.000000000000
         C           -1.498938552614     0.683352931233     0.000015700378    12.000000000000
         C           -1.370639552614    -0.713816068767    -0.000005299622    12.000000000000
         H            0.212779447386     2.157831931233     0.000047700378     1.007825032230
         H            2.411096447386    -0.508732068767     0.890957700378     1.007825032230
         H            2.411086447386    -0.508873068767    -0.890888299622     1.007825032230
         H            2.437860447386     1.037911931233    -0.000087299622     1.007825032230
         H           -2.405308552614     1.272068931233     0.000019700378     1.007825032230
         H           -2.146053552614    -1.468924068767    -0.000017299622     1.007825032230

  Basis Set: AUG-CC-PVTZ
    Blend: AUG-CC-PVTZ
  Basis Set: (AUG-CC-PVTZ AUX)
    Blend: AUG-CC-PVTZ-JKFIT
	 Reference Energy          =    -263.8848676097896373 [Eh]
	 Singles Energy            =      -0.0000000000000000 [Eh]
	 Same-Spin Energy          =      -0.2901056428962264 [Eh]
	 Opposite-Spin Energy      =      -0.9053787634625529 [Eh]
	 Correlation Energy        =      -1.1954844063587793 [Eh]
	 Total Energy              =    -265.0803520161484244 [Eh]

	 ================> DF-SCS-MP2 Energies <==================
	-----------------------------------------------------------
	 SCS Same-Spin Scale       =       0.3333333333333333 [-]
	 SCS Opposite-Spin Scale   =       1.2000000000000000 [-]
	 SCS Same-Spin Energy      =      -0.0967018809654088 [Eh]
	 SCS Opposite-Spin Energy  =      -1.0864545161550634 [Eh]
	 SCS Correlation Energy    =      -1.1831563971204722 [Eh]
	 SCS Total Energy          =    -265.0680240069100932 [Eh]
	-----------------------------------------------------------

  Dipole Moment: [D]
     X:     1.0151      Y:     2.0902      Z:     0.0000     Total:     2.3237

*** Psi4 exiting successfully. Buy a developer a beer!
