                               Psi4 1.4a3.dev225

  ==> Input File <==

--------------------------------------------------------------------------
#psi4
#
memory 32 gb

molecule  {
0 1
  N        0.5963620     0.0240630    -0.0000100
  N       -0.0914470    -1.1353650    -0.0000170
  C       -0.2099680     1.1214940     0.0000230
  C        2.0462730    -0.0202480    -0.0000060
  C       -1.5131730     0.6485270     0.0000150
  C       -1.3848740    -0.7486420    -0.0000060
  H        0.2740820     2.3081928     0.0000514
  H        2.3968620    -0.5435580     0.8909570
  H        2.3968520    -0.5436990    -0.8908890
  H        2.4236260     1.0030860    -0.0000880
  H       -2.4195430     1.2372430     0.0000190
  H       -2.1602880    -1.5037500    -0.0000180
units angstrom
no_reorient  #important for SAPT in psi4, default
symmetry c1  #important for SAPT in psi4, default
}

set PROPERTIES_ORIGIN ["COM"]
properties('MP2/aug-cc-pvtz', properties = ['dipole'])
--------------------------------------------------------------------------

    Molecular point group: c1
  Charge       = 0
  Multiplicity = 1
  Basis Set: AUG-CC-PVTZ
    Blend: AUG-CC-PVTZ
  Basis Set: (AUG-CC-PVTZ AUX)
    Blend: AUG-CC-PVTZ-JKFIT

    Orbital Energies [Eh]
    ---------------------

    Doubly Occupied:

       1A    -15.643328     2A    -15.583301     3A    -11.295356
       4A    -11.274100     5A    -11.252414     6A    -11.221324
       7A     -1.373931     8A     -1.116376     9A     -1.051744
      10A     -0.945803    11A     -0.801496    12A     -0.761364
      13A     -0.694860    14A     -0.650609    15A     -0.608798
      16A     -0.582248    17A     -0.555613    18A     -0.545807
      19A     -0.536990    20A     -0.456470    21A     -0.350204
      22A     -0.341830

  @DF-RHF Final Energy:  -263.89530944568935

   => Energetics <=

    Nuclear Repulsion Energy =            225.3362605911058267
    One-Electron Energy =                -803.1752094666617268
    Two-Electron Energy =                 313.9436394298664936
    Total Energy =                       -263.8953094456893496
  Basis Set: (AUG-CC-PVTZ AUX)
    Blend: AUG-CC-PVTZ-RI
    Molecular point group: c1

    Geometry (in Angstrom), charge = 0, multiplicity = 1:

       Center              X                  Y                   Z               Mass
    ------------   -----------------  -----------------  -----------------  -----------------
         N            0.629708304473     0.043260809289    -0.000009592587    14.003074004430
         N           -0.058100695527    -1.116167190711    -0.000016592587    14.003074004430
         C           -0.176621695527     1.140691809289     0.000023407413    12.000000000000
         C            2.079619304473    -0.001050190711    -0.000005592587    12.000000000000
         C           -1.479826695527     0.667724809289     0.000015407413    12.000000000000
         C           -1.351527695527    -0.729444190711    -0.000005592587    12.000000000000
         H            0.307428304473     2.327390609289     0.000051807413     1.007825032230
         H            2.430208304473    -0.524360190711     0.890957407413     1.007825032230
         H            2.430198304473    -0.524501190711    -0.890888592587     1.007825032230
         H            2.456972304473     1.022283809289    -0.000087592587     1.007825032230
         H           -2.386196695527     1.256440809289     0.000019407413     1.007825032230
         H           -2.126941695527    -1.484552190711    -0.000017592587     1.007825032230

  Basis Set: AUG-CC-PVTZ
    Blend: AUG-CC-PVTZ
  Basis Set: (AUG-CC-PVTZ AUX)
    Blend: AUG-CC-PVTZ-JKFIT
	 Reference Energy          =    -263.8953094456893496 [Eh]
	 Singles Energy            =      -0.0000000000000000 [Eh]
	 Same-Spin Energy          =      -0.2888885870590912 [Eh]
	 Opposite-Spin Energy      =      -0.9036602153862945 [Eh]
	 Correlation Energy        =      -1.1925488024453856 [Eh]
	 Total Energy              =    -265.0878582481347507 [Eh]

	 ================> DF-SCS-MP2 Energies <==================
	-----------------------------------------------------------
	 SCS Same-Spin Scale       =       0.3333333333333333 [-]
	 SCS Opposite-Spin Scale   =       1.2000000000000000 [-]
	 SCS Same-Spin Energy      =      -0.0962961956863637 [Eh]
	 SCS Opposite-Spin Energy  =      -1.0843922584635532 [Eh]
	 SCS Correlation Energy    =      -1.1806884541499170 [Eh]
	 SCS Total Energy          =    -265.0759978998392512 [Eh]
	-----------------------------------------------------------

  Dipole Moment: [D]
     X:     1.3237      Y:     2.0309      Z:     0.0000     Total:     2.4242

*** Psi4 exiting successfully. Buy a developer a beer!
