                               Psi4 1.4a3.dev225

  ==> Input File <==

--------------------------------------------------------------------------
#psi4
#
memory 32 gb

molecule  {
0 1
  N        0.5963620     0.0240630    -0.0000100
  N       -0.0914470    -1.1353650    -0.0000170
  C       -0.2099680     1.1214940     0.0000230
  C        2.0262823    -0.0196371    -0.0000061
  C       -1.5131730     0.6485270     0.0000150
  C       -1.3848740    -0.7486420    -0.0000060
  H        0.1985450     2.1230060     0.0000470
  H        2.3968620    -0.5435580     0.8909570
  H        2.3968520    -0.5436990    -0.8908890
  H        2.4236260     1.0030860    -0.0000880
  H       -2.4195430     1.2372430     0.0000190
  H       -2.1602880    -1.5037500    -0.0000180
units angstrom
no_reorient  #important for SAPT in psi4, default
symmetry c1  #important for SAPT in psi4, default
}

set PROPERTIES_ORIGIN ["COM"]
properties('MP2/aug-cc-pvtz', properties = ['dipole'])
--------------------------------------------------------------------------

    Molecular point group: c1
  Charge       = 0
  Multiplicity = 1
  Basis Set: AUG-CC-PVTZ
    Blend: AUG-CC-PVTZ
  Basis Set: (AUG-CC-PVTZ AUX)
    Blend: AUG-CC-PVTZ-JKFIT

    Orbital Energies [Eh]
    ---------------------

    Doubly Occupied:

       1A    -15.642102     2A    -15.582775     3A    -11.276006
       4A    -11.273973     5A    -11.251795     6A    -11.220345
       7A     -1.375292     8A     -1.120028     9A     -1.055921
      10A     -0.944327    11A     -0.805458    12A     -0.773657
      13A     -0.716206    14A     -0.650837    15A     -0.611942
      16A     -0.585786    17A     -0.569077    18A     -0.543277
      19A     -0.541727    20A     -0.457028    21A     -0.349423
      22A     -0.341418

  @DF-RHF Final Energy:  -263.91807024253103

   => Energetics <=

    Nuclear Repulsion Energy =            226.5572231565930679
    One-Electron Energy =                -805.5737856579264644
    Two-Electron Energy =                 315.0984922588023665
    Total Energy =                       -263.9180702425310301
  Basis Set: (AUG-CC-PVTZ AUX)
    Blend: AUG-CC-PVTZ-RI
    Molecular point group: c1

    Geometry (in Angstrom), charge = 0, multiplicity = 1:

       Center              X                  Y                   Z               Mass
    ------------   -----------------  -----------------  -----------------  -----------------
         N            0.633559670069     0.045446041737    -0.000009523919    14.003074004430
         N           -0.054249329931    -1.113981958263    -0.000016523919    14.003074004430
         C           -0.172770329931     1.142877041737     0.000023476081    12.000000000000
         C            2.063479970069     0.001745941737    -0.000005623919    12.000000000000
         C           -1.475975329931     0.669910041737     0.000015476081    12.000000000000
         C           -1.347676329931    -0.727258958263    -0.000005523919    12.000000000000
         H            0.235742670069     2.144389041737     0.000047476081     1.007825032230
         H            2.434059670069    -0.522174958263     0.890957476081     1.007825032230
         H            2.434049670069    -0.522315958263    -0.890888523919     1.007825032230
         H            2.460823670069     1.024469041737    -0.000087523919     1.007825032230
         H           -2.382345329931     1.258626041737     0.000019476081     1.007825032230
         H           -2.123090329931    -1.482366958263    -0.000017523919     1.007825032230

  Basis Set: AUG-CC-PVTZ
    Blend: AUG-CC-PVTZ
  Basis Set: (AUG-CC-PVTZ AUX)
    Blend: AUG-CC-PVTZ-JKFIT
	 Reference Energy          =    -263.9180702425310301 [Eh]
	 Singles Energy            =      -0.0000000000000000 [Eh]
	 Same-Spin Energy          =      -0.2884084007258531 [Eh]
	 Opposite-Spin Energy      =      -0.9014073195127066 [Eh]
	 Correlation Energy        =      -1.1898157202385597 [Eh]
	 Total Energy              =    -265.1078859627696147 [Eh]

	 ================> DF-SCS-MP2 Energies <==================
	-----------------------------------------------------------
	 SCS Same-Spin Scale       =       0.3333333333333333 [-]
	 SCS Opposite-Spin Scale   =       1.2000000000000000 [-]
	 SCS Same-Spin Energy      =      -0.0961361335752844 [Eh]
	 SCS Opposite-Spin Energy  =      -1.0816887834152478 [Eh]
	 SCS Correlation Energy    =      -1.1778249169905322 [Eh]
	 SCS Total Energy          =    -265.0958951595215467 [Eh]
	-----------------------------------------------------------

  Dipole Moment: [D]
     X:     1.2786      Y:     2.0619      Z:     0.0000     Total:     2.4262

*** Psi4 exiting successfully. Buy a developer a beer!
