                               Psi4 1.4a3.dev225

  ==> Input File <==

--------------------------------------------------------------------------
#psi4
#
memory 32 gb

molecule  {
0 1
  N        0.5963620     0.0240630    -0.0000100
  N       -0.0914470    -1.1353650    -0.0000170
  C       -0.2099680     1.1214940     0.0000230
  C        2.0462730    -0.0202480    -0.0000060
  C       -1.3251715     0.7167576     0.0000162
  C       -1.3848740    -0.7486420    -0.0000060
  H        0.1985450     2.1230060     0.0000470
  H        2.3968620    -0.5435580     0.8909570
  H        2.3968520    -0.5436990    -0.8908890
  H        2.4236260     1.0030860    -0.0000880
  H       -2.4195430     1.2372430     0.0000190
  H       -2.1602880    -1.5037500    -0.0000180
units angstrom
no_reorient  #important for SAPT in psi4, default
symmetry c1  #important for SAPT in psi4, default
}

set PROPERTIES_ORIGIN ["COM"]
properties('MP2/aug-cc-pvtz', properties = ['dipole'])
--------------------------------------------------------------------------

    Molecular point group: c1
  Charge       = 0
  Multiplicity = 1
  Basis Set: AUG-CC-PVTZ
    Blend: AUG-CC-PVTZ
  Basis Set: (AUG-CC-PVTZ AUX)
    Blend: AUG-CC-PVTZ-JKFIT

    Orbital Energies [Eh]
    ---------------------

    Doubly Occupied:

       1A    -15.621643     2A    -15.592576     3A    -11.268064
       4A    -11.254643     5A    -11.244944     6A    -11.212369
       7A     -1.377928     8A     -1.109918     9A     -1.095033
      10A     -0.930478    11A     -0.806659    12A     -0.770162
      13A     -0.713623    14A     -0.650678    15A     -0.609666
      16A     -0.594393    17A     -0.558641    18A     -0.549584
      19A     -0.520603    20A     -0.450000    21A     -0.377626
      22A     -0.336074

  @DF-RHF Final Energy:  -263.85638757878485

   => Energetics <=

    Nuclear Repulsion Energy =            229.0489991462995647
    One-Electron Energy =                -810.5201624901097830
    Two-Electron Energy =                 317.6147757650253425
    Total Energy =                       -263.8563875787848474
  Basis Set: (AUG-CC-PVTZ AUX)
    Blend: AUG-CC-PVTZ-RI
    Molecular point group: c1

    Geometry (in Angstrom), charge = 0, multiplicity = 1:

       Center              X                  Y                   Z               Mass
    ------------   -----------------  -----------------  -----------------  -----------------
         N            0.603141484106     0.035556879503    -0.000009714040    14.003074004430
         N           -0.084667515894    -1.123871120497    -0.000016714040    14.003074004430
         C           -0.203188515894     1.132987879503     0.000023285960    12.000000000000
         C            2.053052484106    -0.008754120497    -0.000005714040    12.000000000000
         C           -1.318392015894     0.728251479503     0.000016485960    12.000000000000
         C           -1.378094515894    -0.737148120497    -0.000005714040    12.000000000000
         H            0.205324484106     2.134499879503     0.000047285960     1.007825032230
         H            2.403641484106    -0.532064120497     0.890957285960     1.007825032230
         H            2.403631484106    -0.532205120497    -0.890888714040     1.007825032230
         H            2.430405484106     1.014579879503    -0.000087714040     1.007825032230
         H           -2.412763515894     1.248736879503     0.000019285960     1.007825032230
         H           -2.153508515894    -1.492256120497    -0.000017714040     1.007825032230

  Basis Set: AUG-CC-PVTZ
    Blend: AUG-CC-PVTZ
  Basis Set: (AUG-CC-PVTZ AUX)
    Blend: AUG-CC-PVTZ-JKFIT
	 Reference Energy          =    -263.8563875787848474 [Eh]
	 Singles Energy            =      -0.0000000000000000 [Eh]
	 Same-Spin Energy          =      -0.2871553297211560 [Eh]
	 Opposite-Spin Energy      =      -0.9001450442623978 [Eh]
	 Correlation Energy        =      -1.1873003739835539 [Eh]
	 Total Energy              =    -265.0436879527683800 [Eh]

	 ================> DF-SCS-MP2 Energies <==================
	-----------------------------------------------------------
	 SCS Same-Spin Scale       =       0.3333333333333333 [-]
	 SCS Opposite-Spin Scale   =       1.2000000000000000 [-]
	 SCS Same-Spin Energy      =      -0.0957184432403853 [Eh]
	 SCS Opposite-Spin Energy  =      -1.0801740531148774 [Eh]
	 SCS Correlation Energy    =      -1.1758924963552626 [Eh]
	 SCS Total Energy          =    -265.0322800751401360 [Eh]
	-----------------------------------------------------------

  Dipole Moment: [D]
     X:     1.1234      Y:     2.0308      Z:     0.0000     Total:     2.3208

*** Psi4 exiting successfully. Buy a developer a beer!
