                               Psi4 1.4a3.dev225

  ==> Input File <==

--------------------------------------------------------------------------
#psi4
#
memory 32 gb

molecule  {
0 1
  N        0.5963620     0.0240630    -0.0000100
  N       -0.2088723    -1.0571179    -0.0000136
  C       -0.2099680     1.1214940     0.0000230
  C        2.0462730    -0.0202480    -0.0000060
  C       -1.5131730     0.6485270     0.0000150
  C       -1.3848740    -0.7486420    -0.0000060
  H        0.1985450     2.1230060     0.0000470
  H        2.3968620    -0.5435580     0.8909570
  H        2.3968520    -0.5436990    -0.8908890
  H        2.4236260     1.0030860    -0.0000880
  H       -2.4195430     1.2372430     0.0000190
  H       -2.1602880    -1.5037500    -0.0000180
units angstrom
no_reorient  #important for SAPT in psi4, default
symmetry c1  #important for SAPT in psi4, default
}

set PROPERTIES_ORIGIN ["COM"]
properties('MP2/aug-cc-pvtz', properties = ['dipole'])
--------------------------------------------------------------------------

    Molecular point group: c1
  Charge       = 0
  Multiplicity = 1
  Basis Set: AUG-CC-PVTZ
    Blend: AUG-CC-PVTZ
  Basis Set: (AUG-CC-PVTZ AUX)
    Blend: AUG-CC-PVTZ-JKFIT

    Orbital Energies [Eh]
    ---------------------

    Doubly Occupied:

       1A    -15.632435     2A    -15.563045     3A    -11.277668
       4A    -11.270997     5A    -11.233276     6A    -11.210332
       7A     -1.387986     8A     -1.150463     9A     -1.042975
      10A     -0.950751    11A     -0.815585    12A     -0.765532
      13A     -0.715534    14A     -0.653738    15A     -0.618037
      16A     -0.592754    17A     -0.570766    18A     -0.556601
      19A     -0.551184    20A     -0.428368    21A     -0.371290
      22A     -0.331857

  @DF-RHF Final Energy:  -263.90730348488063

   => Energetics <=

    Nuclear Repulsion Energy =            228.7880576751346666
    One-Electron Energy =                -810.0083730707841596
    Two-Electron Energy =                 317.3130119107689211
    Total Energy =                       -263.9073034848806287
  Basis Set: (AUG-CC-PVTZ AUX)
    Blend: AUG-CC-PVTZ-RI
    Molecular point group: c1

    Geometry (in Angstrom), charge = 0, multiplicity = 1:

       Center              X                  Y                   Z               Mass
    ------------   -----------------  -----------------  -----------------  -----------------
         N            0.650675742426     0.032181836536    -0.000010118784    14.003074004430
         N           -0.154558557574    -1.048999063464    -0.000013718784    14.003074004430
         C           -0.155654257574     1.129612836536     0.000022881216    12.000000000000
         C            2.100586742426    -0.012129163464    -0.000006118784    12.000000000000
         C           -1.458859257574     0.656645836536     0.000014881216    12.000000000000
         C           -1.330560257574    -0.740523163464    -0.000006118784    12.000000000000
         H            0.252858742426     2.131124836536     0.000046881216     1.007825032230
         H            2.451175742426    -0.535439163464     0.890956881216     1.007825032230
         H            2.451165742426    -0.535580163464    -0.890889118784     1.007825032230
         H            2.477939742426     1.011204836536    -0.000088118784     1.007825032230
         H           -2.365229257574     1.245361836536     0.000018881216     1.007825032230
         H           -2.105974257574    -1.495631163464    -0.000018118784     1.007825032230

  Basis Set: AUG-CC-PVTZ
    Blend: AUG-CC-PVTZ
  Basis Set: (AUG-CC-PVTZ AUX)
    Blend: AUG-CC-PVTZ-JKFIT
	 Reference Energy          =    -263.9073034848806287 [Eh]
	 Singles Energy            =      -0.0000000000000000 [Eh]
	 Same-Spin Energy          =      -0.2850788276541826 [Eh]
	 Opposite-Spin Energy      =      -0.8947649005498184 [Eh]
	 Correlation Energy        =      -1.1798437282040011 [Eh]
	 Total Energy              =    -265.0871472130846200 [Eh]

	 ================> DF-SCS-MP2 Energies <==================
	-----------------------------------------------------------
	 SCS Same-Spin Scale       =       0.3333333333333333 [-]
	 SCS Opposite-Spin Scale   =       1.2000000000000000 [-]
	 SCS Same-Spin Energy      =      -0.0950262758847275 [Eh]
	 SCS Opposite-Spin Energy  =      -1.0737178806597820 [Eh]
	 SCS Correlation Energy    =      -1.1687441565445096 [Eh]
	 SCS Total Energy          =    -265.0760476414251343 [Eh]
	-----------------------------------------------------------

  Dipole Moment: [D]
     X:     1.5173      Y:     1.7650      Z:     0.0000     Total:     2.3275

*** Psi4 exiting successfully. Buy a developer a beer!
