                               Psi4 1.4a3.dev225

  ==> Input File <==

--------------------------------------------------------------------------
#psi4
#
memory 32 gb

molecule  {
0 1
  N        0.5963620     0.0240630    -0.0000100
  N       -0.0914470    -1.1353650    -0.0000170
  C       -0.2099680     1.1214940     0.0000230
  C        2.0462730    -0.0202480    -0.0000060
  C       -1.5131730     0.6485270     0.0000150
  C       -1.3848740    -0.7486420    -0.0000060
  H        0.1985450     2.1230060     0.0000470
  H        2.3968620    -0.5435580     0.8909570
  H        2.3968520    -0.5436990    -0.8908890
  H        2.4236260     1.0030860    -0.0000880
  H       -2.2518184     1.1283006     0.0000183
  H       -2.1602880    -1.5037500    -0.0000180
units angstrom
no_reorient  #important for SAPT in psi4, default
symmetry c1  #important for SAPT in psi4, default
}

set PROPERTIES_ORIGIN ["COM"]
properties('MP2/aug-cc-pvtz', properties = ['dipole'])
--------------------------------------------------------------------------

    Molecular point group: c1
  Charge       = 0
  Multiplicity = 1
  Basis Set: AUG-CC-PVTZ
    Blend: AUG-CC-PVTZ
  Basis Set: (AUG-CC-PVTZ AUX)
    Blend: AUG-CC-PVTZ-JKFIT

    Orbital Energies [Eh]
    ---------------------

    Doubly Occupied:

       1A    -15.641097     2A    -15.581203     3A    -11.274302
       4A    -11.273995     5A    -11.249834     6A    -11.196398
       7A     -1.371788     8A     -1.116128     9A     -1.060275
      10A     -0.950865    11A     -0.824359    12A     -0.771892
      13A     -0.727151    14A     -0.649443    15A     -0.634100
      16A     -0.588657    17A     -0.570701    18A     -0.547325
      19A     -0.544549    20A     -0.456255    21A     -0.348511
      22A     -0.340374

  @DF-RHF Final Energy:  -263.88195458525928

   => Energetics <=

    Nuclear Repulsion Energy =            227.3108735103442939
    One-Electron Energy =                -806.9472522526573357
    Two-Electron Energy =                 315.7544241570537338
    Total Energy =                       -263.8819545852592796
  Basis Set: (AUG-CC-PVTZ AUX)
    Blend: AUG-CC-PVTZ-RI
    Molecular point group: c1

    Geometry (in Angstrom), charge = 0, multiplicity = 1:

       Center              X                  Y                   Z               Mass
    ------------   -----------------  -----------------  -----------------  -----------------
         N            0.628576001453     0.046873479340    -0.000009529946    14.003074004430
         N           -0.059232998547    -1.112554520660    -0.000016529946    14.003074004430
         C           -0.177753998547     1.144304479340     0.000023470054    12.000000000000
         C            2.078487001453     0.002562479340    -0.000005529946    12.000000000000
         C           -1.480958998547     0.671337479340     0.000015470054    12.000000000000
         C           -1.352659998547    -0.725831520660    -0.000005529946    12.000000000000
         H            0.230759001453     2.145816479340     0.000047470054     1.007825032230
         H            2.429076001453    -0.520747520660     0.890957470054     1.007825032230
         H            2.429066001453    -0.520888520660    -0.890888529946     1.007825032230
         H            2.455840001453     1.025896479340    -0.000087529946     1.007825032230
         H           -2.219604398547     1.151111079340     0.000018770054     1.007825032230
         H           -2.128073998547    -1.480939520660    -0.000017529946     1.007825032230

  Basis Set: AUG-CC-PVTZ
    Blend: AUG-CC-PVTZ
  Basis Set: (AUG-CC-PVTZ AUX)
    Blend: AUG-CC-PVTZ-JKFIT
	 Reference Energy          =    -263.8819545852592796 [Eh]
	 Singles Energy            =      -0.0000000000000000 [Eh]
	 Same-Spin Energy          =      -0.2881867813708195 [Eh]
	 Opposite-Spin Energy      =      -0.9011458352953532 [Eh]
	 Correlation Energy        =      -1.1893326166661726 [Eh]
	 Total Energy              =    -265.0712872019254291 [Eh]

	 ================> DF-SCS-MP2 Energies <==================
	-----------------------------------------------------------
	 SCS Same-Spin Scale       =       0.3333333333333333 [-]
	 SCS Opposite-Spin Scale   =       1.2000000000000000 [-]
	 SCS Same-Spin Energy      =      -0.0960622604569398 [Eh]
	 SCS Opposite-Spin Energy  =      -1.0813750023544237 [Eh]
	 SCS Correlation Energy    =      -1.1774372628113636 [Eh]
	 SCS Total Energy          =    -265.0593918480706179 [Eh]
	-----------------------------------------------------------

  Dipole Moment: [D]
     X:     1.3415      Y:     2.0627      Z:     0.0000     Total:     2.4606

*** Psi4 exiting successfully. Buy a developer a beer!
