                               Psi4 1.4a3.dev225

  ==> Input File <==

--------------------------------------------------------------------------
#psi4
#
memory 32 gb

molecule  {
0 1
  N        0.5963620     0.0240630    -0.0000100
  N       -0.0914470    -1.1353650    -0.0000170
  C       -0.2099680     1.1214940     0.0000230
  C        2.0462730    -0.0202480    -0.0000060
  C       -1.5131730     0.6485270     0.0000150
  C       -1.3848740    -0.7486420    -0.0000060
  H        0.1796607     2.0767093     0.0000459
  H        2.3968620    -0.5435580     0.8909570
  H        2.3968520    -0.5436990    -0.8908890
  H        2.4236260     1.0030860    -0.0000880
  H       -2.4195430     1.2372430     0.0000190
  H       -2.1602880    -1.5037500    -0.0000180
units angstrom
no_reorient  #important for SAPT in psi4, default
symmetry c1  #important for SAPT in psi4, default
}

set PROPERTIES_ORIGIN ["COM"]
properties('MP2/aug-cc-pvtz', properties = ['dipole'])
--------------------------------------------------------------------------

    Molecular point group: c1
  Charge       = 0
  Multiplicity = 1
  Basis Set: AUG-CC-PVTZ
    Blend: AUG-CC-PVTZ
  Basis Set: (AUG-CC-PVTZ AUX)
    Blend: AUG-CC-PVTZ-JKFIT

    Orbital Energies [Eh]
    ---------------------

    Doubly Occupied:

       1A    -15.641507     2A    -15.582022     3A    -11.274527
       4A    -11.269558     5A    -11.250647     6A    -11.219326
       7A     -1.372533     8A     -1.116363     9A     -1.056217
      10A     -0.945635    11A     -0.806430    12A     -0.776990
      13A     -0.719055    14A     -0.649997    15A     -0.613754
      16A     -0.581476    17A     -0.572986    18A     -0.545978
      19A     -0.545120    20A     -0.456156    21A     -0.348916
      22A     -0.340622

  @DF-RHF Final Energy:  -263.91753333642924

   => Energetics <=

    Nuclear Repulsion Energy =            226.4565370167414926
    One-Electron Energy =                -805.3765097317105983
    Two-Electron Energy =                 315.0024393785399184
    Total Energy =                       -263.9175333364292442
  Basis Set: (AUG-CC-PVTZ AUX)
    Blend: AUG-CC-PVTZ-RI
    Molecular point group: c1

    Geometry (in Angstrom), charge = 0, multiplicity = 1:

       Center              X                  Y                   Z               Mass
    ------------   -----------------  -----------------  -----------------  -----------------
         N            0.630868043128     0.046104027534    -0.000009525033    14.003074004430
         N           -0.056940956872    -1.113323972466    -0.000016525033    14.003074004430
         C           -0.175461956872     1.143535027534     0.000023474967    12.000000000000
         C            2.080779043128     0.001793027534    -0.000005525033    12.000000000000
         C           -1.478666956872     0.670568027534     0.000015474967    12.000000000000
         C           -1.350367956872    -0.726600972466    -0.000005525033    12.000000000000
         H            0.214166743128     2.098750327534     0.000046374967     1.007825032230
         H            2.431368043128    -0.521516972466     0.890957474967     1.007825032230
         H            2.431358043128    -0.521657972466    -0.890888525033     1.007825032230
         H            2.458132043128     1.025127027534    -0.000087525033     1.007825032230
         H           -2.385036956872     1.259284027534     0.000019474967     1.007825032230
         H           -2.125781956872    -1.481708972466    -0.000017525033     1.007825032230

  Basis Set: AUG-CC-PVTZ
    Blend: AUG-CC-PVTZ
  Basis Set: (AUG-CC-PVTZ AUX)
    Blend: AUG-CC-PVTZ-JKFIT
	 Reference Energy          =    -263.9175333364292442 [Eh]
	 Singles Energy            =      -0.0000000000000000 [Eh]
	 Same-Spin Energy          =      -0.2882324974455631 [Eh]
	 Opposite-Spin Energy      =      -0.9011273855328905 [Eh]
	 Correlation Energy        =      -1.1893598829784535 [Eh]
	 Total Energy              =    -265.1068932194077092 [Eh]

	 ================> DF-SCS-MP2 Energies <==================
	-----------------------------------------------------------
	 SCS Same-Spin Scale       =       0.3333333333333333 [-]
	 SCS Opposite-Spin Scale   =       1.2000000000000000 [-]
	 SCS Same-Spin Energy      =      -0.0960774991485210 [Eh]
	 SCS Opposite-Spin Energy  =      -1.0813528626394686 [Eh]
	 SCS Correlation Energy    =      -1.1774303617879895 [Eh]
	 SCS Total Energy          =    -265.0949636982172137 [Eh]
	-----------------------------------------------------------

  Dipole Moment: [D]
     X:     1.3426      Y:     2.0573      Z:     0.0000     Total:     2.4566

*** Psi4 exiting successfully. Buy a developer a beer!
