                               Psi4 1.4a3.dev225

  ==> Input File <==

--------------------------------------------------------------------------
#psi4
#
memory 32 gb

molecule  {
0 1
  N        0.5963620     0.0240630    -0.0000100
  N       -0.0914470    -1.1353650    -0.0000170
  C       -0.1803629     1.0812009     0.0000218
  C        2.0462730    -0.0202480    -0.0000060
  C       -1.5131730     0.6485270     0.0000150
  C       -1.3848740    -0.7486420    -0.0000060
  H        0.1985450     2.1230060     0.0000470
  H        2.3968620    -0.5435580     0.8909570
  H        2.3968520    -0.5436990    -0.8908890
  H        2.4236260     1.0030860    -0.0000880
  H       -2.4195430     1.2372430     0.0000190
  H       -2.1602880    -1.5037500    -0.0000180
units angstrom
no_reorient  #important for SAPT in psi4, default
symmetry c1  #important for SAPT in psi4, default
}

set PROPERTIES_ORIGIN ["COM"]
properties('MP2/aug-cc-pvtz', properties = ['dipole'])
--------------------------------------------------------------------------

    Molecular point group: c1
  Charge       = 0
  Multiplicity = 1
  Basis Set: AUG-CC-PVTZ
    Blend: AUG-CC-PVTZ
  Basis Set: (AUG-CC-PVTZ AUX)
    Blend: AUG-CC-PVTZ-JKFIT

    Orbital Energies [Eh]
    ---------------------

    Doubly Occupied:

       1A    -15.644218     2A    -15.576543     3A    -11.276851
       4A    -11.274951     5A    -11.251017     6A    -11.216945
       7A     -1.383290     8A     -1.121615     9A     -1.054300
      10A     -0.950915    11A     -0.807136    12A     -0.768889
      13A     -0.714915    14A     -0.656122    15A     -0.613355
      16A     -0.586626    17A     -0.564850    18A     -0.548740
      19A     -0.540525    20A     -0.454165    21A     -0.355645
      22A     -0.335151

  @DF-RHF Final Energy:  -263.91757095972378

   => Energetics <=

    Nuclear Repulsion Energy =            227.0254230109530340
    One-Electron Energy =                -806.4924570904441907
    Two-Electron Energy =                 315.5494631197674380
    Total Energy =                       -263.9175709597237756
  Basis Set: (AUG-CC-PVTZ AUX)
    Blend: AUG-CC-PVTZ-RI
    Molecular point group: c1

    Geometry (in Angstrom), charge = 0, multiplicity = 1:

       Center              X                  Y                   Z               Mass
    ------------   -----------------  -----------------  -----------------  -----------------
         N            0.626306444865     0.051428119328    -0.000009363048    14.003074004430
         N           -0.061502555135    -1.107999880672    -0.000016363048    14.003074004430
         C           -0.150418455135     1.108566019328     0.000022436952    12.000000000000
         C            2.076217444865     0.007117119328    -0.000005363048    12.000000000000
         C           -1.483228555135     0.675892119328     0.000015636952    12.000000000000
         C           -1.354929555135    -0.721276880672    -0.000005363048    12.000000000000
         H            0.228489444865     2.150371119328     0.000047636952     1.007825032230
         H            2.426806444865    -0.516192880672     0.890957636952     1.007825032230
         H            2.426796444865    -0.516333880672    -0.890888363048     1.007825032230
         H            2.453570444865     1.030451119328    -0.000087363048     1.007825032230
         H           -2.389598555135     1.264608119328     0.000019636952     1.007825032230
         H           -2.130343555135    -1.476384880672    -0.000017363048     1.007825032230

  Basis Set: AUG-CC-PVTZ
    Blend: AUG-CC-PVTZ
  Basis Set: (AUG-CC-PVTZ AUX)
    Blend: AUG-CC-PVTZ-JKFIT
	 Reference Energy          =    -263.9175709597237756 [Eh]
	 Singles Energy            =      -0.0000000000000000 [Eh]
	 Same-Spin Energy          =      -0.2879032738076515 [Eh]
	 Opposite-Spin Energy      =      -0.9001641545460446 [Eh]
	 Correlation Energy        =      -1.1880674283536961 [Eh]
	 Total Energy              =    -265.1056383880774661 [Eh]

	 ================> DF-SCS-MP2 Energies <==================
	-----------------------------------------------------------
	 SCS Same-Spin Scale       =       0.3333333333333333 [-]
	 SCS Opposite-Spin Scale   =       1.2000000000000000 [-]
	 SCS Same-Spin Energy      =      -0.0959677579358838 [Eh]
	 SCS Opposite-Spin Energy  =      -1.0801969854552536 [Eh]
	 SCS Correlation Energy    =      -1.1761647433911373 [Eh]
	 SCS Total Energy          =    -265.0937357031149304 [Eh]
	-----------------------------------------------------------

  Dipole Moment: [D]
     X:     1.4293      Y:     2.0559      Z:     0.0000     Total:     2.5040

*** Psi4 exiting successfully. Buy a developer a beer!
