                               Psi4 1.4a3.dev225

  ==> Input File <==

--------------------------------------------------------------------------
#psi4
#
memory 32 gb

molecule  {
0 1
  N        0.5963620     0.0240630    -0.0000100
  N       -0.0914470    -1.1353650    -0.0000170
  C       -0.2099680     1.1214940     0.0000230
  C        2.0462730    -0.0202480    -0.0000060
  C       -1.5131730     0.6485270     0.0000150
  C       -1.3848740    -0.7486420    -0.0000060
  H        0.1985450     2.1230060     0.0000470
  H        2.3968620    -0.5435580     0.8909570
  H        2.3968520    -0.5436990    -0.8908890
  H        2.3544308     0.8154373    -0.0000730
  H       -2.4195430     1.2372430     0.0000190
  H       -2.1602880    -1.5037500    -0.0000180
units angstrom
no_reorient  #important for SAPT in psi4, default
symmetry c1  #important for SAPT in psi4, default
}

set PROPERTIES_ORIGIN ["COM"]
properties('MP2/aug-cc-pvtz', properties = ['dipole'])
--------------------------------------------------------------------------

    Molecular point group: c1
  Charge       = 0
  Multiplicity = 1
  Basis Set: AUG-CC-PVTZ
    Blend: AUG-CC-PVTZ
  Basis Set: (AUG-CC-PVTZ AUX)
    Blend: AUG-CC-PVTZ-JKFIT

    Orbital Energies [Eh]
    ---------------------

    Doubly Occupied:

       1A    -15.640636     2A    -15.581246     3A    -11.274921
       4A    -11.250332     5A    -11.250101     6A    -11.219351
       7A     -1.372225     8A     -1.122728     9A     -1.054599
      10A     -0.965323    11A     -0.806799    12A     -0.775441
      13A     -0.720616    14A     -0.648847    15A     -0.634029
      16A     -0.584396    17A     -0.574399    18A     -0.553249
      19A     -0.544159    20A     -0.455322    21A     -0.348402
      22A     -0.340274

  @DF-RHF Final Energy:  -263.88366123103333

   => Energetics <=

    Nuclear Repulsion Energy =            227.1828039764161531
    One-Electron Energy =                -806.6981421619504999
    Two-Electron Energy =                 315.6316769545010175
    Total Energy =                       -263.8836612310333294
  Basis Set: (AUG-CC-PVTZ AUX)
    Blend: AUG-CC-PVTZ-RI
    Molecular point group: c1

    Geometry (in Angstrom), charge = 0, multiplicity = 1:

       Center              X                  Y                   Z               Mass
    ------------   -----------------  -----------------  -----------------  -----------------
         N            0.631485991573     0.047840197003    -0.000009722783    14.003074004430
         N           -0.056323008427    -1.111587802997    -0.000016722783    14.003074004430
         C           -0.174844008427     1.145271197003     0.000023277217    12.000000000000
         C            2.081396991573     0.003529197003    -0.000005722783    12.000000000000
         C           -1.478049008427     0.672304197003     0.000015277217    12.000000000000
         C           -1.349750008427    -0.724864802997    -0.000005722783    12.000000000000
         H            0.233668991573     2.146783197003     0.000047277217     1.007825032230
         H            2.431985991573    -0.519780802997     0.890957277217     1.007825032230
         H            2.431975991573    -0.519921802997    -0.890888722783     1.007825032230
         H            2.389554791573     0.839214497003    -0.000072722783     1.007825032230
         H           -2.384419008427     1.261020197003     0.000019277217     1.007825032230
         H           -2.125164008427    -1.479972802997    -0.000017722783     1.007825032230

  Basis Set: AUG-CC-PVTZ
    Blend: AUG-CC-PVTZ
  Basis Set: (AUG-CC-PVTZ AUX)
    Blend: AUG-CC-PVTZ-JKFIT
	 Reference Energy          =    -263.8836612310333294 [Eh]
	 Singles Energy            =      -0.0000000000000000 [Eh]
	 Same-Spin Energy          =      -0.2883810027161854 [Eh]
	 Opposite-Spin Energy      =      -0.9007565330806475 [Eh]
	 Correlation Energy        =      -1.1891375357968330 [Eh]
	 Total Energy              =    -265.0727987668301466 [Eh]

	 ================> DF-SCS-MP2 Energies <==================
	-----------------------------------------------------------
	 SCS Same-Spin Scale       =       0.3333333333333333 [-]
	 SCS Opposite-Spin Scale   =       1.2000000000000000 [-]
	 SCS Same-Spin Energy      =      -0.0961270009053951 [Eh]
	 SCS Opposite-Spin Energy  =      -1.0809078396967771 [Eh]
	 SCS Correlation Energy    =      -1.1770348406021722 [Eh]
	 SCS Total Energy          =    -265.0606960716355047 [Eh]
	-----------------------------------------------------------

  Dipole Moment: [D]
     X:     1.3812      Y:     2.0860      Z:     0.0000     Total:     2.5018

*** Psi4 exiting successfully. Buy a developer a beer!
