                               Psi4 1.4a3.dev225

  ==> Input File <==

--------------------------------------------------------------------------
#psi4
#
memory 32 gb

molecule  {
0 1
  N        0.5963620     0.0240630    -0.0000100
  N       -0.0914470    -1.1353650    -0.0000170
  C       -0.2099680     1.1214940     0.0000230
  C        2.0462730    -0.0202480    -0.0000060
  C       -1.5131730     0.6485270     0.0000150
  C       -1.3848740    -0.7486420    -0.0000060
  H        0.1985450     2.1230060     0.0000470
  H        2.3968620    -0.5435580     0.8909570
  H        2.3968520    -0.5436990    -0.8908890
  H        2.4928212     1.1907347    -0.0001030
  H       -2.4195430     1.2372430     0.0000190
  H       -2.1602880    -1.5037500    -0.0000180
units angstrom
no_reorient  #important for SAPT in psi4, default
symmetry c1  #important for SAPT in psi4, default
}

set PROPERTIES_ORIGIN ["COM"]
properties('MP2/aug-cc-pvtz', properties = ['dipole'])
--------------------------------------------------------------------------

    Molecular point group: c1
  Charge       = 0
  Multiplicity = 1
  Basis Set: AUG-CC-PVTZ
    Blend: AUG-CC-PVTZ
  Basis Set: (AUG-CC-PVTZ AUX)
    Blend: AUG-CC-PVTZ-JKFIT

    Orbital Energies [Eh]
    ---------------------

    Doubly Occupied:

       1A    -15.643671     2A    -15.583713     3A    -11.296712
       4A    -11.275824     5A    -11.252283     6A    -11.220187
       7A     -1.374060     8A     -1.114335     9A     -1.055639
      10A     -0.936130    11A     -0.803148    12A     -0.771298
      13A     -0.711936    14A     -0.652595    15A     -0.603116
      16A     -0.581351    17A     -0.564462    18A     -0.547535
      19A     -0.520364    20A     -0.457589    21A     -0.350419
      22A     -0.341652

  @DF-RHF Final Energy:  -263.89766509953910

   => Energetics <=

    Nuclear Repulsion Energy =            225.4472768963114220
    One-Electron Energy =                -803.3738433740429628
    Two-Electron Energy =                 314.0289013781924155
    Total Energy =                       -263.8976650995390969
  Basis Set: (AUG-CC-PVTZ AUX)
    Blend: AUG-CC-PVTZ-RI
    Molecular point group: c1

    Geometry (in Angstrom), charge = 0, multiplicity = 1:

       Center              X                  Y                   Z               Mass
    ------------   -----------------  -----------------  -----------------  -----------------
         N            0.629786198239     0.043230570767    -0.000009354305    14.003074004430
         N           -0.058022801761    -1.116197429233    -0.000016354305    14.003074004430
         C           -0.176543801761     1.140661570767     0.000023645695    12.000000000000
         C            2.079697198239    -0.001080429233    -0.000005354305    12.000000000000
         C           -1.479748801761     0.667694570767     0.000015645695    12.000000000000
         C           -1.351449801761    -0.729474429233    -0.000005354305    12.000000000000
         H            0.231969198239     2.142173570767     0.000047645695     1.007825032230
         H            2.430286198239    -0.524390429233     0.890957645695     1.007825032230
         H            2.430276198239    -0.524531429233    -0.890888354305     1.007825032230
         H            2.526245398239     1.209902270767    -0.000102354305     1.007825032230
         H           -2.386118801761     1.256410570767     0.000019645695     1.007825032230
         H           -2.126863801761    -1.484582429233    -0.000017354305     1.007825032230

  Basis Set: AUG-CC-PVTZ
    Blend: AUG-CC-PVTZ
  Basis Set: (AUG-CC-PVTZ AUX)
    Blend: AUG-CC-PVTZ-JKFIT
	 Reference Energy          =    -263.8976650995390969 [Eh]
	 Singles Energy            =      -0.0000000000000000 [Eh]
	 Same-Spin Energy          =      -0.2884067769557644 [Eh]
	 Opposite-Spin Energy      =      -0.9031706104015337 [Eh]
	 Correlation Energy        =      -1.1915773873572981 [Eh]
	 Total Energy              =    -265.0892424868964099 [Eh]

	 ================> DF-SCS-MP2 Energies <==================
	-----------------------------------------------------------
	 SCS Same-Spin Scale       =       0.3333333333333333 [-]
	 SCS Opposite-Spin Scale   =       1.2000000000000000 [-]
	 SCS Same-Spin Energy      =      -0.0961355923185881 [Eh]
	 SCS Opposite-Spin Energy  =      -1.0838047324818403 [Eh]
	 SCS Correlation Energy    =      -1.1799403248004283 [Eh]
	 SCS Total Energy          =    -265.0776054243395379 [Eh]
	-----------------------------------------------------------

  Dipole Moment: [D]
     X:     1.2688      Y:     1.9957      Z:     0.0000     Total:     2.3649

*** Psi4 exiting successfully. Buy a developer a beer!
