                               Psi4 1.4a3.dev225

  ==> Input File <==

--------------------------------------------------------------------------
#psi4
#
memory 32 gb

molecule  {
0 1
  N        0.5554796     0.0473609    -0.0000095
  N       -0.0914470    -1.1353650    -0.0000170
  C       -0.2099680     1.1214940     0.0000230
  C        2.0462730    -0.0202480    -0.0000060
  C       -1.5131730     0.6485270     0.0000150
  C       -1.3848740    -0.7486420    -0.0000060
  H        0.1985450     2.1230060     0.0000470
  H        2.3968620    -0.5435580     0.8909570
  H        2.3968520    -0.5436990    -0.8908890
  H        2.4236260     1.0030860    -0.0000880
  H       -2.4195430     1.2372430     0.0000190
  H       -2.1602880    -1.5037500    -0.0000180
units angstrom
no_reorient  #important for SAPT in psi4, default
symmetry c1  #important for SAPT in psi4, default
}

set PROPERTIES_ORIGIN ["COM"]
properties('MP2/aug-cc-pvtz', properties = ['dipole'])
--------------------------------------------------------------------------

    Molecular point group: c1
  Charge       = 0
  Multiplicity = 1
  Basis Set: AUG-CC-PVTZ
    Blend: AUG-CC-PVTZ
  Basis Set: (AUG-CC-PVTZ AUX)
    Blend: AUG-CC-PVTZ-JKFIT

    Orbital Energies [Eh]
    ---------------------

    Doubly Occupied:

       1A    -15.642407     2A    -15.579362     3A    -11.278336
       4A    -11.271556     5A    -11.249572     6A    -11.215236
       7A     -1.378924     8A     -1.112068     9A     -1.058947
      10A     -0.945625    11A     -0.805541    12A     -0.770517
      13A     -0.716548    14A     -0.649216    15A     -0.609517
      16A     -0.576073    17A     -0.565005    18A     -0.550836
      19A     -0.545577    20A     -0.459982    21A     -0.353666
      22A     -0.337635

  @DF-RHF Final Energy:  -263.91620309977213

   => Energetics <=

    Nuclear Repulsion Energy =            226.6267360287662314
    One-Electron Energy =                -805.7415875214178413
    Two-Electron Energy =                 315.1986483928794769
    Total Energy =                       -263.9162030997721331
  Basis Set: (AUG-CC-PVTZ AUX)
    Blend: AUG-CC-PVTZ-RI
    Molecular point group: c1

    Geometry (in Angstrom), charge = 0, multiplicity = 1:

       Center              X                  Y                   Z               Mass
    ------------   -----------------  -----------------  -----------------  -----------------
         N            0.596730631612     0.064857294861    -0.000009123873    14.003074004430
         N           -0.050195968388    -1.117868605139    -0.000016623873    14.003074004430
         C           -0.168716968388     1.138990394861     0.000023376127    12.000000000000
         C            2.087524031612    -0.002751605139    -0.000005623873    12.000000000000
         C           -1.471921968388     0.666023394861     0.000015376127    12.000000000000
         C           -1.343622968388    -0.731145605139    -0.000005623873    12.000000000000
         H            0.239796031612     2.140502394861     0.000047376127     1.007825032230
         H            2.438113031612    -0.526061605139     0.890957376127     1.007825032230
         H            2.438103031612    -0.526202605139    -0.890888623873     1.007825032230
         H            2.464877031612     1.020582394861    -0.000087623873     1.007825032230
         H           -2.378291968388     1.254739394861     0.000019376127     1.007825032230
         H           -2.119036968388    -1.486253605139    -0.000017623873     1.007825032230

  Basis Set: AUG-CC-PVTZ
    Blend: AUG-CC-PVTZ
  Basis Set: (AUG-CC-PVTZ AUX)
    Blend: AUG-CC-PVTZ-JKFIT
	 Reference Energy          =    -263.9162030997721331 [Eh]
	 Singles Energy            =      -0.0000000000000000 [Eh]
	 Same-Spin Energy          =      -0.2880342335550810 [Eh]
	 Opposite-Spin Energy      =      -0.9008181007173510 [Eh]
	 Correlation Energy        =      -1.1888523342724320 [Eh]
	 Total Energy              =    -265.1050554340445728 [Eh]

	 ================> DF-SCS-MP2 Energies <==================
	-----------------------------------------------------------
	 SCS Same-Spin Scale       =       0.3333333333333333 [-]
	 SCS Opposite-Spin Scale   =       1.2000000000000000 [-]
	 SCS Same-Spin Energy      =      -0.0960114111850270 [Eh]
	 SCS Opposite-Spin Energy  =      -1.0809817208608212 [Eh]
	 SCS Correlation Energy    =      -1.1769931320458482 [Eh]
	 SCS Total Energy          =    -265.0931962318179558 [Eh]
	-----------------------------------------------------------

  Dipole Moment: [D]
     X:     1.4594      Y:     2.0566      Z:     0.0000     Total:     2.5218

*** Psi4 exiting successfully. Buy a developer a beer!
