                               Psi4 1.4a3.dev225

  ==> Input File <==

--------------------------------------------------------------------------
#psi4
#
memory 32 gb

molecule  {
0 1
  N        0.5963620     0.0240630    -0.0000100
  N       -0.0914470    -1.1353650    -0.0000170
  C       -0.2099680     1.1214940     0.0000230
  C        2.0462730    -0.0202480    -0.0000060
  C       -1.5131730     0.6485270     0.0000150
  C       -1.3848740    -0.7486420    -0.0000060
  H        0.1985450     2.1230060     0.0000470
  H        2.3968620    -0.5435580     0.8909570
  H        2.4327963    -0.4796714    -0.9111091
  H        2.4236260     1.0030860    -0.0000880
  H       -2.4195430     1.2372430     0.0000190
  H       -2.1602880    -1.5037500    -0.0000180
units angstrom
no_reorient  #important for SAPT in psi4, default
symmetry c1  #important for SAPT in psi4, default
}

set PROPERTIES_ORIGIN ["COM"]
properties('MP2/aug-cc-pvtz', properties = ['dipole'])
--------------------------------------------------------------------------

    Molecular point group: c1
  Charge       = 0
  Multiplicity = 1
  Basis Set: AUG-CC-PVTZ
    Blend: AUG-CC-PVTZ
  Basis Set: (AUG-CC-PVTZ AUX)
    Blend: AUG-CC-PVTZ-JKFIT

    Orbital Energies [Eh]
    ---------------------

    Doubly Occupied:

       1A    -15.642175     2A    -15.582308     3A    -11.275338
       4A    -11.274412     5A    -11.250969     6A    -11.219814
       7A     -1.372768     8A     -1.116143     9A     -1.054749
      10A     -0.945913    11A     -0.804130    12A     -0.772867
      13A     -0.715295    14A     -0.651327    15A     -0.609821
      16A     -0.582474    17A     -0.568620    18A     -0.548051
      19A     -0.542275    20A     -0.456183    21A     -0.349657
      22A     -0.340894

  @DF-RHF Final Energy:  -263.91791969409212

   => Energetics <=

    Nuclear Repulsion Energy =            226.1484109609308177
    One-Electron Energy =                -804.7802977865253524
    Two-Electron Energy =                 314.7139671315023861
    Total Energy =                       -263.9179196940921202
  Basis Set: (AUG-CC-PVTZ AUX)
    Blend: AUG-CC-PVTZ-RI
    Molecular point group: c1

    Geometry (in Angstrom), charge = 0, multiplicity = 1:

       Center              X                  Y                   Z               Mass
    ------------   -----------------  -----------------  -----------------  -----------------
         N            0.630194605601     0.044748958760     0.000238816770    14.003074004430
         N           -0.057614394399    -1.114679041240     0.000231816770    14.003074004430
         C           -0.176135394399     1.142179958760     0.000271816770    12.000000000000
         C            2.080105605601     0.000437958760     0.000242816770    12.000000000000
         C           -1.479340394399     0.669212958760     0.000263816770    12.000000000000
         C           -1.351041394399    -0.727956041240     0.000242816770    12.000000000000
         H            0.232377605601     2.143691958760     0.000295816770     1.007825032230
         H            2.430694605601    -0.522872041240     0.891205816770     1.007825032230
         H            2.466628905601    -0.458985441240    -0.910860283230     1.007825032230
         H            2.457458605601     1.023771958760     0.000160816770     1.007825032230
         H           -2.385710394399     1.257928958760     0.000267816770     1.007825032230
         H           -2.126455394399    -1.483064041240     0.000230816770     1.007825032230

  Basis Set: AUG-CC-PVTZ
    Blend: AUG-CC-PVTZ
  Basis Set: (AUG-CC-PVTZ AUX)
    Blend: AUG-CC-PVTZ-JKFIT
	 Reference Energy          =    -263.9179196940921202 [Eh]
	 Singles Energy            =      -0.0000000000000000 [Eh]
	 Same-Spin Energy          =      -0.2883119401467505 [Eh]
	 Opposite-Spin Energy      =      -0.9014417131498290 [Eh]
	 Correlation Energy        =      -1.1897536532965796 [Eh]
	 Total Energy              =    -265.1076733473886975 [Eh]

	 ================> DF-SCS-MP2 Energies <==================
	-----------------------------------------------------------
	 SCS Same-Spin Scale       =       0.3333333333333333 [-]
	 SCS Opposite-Spin Scale   =       1.2000000000000000 [-]
	 SCS Same-Spin Energy      =      -0.0961039800489168 [Eh]
	 SCS Opposite-Spin Energy  =      -1.0817300557797949 [Eh]
	 SCS Correlation Energy    =      -1.1778340358287116 [Eh]
	 SCS Total Energy          =    -265.0957537299208298 [Eh]
	-----------------------------------------------------------

  Dipole Moment: [D]
     X:     1.3393      Y:     2.0795      Z:    -0.0141     Total:     2.4735

*** Psi4 exiting successfully. Buy a developer a beer!
