                               Psi4 1.4a3.dev225

  ==> Input File <==

--------------------------------------------------------------------------
#psi4
#
memory 32 gb

molecule  {
0 1
  N        0.5963620     0.0240630    -0.0000100
  N       -0.0914470    -1.1353650    -0.0000170
  C       -0.2099680     1.1214940     0.0000230
  C        2.0462730    -0.0202480    -0.0000060
  C       -1.5319732     0.6417039     0.0000149
  C       -1.3848740    -0.7486420    -0.0000060
  H        0.1985450     2.1230060     0.0000470
  H        2.3968620    -0.5435580     0.8909570
  H        2.3968520    -0.5436990    -0.8908890
  H        2.4236260     1.0030860    -0.0000880
  H       -2.4195430     1.2372430     0.0000190
  H       -2.1602880    -1.5037500    -0.0000180
units angstrom
no_reorient  #important for SAPT in psi4, default
symmetry c1  #important for SAPT in psi4, default
}

set PROPERTIES_ORIGIN ["COM"]
properties('MP2/aug-cc-pvtz', properties = ['dipole'])
--------------------------------------------------------------------------

    Molecular point group: c1
  Charge       = 0
  Multiplicity = 1
  Basis Set: AUG-CC-PVTZ
    Blend: AUG-CC-PVTZ
  Basis Set: (AUG-CC-PVTZ AUX)
    Blend: AUG-CC-PVTZ-JKFIT

    Orbital Energies [Eh]
    ---------------------

    Doubly Occupied:

       1A    -15.643777     2A    -15.581189     3A    -11.277682
       4A    -11.275075     5A    -11.250808     6A    -11.220329
       7A     -1.372452     8A     -1.116766     9A     -1.051835
      10A     -0.947081    11A     -0.805073    12A     -0.771685
      13A     -0.714523    14A     -0.650209    15A     -0.614934
      16A     -0.582504    17A     -0.570406    18A     -0.545008
      19A     -0.542455    20A     -0.456464    21A     -0.350464
      22A     -0.337943

  @DF-RHF Final Energy:  -263.91741081953762

   => Energetics <=

    Nuclear Repulsion Energy =            225.9508687506938429
    One-Electron Energy =                -804.3792349766819143
    Two-Electron Energy =                 314.5109554064504209
    Total Energy =                       -263.9174108195376220
  Basis Set: (AUG-CC-PVTZ AUX)
    Blend: AUG-CC-PVTZ-RI
    Molecular point group: c1

    Geometry (in Angstrom), charge = 0, multiplicity = 1:

       Center              X                  Y                   Z               Mass
    ------------   -----------------  -----------------  -----------------  -----------------
         N            0.633385563298     0.046533240173    -0.000009523919    14.003074004430
         N           -0.054423436702    -1.112894759827    -0.000016523919    14.003074004430
         C           -0.172944436702     1.143964240173     0.000023476081    12.000000000000
         C            2.083296563298     0.002222240173    -0.000005523919    12.000000000000
         C           -1.494949636702     0.664174140173     0.000015376081    12.000000000000
         C           -1.347850436702    -0.726171759827    -0.000005523919    12.000000000000
         H            0.235568563298     2.145476240173     0.000047476081     1.007825032230
         H            2.433885563298    -0.521087759827     0.890957476081     1.007825032230
         H            2.433875563298    -0.521228759827    -0.890888523919     1.007825032230
         H            2.460649563298     1.025556240173    -0.000087523919     1.007825032230
         H           -2.382519436702     1.259713240173     0.000019476081     1.007825032230
         H           -2.123264436702    -1.481279759827    -0.000017523919     1.007825032230

  Basis Set: AUG-CC-PVTZ
    Blend: AUG-CC-PVTZ
  Basis Set: (AUG-CC-PVTZ AUX)
    Blend: AUG-CC-PVTZ-JKFIT
	 Reference Energy          =    -263.9174108195376220 [Eh]
	 Singles Energy            =      -0.0000000000000000 [Eh]
	 Same-Spin Energy          =      -0.2884722553383577 [Eh]
	 Opposite-Spin Energy      =      -0.9017501415268298 [Eh]
	 Correlation Energy        =      -1.1902223968651875 [Eh]
	 Total Energy              =    -265.1076332164028031 [Eh]

	 ================> DF-SCS-MP2 Energies <==================
	-----------------------------------------------------------
	 SCS Same-Spin Scale       =       0.3333333333333333 [-]
	 SCS Opposite-Spin Scale   =       1.2000000000000000 [-]
	 SCS Same-Spin Energy      =      -0.0961574184461192 [Eh]
	 SCS Opposite-Spin Energy  =      -1.0821001698321957 [Eh]
	 SCS Correlation Energy    =      -1.1782575882783148 [Eh]
	 SCS Total Energy          =    -265.0956684078159356 [Eh]
	-----------------------------------------------------------

  Dipole Moment: [D]
     X:     1.3604      Y:     2.0572      Z:     0.0000     Total:     2.4663

*** Psi4 exiting successfully. Buy a developer a beer!
