                               Psi4 1.4a3.dev225

  ==> Input File <==

--------------------------------------------------------------------------
#psi4
#
memory 32 gb

molecule  {
0 1
  N        0.5963620     0.0240630    -0.0000100
  N       -0.1706491    -1.0845616    -0.0000147
  C       -0.2099680     1.1214940     0.0000230
  C        2.0462730    -0.0202480    -0.0000060
  C       -1.5131730     0.6485270     0.0000150
  C       -1.3848740    -0.7486420    -0.0000060
  H        0.1985450     2.1230060     0.0000470
  H        2.3968620    -0.5435580     0.8909570
  H        2.3968520    -0.5436990    -0.8908890
  H        2.4236260     1.0030860    -0.0000880
  H       -2.4195430     1.2372430     0.0000190
  H       -2.1602880    -1.5037500    -0.0000180
units angstrom
no_reorient  #important for SAPT in psi4, default
symmetry c1  #important for SAPT in psi4, default
}

set PROPERTIES_ORIGIN ["COM"]
properties('MP2/aug-cc-pvtz', properties = ['dipole'])
--------------------------------------------------------------------------

    Molecular point group: c1
  Charge       = 0
  Multiplicity = 1
  Basis Set: AUG-CC-PVTZ
    Blend: AUG-CC-PVTZ
  Basis Set: (AUG-CC-PVTZ AUX)
    Blend: AUG-CC-PVTZ-JKFIT

    Orbital Energies [Eh]
    ---------------------

    Doubly Occupied:

       1A    -15.635328     2A    -15.569838     3A    -11.276522
       4A    -11.272439     5A    -11.239395     6A    -11.213369
       7A     -1.381918     8A     -1.138485     9A     -1.046770
      10A     -0.948889    11A     -0.811937    12A     -0.767927
      13A     -0.715019    14A     -0.652152    15A     -0.615173
      16A     -0.589177    17A     -0.570366    18A     -0.552267
      19A     -0.550036    20A     -0.439068    21A     -0.363198
      22A     -0.335145

  @DF-RHF Final Energy:  -263.91737958349296

   => Energetics <=

    Nuclear Repulsion Energy =            227.8709336186032317
    One-Electron Energy =                -808.2077871214884226
    Two-Electron Energy =                 316.4194739193922601
    Total Energy =                       -263.9173795834929592
  Basis Set: (AUG-CC-PVTZ AUX)
    Blend: AUG-CC-PVTZ-RI
    Molecular point group: c1

    Geometry (in Angstrom), charge = 0, multiplicity = 1:

       Center              X                  Y                   Z               Mass
    ------------   -----------------  -----------------  -----------------  -----------------
         N            0.644152621300     0.036865342345    -0.000009931059    14.003074004430
         N           -0.122858478700    -1.071759257655    -0.000014631059    14.003074004430
         C           -0.162177378700     1.134296342345     0.000023068941    12.000000000000
         C            2.094063621300    -0.007445657655    -0.000005931059    12.000000000000
         C           -1.465382378700     0.661329342345     0.000015068941    12.000000000000
         C           -1.337083378700    -0.735839657655    -0.000005931059    12.000000000000
         H            0.246335621300     2.135808342345     0.000047068941     1.007825032230
         H            2.444652621300    -0.530755657655     0.890957068941     1.007825032230
         H            2.444642621300    -0.530896657655    -0.890888931059     1.007825032230
         H            2.471416621300     1.015888342345    -0.000087931059     1.007825032230
         H           -2.371752378700     1.250045342345     0.000019068941     1.007825032230
         H           -2.112497378700    -1.490947657655    -0.000017931059     1.007825032230

  Basis Set: AUG-CC-PVTZ
    Blend: AUG-CC-PVTZ
  Basis Set: (AUG-CC-PVTZ AUX)
    Blend: AUG-CC-PVTZ-JKFIT
	 Reference Energy          =    -263.9173795834929592 [Eh]
	 Singles Energy            =      -0.0000000000000000 [Eh]
	 Same-Spin Energy          =      -0.2860325005303612 [Eh]
	 Opposite-Spin Energy      =      -0.8966801556958612 [Eh]
	 Correlation Energy        =      -1.1827126562262225 [Eh]
	 Total Energy              =    -265.1000922397191744 [Eh]

	 ================> DF-SCS-MP2 Energies <==================
	-----------------------------------------------------------
	 SCS Same-Spin Scale       =       0.3333333333333333 [-]
	 SCS Opposite-Spin Scale   =       1.2000000000000000 [-]
	 SCS Same-Spin Energy      =      -0.0953441668434537 [Eh]
	 SCS Opposite-Spin Energy  =      -1.0760161868350335 [Eh]
	 SCS Correlation Energy    =      -1.1713603536784873 [Eh]
	 SCS Total Energy          =    -265.0887399371714537 [Eh]
	-----------------------------------------------------------

  Dipole Moment: [D]
     X:     1.4543      Y:     1.8730      Z:     0.0000     Total:     2.3713

*** Psi4 exiting successfully. Buy a developer a beer!
