                               Psi4 1.4a3.dev225

  ==> Input File <==

--------------------------------------------------------------------------
#psi4
#
memory 32 gb

molecule  {
0 1
  N        0.5963620     0.0240630    -0.0000100
  N       -0.0914470    -1.1353650    -0.0000170
  C       -0.2099680     1.1214940     0.0000230
  C        2.0462730    -0.0202480    -0.0000060
  C       -1.5131730     0.6485270     0.0000150
  C       -1.3848740    -0.7486420    -0.0000060
  H        0.1985450     2.1230060     0.0000470
  H        2.3968620    -0.5435580     0.8909570
  H        2.3968520    -0.5436990    -0.8908890
  H        2.4236260     1.0030860    -0.0000880
  H       -2.4195430     1.2372430     0.0000190
  H       -2.2319305    -1.5735164    -0.0000191
units angstrom
no_reorient  #important for SAPT in psi4, default
symmetry c1  #important for SAPT in psi4, default
}

set PROPERTIES_ORIGIN ["COM"]
properties('MP2/aug-cc-pvtz', properties = ['dipole'])
--------------------------------------------------------------------------

    Molecular point group: c1
  Charge       = 0
  Multiplicity = 1
  Basis Set: AUG-CC-PVTZ
    Blend: AUG-CC-PVTZ
  Basis Set: (AUG-CC-PVTZ AUX)
    Blend: AUG-CC-PVTZ-JKFIT

    Orbital Energies [Eh]
    ---------------------

    Doubly Occupied:

       1A    -15.642374     2A    -15.582937     3A    -11.275901
       4A    -11.274827     5A    -11.261883     6A    -11.220657
       7A     -1.373448     8A     -1.115658     9A     -1.055550
      10A     -0.943619    11A     -0.800644    12A     -0.768120
      13A     -0.710158    14A     -0.650596    15A     -0.609039
      16A     -0.579567    17A     -0.567899    18A     -0.545759
      19A     -0.536030    20A     -0.455962    21A     -0.349639
      22A     -0.341428

  @DF-RHF Final Energy:  -263.91088514430862

   => Energetics <=

    Nuclear Repulsion Energy =            225.7459693228703941
    One-Electron Energy =                -803.9903253763949351
    Two-Electron Energy =                 314.3334709092159756
    Total Energy =                       -263.9108851443086223
  Basis Set: (AUG-CC-PVTZ AUX)
    Blend: AUG-CC-PVTZ-RI
    Molecular point group: c1

    Geometry (in Angstrom), charge = 0, multiplicity = 1:

       Center              X                  Y                   Z               Mass
    ------------   -----------------  -----------------  -----------------  -----------------
         N            0.631516050769     0.046392296371    -0.000009525033    14.003074004430
         N           -0.056292949231    -1.113035703629    -0.000016525033    14.003074004430
         C           -0.174813949231     1.143823296371     0.000023474967    12.000000000000
         C            2.081427050769     0.002081296371    -0.000005525033    12.000000000000
         C           -1.478018949231     0.670856296371     0.000015474967    12.000000000000
         C           -1.349719949231    -0.726312703629    -0.000005525033    12.000000000000
         H            0.233699050769     2.145335296371     0.000047474967     1.007825032230
         H            2.432016050769    -0.521228703629     0.890957474967     1.007825032230
         H            2.432006050769    -0.521369703629    -0.890888525033     1.007825032230
         H            2.458780050769     1.025415296371    -0.000087525033     1.007825032230
         H           -2.384388949231     1.259572296371     0.000019474967     1.007825032230
         H           -2.196776449231    -1.551187103629    -0.000018625033     1.007825032230

  Basis Set: AUG-CC-PVTZ
    Blend: AUG-CC-PVTZ
  Basis Set: (AUG-CC-PVTZ AUX)
    Blend: AUG-CC-PVTZ-JKFIT
	 Reference Energy          =    -263.9108851443086223 [Eh]
	 Singles Energy            =      -0.0000000000000000 [Eh]
	 Same-Spin Energy          =      -0.2885108425580526 [Eh]
	 Opposite-Spin Energy      =      -0.9022379056296658 [Eh]
	 Correlation Energy        =      -1.1907487481877184 [Eh]
	 Total Energy              =    -265.1016338924963520 [Eh]

	 ================> DF-SCS-MP2 Energies <==================
	-----------------------------------------------------------
	 SCS Same-Spin Scale       =       0.3333333333333333 [-]
	 SCS Opposite-Spin Scale   =       1.2000000000000000 [-]
	 SCS Same-Spin Energy      =      -0.0961702808526842 [Eh]
	 SCS Opposite-Spin Energy  =      -1.0826854867555988 [Eh]
	 SCS Correlation Energy    =      -1.1788557676082831 [Eh]
	 SCS Total Energy          =    -265.0897409119169197 [Eh]
	-----------------------------------------------------------

  Dipole Moment: [D]
     X:     1.3609      Y:     2.0695      Z:     0.0000     Total:     2.4769

*** Psi4 exiting successfully. Buy a developer a beer!
