                               Psi4 1.4a3.dev225

  ==> Input File <==

--------------------------------------------------------------------------
#psi4
#
memory 32 gb

molecule  {
0 1
  N        0.5963620     0.0240630    -0.0000100
  N       -0.0914470    -1.1353650    -0.0000170
  C       -0.2099680     1.1214940     0.0000230
  C        2.0462730    -0.0202480    -0.0000060
  C       -1.5131730     0.6485270     0.0000150
  C       -1.3848740    -0.7486420    -0.0000060
  H        0.1230080     1.9378192     0.0000426
  H        2.3968620    -0.5435580     0.8909570
  H        2.3968520    -0.5436990    -0.8908890
  H        2.4236260     1.0030860    -0.0000880
  H       -2.4195430     1.2372430     0.0000190
  H       -2.1602880    -1.5037500    -0.0000180
units angstrom
no_reorient  #important for SAPT in psi4, default
symmetry c1  #important for SAPT in psi4, default
}

set PROPERTIES_ORIGIN ["COM"]
properties('MP2/aug-cc-pvtz', properties = ['dipole'])
--------------------------------------------------------------------------

    Molecular point group: c1
  Charge       = 0
  Multiplicity = 1
  Basis Set: AUG-CC-PVTZ
    Blend: AUG-CC-PVTZ
  Basis Set: (AUG-CC-PVTZ AUX)
    Blend: AUG-CC-PVTZ-JKFIT

    Orbital Energies [Eh]
    ---------------------

    Doubly Occupied:

       1A    -15.641141     2A    -15.581866     3A    -11.274850
       4A    -11.252537     5A    -11.250042     6A    -11.218899
       7A     -1.372315     8A     -1.117413     9A     -1.063112
      10A     -0.946209    11A     -0.826029    12A     -0.788672
      13A     -0.729278    14A     -0.649946    15A     -0.617887
      16A     -0.583375    17A     -0.578240    18A     -0.546826
      19A     -0.545038    20A     -0.456281    21A     -0.348571
      22A     -0.340568

  @DF-RHF Final Energy:  -263.88211347792935

   => Energetics <=

    Nuclear Repulsion Energy =            227.3251298944600762
    One-Electron Energy =                -806.9563001906151385
    Two-Electron Energy =                 315.7490568182256538
    Total Energy =                       -263.8821134779293516
  Basis Set: (AUG-CC-PVTZ AUX)
    Blend: AUG-CC-PVTZ-RI
    Molecular point group: c1

    Geometry (in Angstrom), charge = 0, multiplicity = 1:

       Center              X                  Y                   Z               Mass
    ------------   -----------------  -----------------  -----------------  -----------------
         N            0.631563885338     0.047809958481    -0.000009484501    14.003074004430
         N           -0.056245114662    -1.111618041519    -0.000016484501    14.003074004430
         C           -0.174766114662     1.145240958481     0.000023515499    12.000000000000
         C            2.081474885338     0.003498958481    -0.000005484501    12.000000000000
         C           -1.477971114662     0.672273958481     0.000015515499    12.000000000000
         C           -1.349672114662    -0.724895041519    -0.000005484501    12.000000000000
         H            0.158209885338     1.961566158481     0.000043115499     1.007825032230
         H            2.432063885338    -0.519811041519     0.890957515499     1.007825032230
         H            2.432053885338    -0.519952041519    -0.890888484501     1.007825032230
         H            2.458827885338     1.026832958481    -0.000087484501     1.007825032230
         H           -2.384341114662     1.260989958481     0.000019515499     1.007825032230
         H           -2.125086114662    -1.480003041519    -0.000017484501     1.007825032230

  Basis Set: AUG-CC-PVTZ
    Blend: AUG-CC-PVTZ
  Basis Set: (AUG-CC-PVTZ AUX)
    Blend: AUG-CC-PVTZ-JKFIT
	 Reference Energy          =    -263.8821134779293516 [Eh]
	 Singles Energy            =      -0.0000000000000000 [Eh]
	 Same-Spin Energy          =      -0.2881286828428670 [Eh]
	 Opposite-Spin Energy      =      -0.9009503501661809 [Eh]
	 Correlation Energy        =      -1.1890790330090479 [Eh]
	 Total Energy              =    -265.0711925109383742 [Eh]

	 ================> DF-SCS-MP2 Energies <==================
	-----------------------------------------------------------
	 SCS Same-Spin Scale       =       0.3333333333333333 [-]
	 SCS Opposite-Spin Scale   =       1.2000000000000000 [-]
	 SCS Same-Spin Energy      =      -0.0960428942809557 [Eh]
	 SCS Opposite-Spin Energy  =      -1.0811404201994170 [Eh]
	 SCS Correlation Energy    =      -1.1771833144803727 [Eh]
	 SCS Total Energy          =    -265.0592967924097252 [Eh]
	-----------------------------------------------------------

  Dipole Moment: [D]
     X:     1.3453      Y:     2.0418      Z:     0.0000     Total:     2.4452

*** Psi4 exiting successfully. Buy a developer a beer!
