                               Psi4 1.4a3.dev225

  ==> Input File <==

--------------------------------------------------------------------------
#psi4
#
memory 32 gb

molecule  {
0 1
  N        0.5963620     0.0240630    -0.0000100
  N       -0.0914470    -1.1353650    -0.0000170
  C       -0.2099680     1.1214940     0.0000230
  C        2.0462730    -0.0202480    -0.0000060
  C       -1.5131730     0.6485270     0.0000150
  C       -1.3848740    -0.7486420    -0.0000060
  H        0.1985450     2.1230060     0.0000470
  H        2.3968620    -0.5435580     0.8909570
  H        2.3968520    -0.5436990    -0.8908890
  H        2.4236260     1.0030860    -0.0000880
  H       -2.4195430     1.2372430     0.0000190
  H       -2.0886455    -1.4339836    -0.0000169
units angstrom
no_reorient  #important for SAPT in psi4, default
symmetry c1  #important for SAPT in psi4, default
}

set PROPERTIES_ORIGIN ["COM"]
properties('MP2/aug-cc-pvtz', properties = ['dipole'])
--------------------------------------------------------------------------

    Molecular point group: c1
  Charge       = 0
  Multiplicity = 1
  Basis Set: AUG-CC-PVTZ
    Blend: AUG-CC-PVTZ
  Basis Set: (AUG-CC-PVTZ AUX)
    Blend: AUG-CC-PVTZ-JKFIT

    Orbital Energies [Eh]
    ---------------------

    Doubly Occupied:

       1A    -15.641374     2A    -15.581733     3A    -11.274602
       4A    -11.274157     5A    -11.239298     6A    -11.218847
       7A     -1.372204     8A     -1.117562     9A     -1.054163
      10A     -0.948957    11A     -0.811553    12A     -0.777209
      13A     -0.718733    14A     -0.649702    15A     -0.617912
      16A     -0.584365    17A     -0.571272    18A     -0.550761
      19A     -0.544826    20A     -0.456341    21A     -0.348853
      22A     -0.340243

  @DF-RHF Final Energy:  -263.91216111151675

   => Energetics <=

    Nuclear Repulsion Energy =            226.7271266613507805
    One-Electron Energy =                -805.8892376953410803
    Two-Electron Energy =                 315.2499499224735473
    Total Energy =                       -263.9121611115167525
  Basis Set: (AUG-CC-PVTZ AUX)
    Blend: AUG-CC-PVTZ-RI
    Molecular point group: c1

    Geometry (in Angstrom), charge = 0, multiplicity = 1:

       Center              X                  Y                   Z               Mass
    ------------   -----------------  -----------------  -----------------  -----------------
         N            0.629756139042     0.044678471399    -0.000009552055    14.003074004430
         N           -0.058052860958    -1.114749528601    -0.000016552055    14.003074004430
         C           -0.176573860958     1.142109471399     0.000023447945    12.000000000000
         C            2.079667139042     0.000367471399    -0.000005552055    12.000000000000
         C           -1.479778860958     0.669142471399     0.000015447945    12.000000000000
         C           -1.351479860958    -0.728026528601    -0.000005552055    12.000000000000
         H            0.231939139042     2.143621471399     0.000047447945     1.007825032230
         H            2.430256139042    -0.522942528601     0.890957447945     1.007825032230
         H            2.430246139042    -0.523083528601    -0.890888552055     1.007825032230
         H            2.457020139042     1.023701471399    -0.000087552055     1.007825032230
         H           -2.386148860958     1.257858471399     0.000019447945     1.007825032230
         H           -2.055251360958    -1.413368128601    -0.000016452055     1.007825032230

  Basis Set: AUG-CC-PVTZ
    Blend: AUG-CC-PVTZ
  Basis Set: (AUG-CC-PVTZ AUX)
    Blend: AUG-CC-PVTZ-JKFIT
	 Reference Energy          =    -263.9121611115167525 [Eh]
	 Singles Energy            =      -0.0000000000000000 [Eh]
	 Same-Spin Energy          =      -0.2882220601092633 [Eh]
	 Opposite-Spin Energy      =      -0.9010744943831357 [Eh]
	 Correlation Energy        =      -1.1892965544923990 [Eh]
	 Total Energy              =    -265.1014576660091393 [Eh]

	 ================> DF-SCS-MP2 Energies <==================
	-----------------------------------------------------------
	 SCS Same-Spin Scale       =       0.3333333333333333 [-]
	 SCS Opposite-Spin Scale   =       1.2000000000000000 [-]
	 SCS Same-Spin Energy      =      -0.0960740200364211 [Eh]
	 SCS Opposite-Spin Energy  =      -1.0812893932597627 [Eh]
	 SCS Correlation Energy    =      -1.1773634132961839 [Eh]
	 SCS Total Energy          =    -265.0895245248129299 [Eh]
	-----------------------------------------------------------

  Dipole Moment: [D]
     X:     1.3309      Y:     2.0548      Z:     0.0000     Total:     2.4481

*** Psi4 exiting successfully. Buy a developer a beer!
