                               Psi4 1.4a3.dev225

  ==> Input File <==

--------------------------------------------------------------------------
#psi4
#
memory 32 gb

molecule  {
0 1
  N        0.5963620     0.0240630    -0.0000100
  N        0.0335141    -1.2009091    -0.0000204
  C       -0.2099680     1.1214940     0.0000230
  C        2.0462730    -0.0202480    -0.0000060
  C       -1.5131730     0.6485270     0.0000150
  C       -1.3848740    -0.7486420    -0.0000060
  H        0.1985450     2.1230060     0.0000470
  H        2.3968620    -0.5435580     0.8909570
  H        2.3968520    -0.5436990    -0.8908890
  H        2.4236260     1.0030860    -0.0000880
  H       -2.4195430     1.2372430     0.0000190
  H       -2.1602880    -1.5037500    -0.0000180
units angstrom
no_reorient  #important for SAPT in psi4, default
symmetry c1  #important for SAPT in psi4, default
}

set PROPERTIES_ORIGIN ["COM"]
properties('MP2/aug-cc-pvtz', properties = ['dipole'])
--------------------------------------------------------------------------

    Molecular point group: c1
  Charge       = 0
  Multiplicity = 1
  Basis Set: AUG-CC-PVTZ
    Blend: AUG-CC-PVTZ
  Basis Set: (AUG-CC-PVTZ AUX)
    Blend: AUG-CC-PVTZ-JKFIT

    Orbital Energies [Eh]
    ---------------------

    Doubly Occupied:

       1A    -15.652100     2A    -15.596935     3A    -11.278861
       4A    -11.271585     5A    -11.265421     6A    -11.228976
       7A     -1.364663     8A     -1.090458     9A     -1.065078
      10A     -0.942326    11A     -0.797101    12A     -0.773225
      13A     -0.714147    14A     -0.648665    15A     -0.612078
      16A     -0.577052    17A     -0.565306    18A     -0.537617
      19A     -0.536605    20A     -0.466919    21A     -0.353623
      22A     -0.327069

  @DF-RHF Final Energy:  -263.88810539175284

   => Energetics <=

    Nuclear Repulsion Energy =            224.1039529235040959
    One-Electron Energy =                -800.6525028215594375
    Two-Electron Energy =                 312.6604445063025537
    Total Energy =                       -263.8881053917528448
  Basis Set: (AUG-CC-PVTZ AUX)
    Blend: AUG-CC-PVTZ-RI
    Molecular point group: c1

    Geometry (in Angstrom), charge = 0, multiplicity = 1:

       Center              X                  Y                   Z               Mass
    ------------   -----------------  -----------------  -----------------  -----------------
         N            0.609310397652     0.056721053932    -0.000008958304    14.003074004430
         N            0.046462497652    -1.168251046068    -0.000019358304    14.003074004430
         C           -0.197019602348     1.154152053932     0.000024041696    12.000000000000
         C            2.059221397652     0.012410053932    -0.000004958304    12.000000000000
         C           -1.500224602348     0.681185053932     0.000016041696    12.000000000000
         C           -1.371925602348    -0.715983946068    -0.000004958304    12.000000000000
         H            0.211493397652     2.155664053932     0.000048041696     1.007825032230
         H            2.409810397652    -0.510899946068     0.890958041696     1.007825032230
         H            2.409800397652    -0.511040946068    -0.890887958304     1.007825032230
         H            2.436574397652     1.035744053932    -0.000086958304     1.007825032230
         H           -2.406594602348     1.269901053932     0.000020041696     1.007825032230
         H           -2.147339602348    -1.471091946068    -0.000016958304     1.007825032230

  Basis Set: AUG-CC-PVTZ
    Blend: AUG-CC-PVTZ
  Basis Set: (AUG-CC-PVTZ AUX)
    Blend: AUG-CC-PVTZ-JKFIT
	 Reference Energy          =    -263.8881053917528448 [Eh]
	 Singles Energy            =      -0.0000000000000000 [Eh]
	 Same-Spin Energy          =      -0.2923630909937469 [Eh]
	 Opposite-Spin Energy      =      -0.9104782328666937 [Eh]
	 Correlation Energy        =      -1.2028413238604405 [Eh]
	 Total Energy              =    -265.0909467156133132 [Eh]

	 ================> DF-SCS-MP2 Energies <==================
	-----------------------------------------------------------
	 SCS Same-Spin Scale       =       0.3333333333333333 [-]
	 SCS Opposite-Spin Scale   =       1.2000000000000000 [-]
	 SCS Same-Spin Energy      =      -0.0974543636645823 [Eh]
	 SCS Opposite-Spin Energy  =      -1.0925738794400324 [Eh]
	 SCS Correlation Energy    =      -1.1900282431046147 [Eh]
	 SCS Total Energy          =    -265.0781336348574655 [Eh]
	-----------------------------------------------------------

  Dipole Moment: [D]
     X:     1.1730      Y:     2.2498      Z:     0.0000     Total:     2.5372

*** Psi4 exiting successfully. Buy a developer a beer!
