                               Psi4 1.4a3.dev225

  ==> Input File <==

--------------------------------------------------------------------------
#psi4
#
memory 32 gb

molecule  {
0 1
  N        0.5760224     0.0358903    -0.0000098
  N       -0.0914470    -1.1353650    -0.0000170
  C       -0.2099680     1.1214940     0.0000230
  C        2.0462730    -0.0202480    -0.0000060
  C       -1.5131730     0.6485270     0.0000150
  C       -1.3848740    -0.7486420    -0.0000060
  H        0.1985450     2.1230060     0.0000470
  H        2.3968620    -0.5435580     0.8909570
  H        2.3968520    -0.5436990    -0.8908890
  H        2.4236260     1.0030860    -0.0000880
  H       -2.4195430     1.2372430     0.0000190
  H       -2.1602880    -1.5037500    -0.0000180
units angstrom
no_reorient  #important for SAPT in psi4, default
symmetry c1  #important for SAPT in psi4, default
}

set PROPERTIES_ORIGIN ["COM"]
properties('MP2/aug-cc-pvtz', properties = ['dipole'])
--------------------------------------------------------------------------

    Molecular point group: c1
  Charge       = 0
  Multiplicity = 1
  Basis Set: AUG-CC-PVTZ
    Blend: AUG-CC-PVTZ
  Basis Set: (AUG-CC-PVTZ AUX)
    Blend: AUG-CC-PVTZ-JKFIT

    Orbital Energies [Eh]
    ---------------------

    Doubly Occupied:

       1A    -15.642115     2A    -15.580754     3A    -11.276395
       4A    -11.273387     5A    -11.250241     6A    -11.217415
       7A     -1.375641     8A     -1.113595     9A     -1.057111
      10A     -0.945667    11A     -0.804828    12A     -0.771479
      13A     -0.715441    14A     -0.649503    15A     -0.610964
      16A     -0.575958    17A     -0.570289    18A     -0.547989
      19A     -0.545577    20A     -0.458167    21A     -0.351184
      22A     -0.339409

  @DF-RHF Final Energy:  -263.91817809675683

   => Energetics <=

    Nuclear Repulsion Energy =            226.4091486296622691
    One-Electron Energy =                -805.3084369908254985
    Two-Electron Energy =                 314.9811102644064249
    Total Energy =                       -263.9181780967568329
  Basis Set: (AUG-CC-PVTZ AUX)
    Blend: AUG-CC-PVTZ-RI
    Molecular point group: c1

    Geometry (in Angstrom), charge = 0, multiplicity = 1:

       Center              X                  Y                   Z               Mass
    ------------   -----------------  -----------------  -----------------  -----------------
         N            0.613767624336     0.055344252396    -0.000009372676    14.003074004430
         N           -0.053701775664    -1.115911047604    -0.000016572676    14.003074004430
         C           -0.172222775664     1.140947952396     0.000023427324    12.000000000000
         C            2.084018224336    -0.000794047604    -0.000005572676    12.000000000000
         C           -1.475427775664     0.667980952396     0.000015427324    12.000000000000
         C           -1.347128775664    -0.729188047604    -0.000005572676    12.000000000000
         H            0.236290224336     2.142459952396     0.000047427324     1.007825032230
         H            2.434607224336    -0.524104047604     0.890957427324     1.007825032230
         H            2.434597224336    -0.524245047604    -0.890888572676     1.007825032230
         H            2.461371224336     1.022539952396    -0.000087572676     1.007825032230
         H           -2.381797775664     1.256696952396     0.000019427324     1.007825032230
         H           -2.122542775664    -1.484296047604    -0.000017572676     1.007825032230

  Basis Set: AUG-CC-PVTZ
    Blend: AUG-CC-PVTZ
  Basis Set: (AUG-CC-PVTZ AUX)
    Blend: AUG-CC-PVTZ-JKFIT
	 Reference Energy          =    -263.9181780967568329 [Eh]
	 Singles Energy            =      -0.0000000000000000 [Eh]
	 Same-Spin Energy          =      -0.2881630695632074 [Eh]
	 Opposite-Spin Energy      =      -0.9010847074953536 [Eh]
	 Correlation Energy        =      -1.1892477770585610 [Eh]
	 Total Energy              =    -265.1074258738153731 [Eh]

	 ================> DF-SCS-MP2 Energies <==================
	-----------------------------------------------------------
	 SCS Same-Spin Scale       =       0.3333333333333333 [-]
	 SCS Opposite-Spin Scale   =       1.2000000000000000 [-]
	 SCS Same-Spin Energy      =      -0.0960543565210691 [Eh]
	 SCS Opposite-Spin Energy  =      -1.0813016489944243 [Eh]
	 SCS Correlation Energy    =      -1.1773560055154935 [Eh]
	 SCS Total Energy          =    -265.0955341022723246 [Eh]
	-----------------------------------------------------------

  Dipole Moment: [D]
     X:     1.3998      Y:     2.0561      Z:     0.0000     Total:     2.4874

*** Psi4 exiting successfully. Buy a developer a beer!
