                               Psi4 1.4a3.dev225

  ==> Input File <==

--------------------------------------------------------------------------
#psi4
#
memory 32 gb

molecule  {
0 1
  N        0.5963620     0.0240630    -0.0000100
  N       -0.0914470    -1.1353650    -0.0000170
  C       -0.2099680     1.1214940     0.0000230
  C        2.0462730    -0.0202480    -0.0000060
  C       -1.5131730     0.6485270     0.0000150
  C       -1.3848740    -0.7486420    -0.0000060
  H        0.1985450     2.1230060     0.0000470
  H        2.3968620    -0.5435580     0.8909570
  H        2.3782281    -0.5747755    -0.8791443
  H        2.4236260     1.0030860    -0.0000880
  H       -2.4195430     1.2372430     0.0000190
  H       -2.1602880    -1.5037500    -0.0000180
units angstrom
no_reorient  #important for SAPT in psi4, default
symmetry c1  #important for SAPT in psi4, default
}

set PROPERTIES_ORIGIN ["COM"]
properties('MP2/aug-cc-pvtz', properties = ['dipole'])
--------------------------------------------------------------------------

    Molecular point group: c1
  Charge       = 0
  Multiplicity = 1
  Basis Set: AUG-CC-PVTZ
    Blend: AUG-CC-PVTZ
  Basis Set: (AUG-CC-PVTZ AUX)
    Blend: AUG-CC-PVTZ-JKFIT

    Orbital Energies [Eh]
    ---------------------

    Doubly Occupied:

       1A    -15.641567     2A    -15.582117     3A    -11.275076
       4A    -11.274440     5A    -11.250909     6A    -11.219504
       7A     -1.372699     8A     -1.116292     9A     -1.054780
      10A     -0.945458    11A     -0.804128    12A     -0.772185
      13A     -0.713933    14A     -0.649450    15A     -0.613946
      16A     -0.580972    17A     -0.570361    18A     -0.546694
      19A     -0.543650    20A     -0.456189    21A     -0.348808
      22A     -0.340681

  @DF-RHF Final Energy:  -263.91820183025885

   => Energetics <=

    Nuclear Repulsion Energy =            226.2357207518652160
    One-Electron Energy =                -804.9601682155791877
    Two-Electron Energy =                 314.8062456334551484
    Total Energy =                       -263.9182018302588517
  Basis Set: (AUG-CC-PVTZ AUX)
    Blend: AUG-CC-PVTZ-RI
    Molecular point group: c1

    Geometry (in Angstrom), charge = 0, multiplicity = 1:

       Center              X                  Y                   Z               Mass
    ------------   -----------------  -----------------  -----------------  -----------------
         N            0.630864844740     0.045917083971    -0.000153793946    14.003074004430
         N           -0.056944155260    -1.113510916029    -0.000160793946    14.003074004430
         C           -0.175465155260     1.143348083971    -0.000120793946    12.000000000000
         C            2.080775844740     0.001606083971    -0.000149793946    12.000000000000
         C           -1.478670155260     0.670381083971    -0.000128793946    12.000000000000
         C           -1.350371155260    -0.726787916029    -0.000149793946    12.000000000000
         H            0.233047844740     2.144860083971    -0.000096793946     1.007825032230
         H            2.431364844740    -0.521703916029     0.890813206054     1.007825032230
         H            2.412730944740    -0.552921416029    -0.879288093946     1.007825032230
         H            2.458128844740     1.024940083971    -0.000231793946     1.007825032230
         H           -2.385040155260     1.259097083971    -0.000124793946     1.007825032230
         H           -2.125785155260    -1.481895916029    -0.000161793946     1.007825032230

  Basis Set: AUG-CC-PVTZ
    Blend: AUG-CC-PVTZ
  Basis Set: (AUG-CC-PVTZ AUX)
    Blend: AUG-CC-PVTZ-JKFIT
	 Reference Energy          =    -263.9182018302588517 [Eh]
	 Singles Energy            =      -0.0000000000000000 [Eh]
	 Same-Spin Energy          =      -0.2883541715163302 [Eh]
	 Opposite-Spin Energy      =      -0.9014622427981160 [Eh]
	 Correlation Energy        =      -1.1898164143144463 [Eh]
	 Total Energy              =    -265.1080182445733158 [Eh]

	 ================> DF-SCS-MP2 Energies <==================
	-----------------------------------------------------------
	 SCS Same-Spin Scale       =       0.3333333333333333 [-]
	 SCS Opposite-Spin Scale   =       1.2000000000000000 [-]
	 SCS Same-Spin Energy      =      -0.0961180571721101 [Eh]
	 SCS Opposite-Spin Energy  =      -1.0817546913577392 [Eh]
	 SCS Correlation Energy    =      -1.1778727485298492 [Eh]
	 SCS Total Energy          =    -265.0960745787887163 [Eh]
	-----------------------------------------------------------

  Dipole Moment: [D]
     X:     1.3405      Y:     2.0473      Z:     0.0079     Total:     2.4472

*** Psi4 exiting successfully. Buy a developer a beer!
