                               Psi4 1.4a3.dev225

  ==> Input File <==

--------------------------------------------------------------------------
#psi4
#
memory 32 gb

molecule  {
0 1
  N        0.5963620     0.0240630    -0.0000100
  N       -0.0914470    -1.1353650    -0.0000170
  C       -0.2099680     1.1214940     0.0000230
  C        2.0462730    -0.0202480    -0.0000060
  C       -1.4661726     0.6655847     0.0000153
  C       -1.3848740    -0.7486420    -0.0000060
  H        0.1985450     2.1230060     0.0000470
  H        2.3968620    -0.5435580     0.8909570
  H        2.3968520    -0.5436990    -0.8908890
  H        2.4236260     1.0030860    -0.0000880
  H       -2.4195430     1.2372430     0.0000190
  H       -2.1602880    -1.5037500    -0.0000180
units angstrom
no_reorient  #important for SAPT in psi4, default
symmetry c1  #important for SAPT in psi4, default
}

set PROPERTIES_ORIGIN ["COM"]
properties('MP2/aug-cc-pvtz', properties = ['dipole'])
--------------------------------------------------------------------------

    Molecular point group: c1
  Charge       = 0
  Multiplicity = 1
  Basis Set: AUG-CC-PVTZ
    Blend: AUG-CC-PVTZ
  Basis Set: (AUG-CC-PVTZ AUX)
    Blend: AUG-CC-PVTZ-JKFIT

    Orbital Energies [Eh]
    ---------------------

    Doubly Occupied:

       1A    -15.636649     2A    -15.584705     3A    -11.272794
       4A    -11.268401     5A    -11.251457     6A    -11.217833
       7A     -1.373540     8A     -1.114789     9A     -1.062960
      10A     -0.941766    11A     -0.802502    12A     -0.773743
      13A     -0.714009    14A     -0.649815    15A     -0.608032
      16A     -0.583046    17A     -0.564667    18A     -0.549102
      19A     -0.545830    20A     -0.455314    21A     -0.348760
      22A     -0.345426

  @DF-RHF Final Energy:  -263.91613112777742

   => Energetics <=

    Nuclear Repulsion Energy =            226.8599794470680706
    One-Electron Energy =                -806.2219430061928733
    Two-Electron Energy =                 315.4458324313473554
    Total Energy =                       -263.9161311277774189
  Basis Set: (AUG-CC-PVTZ AUX)
    Blend: AUG-CC-PVTZ-RI
    Molecular point group: c1

    Geometry (in Angstrom), charge = 0, multiplicity = 1:

       Center              X                  Y                   Z               Mass
    ------------   -----------------  -----------------  -----------------  -----------------
         N            0.623762438550     0.043040750477    -0.000009582418    14.003074004430
         N           -0.064046561450    -1.116387249523    -0.000016582418    14.003074004430
         C           -0.182567561450     1.140471750477     0.000023417582    12.000000000000
         C            2.073673438550    -0.001270249523    -0.000005582418    12.000000000000
         C           -1.438772161450     0.684562450477     0.000015717582    12.000000000000
         C           -1.357473561450    -0.729664249523    -0.000005582418    12.000000000000
         H            0.225945438550     2.141983750477     0.000047417582     1.007825032230
         H            2.424262438550    -0.524580249523     0.890957417582     1.007825032230
         H            2.424252438550    -0.524721249523    -0.890888582418     1.007825032230
         H            2.451026438550     1.022063750477    -0.000087582418     1.007825032230
         H           -2.392142561450     1.256220750477     0.000019417582     1.007825032230
         H           -2.132887561450    -1.484772249523    -0.000017582418     1.007825032230

  Basis Set: AUG-CC-PVTZ
    Blend: AUG-CC-PVTZ
  Basis Set: (AUG-CC-PVTZ AUX)
    Blend: AUG-CC-PVTZ-JKFIT
	 Reference Energy          =    -263.9161311277774189 [Eh]
	 Singles Energy            =      -0.0000000000000000 [Eh]
	 Same-Spin Energy          =      -0.2879717610741570 [Eh]
	 Opposite-Spin Energy      =      -0.9007996746403597 [Eh]
	 Correlation Energy        =      -1.1887714357145167 [Eh]
	 Total Energy              =    -265.1049025634919190 [Eh]

	 ================> DF-SCS-MP2 Energies <==================
	-----------------------------------------------------------
	 SCS Same-Spin Scale       =       0.3333333333333333 [-]
	 SCS Opposite-Spin Scale   =       1.2000000000000000 [-]
	 SCS Same-Spin Energy      =      -0.0959905870247190 [Eh]
	 SCS Opposite-Spin Energy  =      -1.0809596095684315 [Eh]
	 SCS Correlation Energy    =      -1.1769501965931506 [Eh]
	 SCS Total Energy          =    -265.0930813243705870 [Eh]
	-----------------------------------------------------------

  Dipole Moment: [D]
     X:     1.2884      Y:     2.0557      Z:     0.0000     Total:     2.4260

*** Psi4 exiting successfully. Buy a developer a beer!
