                               Psi4 1.4a3.dev225

  ==> Input File <==

--------------------------------------------------------------------------
#psi4
#
memory 32 gb

molecule  {
0 1
  N        0.5963620     0.0240630    -0.0000100
  N       -0.0914470    -1.1353650    -0.0000170
  C       -0.2099680     1.1214940     0.0000230
  C        2.0462730    -0.0202480    -0.0000060
  C       -1.5131730     0.6485270     0.0000150
  C       -1.3848740    -0.7486420    -0.0000060
  H        0.1985450     2.1230060     0.0000470
  H        2.3968620    -0.5435580     0.8909570
  H        2.3968520    -0.5436990    -0.8908890
  H        2.4236260     1.0030860    -0.0000880
  H       -2.4195430     1.2372430     0.0000190
  H       -2.1244667    -1.4688668    -0.0000174
units angstrom
no_reorient  #important for SAPT in psi4, default
symmetry c1  #important for SAPT in psi4, default
}

set PROPERTIES_ORIGIN ["COM"]
properties('MP2/aug-cc-pvtz', properties = ['dipole'])
--------------------------------------------------------------------------

    Molecular point group: c1
  Charge       = 0
  Multiplicity = 1
  Basis Set: AUG-CC-PVTZ
    Blend: AUG-CC-PVTZ
  Basis Set: (AUG-CC-PVTZ AUX)
    Blend: AUG-CC-PVTZ-JKFIT

    Orbital Energies [Eh]
    ---------------------

    Doubly Occupied:

       1A    -15.641540     2A    -15.581914     3A    -11.274863
       4A    -11.274277     5A    -11.245164     6A    -11.219188
       7A     -1.372431     8A     -1.116785     9A     -1.054438
      10A     -0.947051    11A     -0.807197    12A     -0.774831
      13A     -0.716567    14A     -0.649864    15A     -0.614970
      16A     -0.582842    17A     -0.570586    18A     -0.548552
      19A     -0.544993    20A     -0.456257    21A     -0.348942
      22A     -0.340479

  @DF-RHF Final Energy:  -263.91749544499106

   => Energetics <=

    Nuclear Repulsion Energy =            226.4572142389739895
    One-Electron Energy =                -805.3819578808887627
    Two-Electron Energy =                 315.0072481969237401
    Total Energy =                       -263.9174954449910615
  Basis Set: (AUG-CC-PVTZ AUX)
    Blend: AUG-CC-PVTZ-RI
    Molecular point group: c1

    Geometry (in Angstrom), charge = 0, multiplicity = 1:

       Center              X                  Y                   Z               Mass
    ------------   -----------------  -----------------  -----------------  -----------------
         N            0.630196116360     0.045106927642    -0.000009545914    14.003074004430
         N           -0.057612883640    -1.114321072358    -0.000016545914    14.003074004430
         C           -0.176133883640     1.142537927642     0.000023454086    12.000000000000
         C            2.080107116360     0.000795927642    -0.000005545914    12.000000000000
         C           -1.479338883640     0.669570927642     0.000015454086    12.000000000000
         C           -1.351039883640    -0.727598072358    -0.000005545914    12.000000000000
         H            0.232379116360     2.144049927642     0.000047454086     1.007825032230
         H            2.430696116360    -0.522514072358     0.890957454086     1.007825032230
         H            2.430686116360    -0.522655072358    -0.890888545914     1.007825032230
         H            2.457460116360     1.024129927642    -0.000087545914     1.007825032230
         H           -2.385708883640     1.258286927642     0.000019454086     1.007825032230
         H           -2.090632583640    -1.447822872358    -0.000016945914     1.007825032230

  Basis Set: AUG-CC-PVTZ
    Blend: AUG-CC-PVTZ
  Basis Set: (AUG-CC-PVTZ AUX)
    Blend: AUG-CC-PVTZ-JKFIT
	 Reference Energy          =    -263.9174954449910615 [Eh]
	 Singles Energy            =      -0.0000000000000000 [Eh]
	 Same-Spin Energy          =      -0.2882620717878436 [Eh]
	 Opposite-Spin Energy      =      -0.9011975494773559 [Eh]
	 Correlation Energy        =      -1.1894596212651996 [Eh]
	 Total Energy              =    -265.1069550662562619 [Eh]

	 ================> DF-SCS-MP2 Energies <==================
	-----------------------------------------------------------
	 SCS Same-Spin Scale       =       0.3333333333333333 [-]
	 SCS Opposite-Spin Scale   =       1.2000000000000000 [-]
	 SCS Same-Spin Energy      =      -0.0960873572626145 [Eh]
	 SCS Opposite-Spin Energy  =      -1.0814370593728271 [Eh]
	 SCS Correlation Energy    =      -1.1775244166354415 [Eh]
	 SCS Total Energy          =    -265.0950198616264970 [Eh]
	-----------------------------------------------------------

  Dipole Moment: [D]
     X:     1.3342      Y:     2.0549      Z:     0.0000     Total:     2.4500

*** Psi4 exiting successfully. Buy a developer a beer!
