                               Psi4 1.4a3.dev225

  ==> Input File <==

--------------------------------------------------------------------------
#psi4
#
memory 32 gb

molecule  {
0 1
  N        0.5963620     0.0240630    -0.0000100
  N       -0.0914470    -1.1353650    -0.0000170
  C       -0.2099680     1.1214940     0.0000230
  C        2.0462730    -0.0202480    -0.0000060
  C       -1.5131730     0.6485270     0.0000150
  C       -1.3848740    -0.7486420    -0.0000060
  H        0.1985450     2.1230060     0.0000470
  H        2.3968620    -0.5435580     0.8909570
  H        2.3968520    -0.5436990    -0.8908890
  H        2.4236260     1.0030860    -0.0000880
  H       -2.4195430     1.2372430     0.0000190
  H       -2.1961093    -1.5386332    -0.0000186
units angstrom
no_reorient  #important for SAPT in psi4, default
symmetry c1  #important for SAPT in psi4, default
}

set PROPERTIES_ORIGIN ["COM"]
properties('MP2/aug-cc-pvtz', properties = ['dipole'])
--------------------------------------------------------------------------

    Molecular point group: c1
  Charge       = 0
  Multiplicity = 1
  Basis Set: AUG-CC-PVTZ
    Blend: AUG-CC-PVTZ
  Basis Set: (AUG-CC-PVTZ AUX)
    Blend: AUG-CC-PVTZ-JKFIT

    Orbital Energies [Eh]
    ---------------------

    Doubly Occupied:

       1A    -15.642039     2A    -15.582519     3A    -11.275512
       4A    -11.274612     5A    -11.256512     6A    -11.220096
       7A     -1.373054     8A     -1.115861     9A     -1.055132
      10A     -0.944454    11A     -0.802016    12A     -0.770115
      13A     -0.712198    14A     -0.650311    15A     -0.610512
      16A     -0.580315    17A     -0.568797    18A     -0.545460
      19A     -0.541311    20A     -0.456088    21A     -0.349336
      22A     -0.341071

  @DF-RHF Final Energy:  -263.91590778517826

   => Energetics <=

    Nuclear Repulsion Energy =            225.9684918382566252
    One-Electron Energy =                -804.4341640478940008
    Two-Electron Energy =                 314.5497644244591697
    Total Energy =                       -263.9159077851782627
  Basis Set: (AUG-CC-PVTZ AUX)
    Blend: AUG-CC-PVTZ-RI
    Molecular point group: c1

    Geometry (in Angstrom), charge = 0, multiplicity = 1:

       Center              X                  Y                   Z               Mass
    ------------   -----------------  -----------------  -----------------  -----------------
         N            0.631076073452     0.045963840128    -0.000009531174    14.003074004430
         N           -0.056732926548    -1.113464159872    -0.000016531174    14.003074004430
         C           -0.175253926548     1.143394840128     0.000023468826    12.000000000000
         C            2.080987073452     0.001652840128    -0.000005531174    12.000000000000
         C           -1.478458926548     0.670427840128     0.000015468826    12.000000000000
         C           -1.350159926548    -0.726741159872    -0.000005531174    12.000000000000
         H            0.233259073452     2.144906840128     0.000047468826     1.007825032230
         H            2.431576073452    -0.521657159872     0.890957468826     1.007825032230
         H            2.431566073452    -0.521798159872    -0.890888531174     1.007825032230
         H            2.458340073452     1.024986840128    -0.000087531174     1.007825032230
         H           -2.384828926548     1.259143840128     0.000019468826     1.007825032230
         H           -2.161395226548    -1.516732359872    -0.000018131174     1.007825032230

  Basis Set: AUG-CC-PVTZ
    Blend: AUG-CC-PVTZ
  Basis Set: (AUG-CC-PVTZ AUX)
    Blend: AUG-CC-PVTZ-JKFIT
	 Reference Energy          =    -263.9159077851782627 [Eh]
	 Singles Energy            =      -0.0000000000000000 [Eh]
	 Same-Spin Energy          =      -0.2884107652799951 [Eh]
	 Opposite-Spin Energy      =      -0.9017877034162218 [Eh]
	 Correlation Energy        =      -1.1901984686962170 [Eh]
	 Total Energy              =    -265.1061062538744864 [Eh]

	 ================> DF-SCS-MP2 Energies <==================
	-----------------------------------------------------------
	 SCS Same-Spin Scale       =       0.3333333333333333 [-]
	 SCS Opposite-Spin Scale   =       1.2000000000000000 [-]
	 SCS Same-Spin Energy      =      -0.0961369217599984 [Eh]
	 SCS Opposite-Spin Energy  =      -1.0821452440994661 [Eh]
	 SCS Correlation Energy    =      -1.1782821658594644 [Eh]
	 SCS Total Energy          =    -265.0941899510377198 [Eh]
	-----------------------------------------------------------

  Dipole Moment: [D]
     X:     1.3492      Y:     2.0622      Z:     0.0000     Total:     2.4644

*** Psi4 exiting successfully. Buy a developer a beer!
