                               Psi4 1.4a3.dev225

  ==> Input File <==

--------------------------------------------------------------------------
#psi4
#
memory 32 gb

molecule  {
0 1
  N        0.6153920     0.0383025    -0.0000097
  N       -0.0914470    -1.1353650    -0.0000170
  C       -0.2099680     1.1214940     0.0000230
  C        2.0462730    -0.0202480    -0.0000060
  C       -1.5131730     0.6485270     0.0000150
  C       -1.3848740    -0.7486420    -0.0000060
  H        0.1985450     2.1230060     0.0000470
  H        2.3968620    -0.5435580     0.8909570
  H        2.3968520    -0.5436990    -0.8908890
  H        2.4236260     1.0030860    -0.0000880
  H       -2.4195430     1.2372430     0.0000190
  H       -2.1602880    -1.5037500    -0.0000180
units angstrom
no_reorient  #important for SAPT in psi4, default
symmetry c1  #important for SAPT in psi4, default
}

set PROPERTIES_ORIGIN ["COM"]
properties('MP2/aug-cc-pvtz', properties = ['dipole'])
--------------------------------------------------------------------------

    Molecular point group: c1
  Charge       = 0
  Multiplicity = 1
  Basis Set: AUG-CC-PVTZ
    Blend: AUG-CC-PVTZ
  Basis Set: (AUG-CC-PVTZ AUX)
    Blend: AUG-CC-PVTZ-JKFIT

    Orbital Energies [Eh]
    ---------------------

    Doubly Occupied:

       1A    -15.640181     2A    -15.582310     3A    -11.277586
       4A    -11.272809     5A    -11.253402     6A    -11.219905
       7A     -1.365340     8A     -1.120722     9A     -1.052468
      10A     -0.945946    11A     -0.802448    12A     -0.773709
      13A     -0.713543    14A     -0.649750    15A     -0.613750
      16A     -0.586345    17A     -0.567317    18A     -0.544775
      19A     -0.542086    20A     -0.454263    21A     -0.351781
      22A     -0.339178

  @DF-RHF Final Energy:  -263.91709784048817

   => Energetics <=

    Nuclear Repulsion Energy =            225.9549398450077149
    One-Electron Energy =                -804.4048431984651870
    Two-Electron Energy =                 314.5328055129692757
    Total Energy =                       -263.9170978404881680
  Basis Set: (AUG-CC-PVTZ AUX)
    Blend: AUG-CC-PVTZ-RI
    Molecular point group: c1

    Geometry (in Angstrom), charge = 0, multiplicity = 1:

       Center              X                  Y                   Z               Mass
    ------------   -----------------  -----------------  -----------------  -----------------
         N            0.646418460092     0.057344789511    -0.000009289742    14.003074004430
         N           -0.060420539908    -1.116322710489    -0.000016589742    14.003074004430
         C           -0.178941539908     1.140536289511     0.000023410258    12.000000000000
         C            2.077299460092    -0.001205710489    -0.000005589742    12.000000000000
         C           -1.482146539908     0.667569289511     0.000015410258    12.000000000000
         C           -1.353847539908    -0.729599710489    -0.000005589742    12.000000000000
         H            0.229571460092     2.142048289511     0.000047410258     1.007825032230
         H            2.427888460092    -0.524515710489     0.890957410258     1.007825032230
         H            2.427878460092    -0.524656710489    -0.890888589742     1.007825032230
         H            2.454652460092     1.022128289511    -0.000087589742     1.007825032230
         H           -2.388516539908     1.256285289511     0.000019410258     1.007825032230
         H           -2.129261539908    -1.484707710489    -0.000017589742     1.007825032230

  Basis Set: AUG-CC-PVTZ
    Blend: AUG-CC-PVTZ
  Basis Set: (AUG-CC-PVTZ AUX)
    Blend: AUG-CC-PVTZ-JKFIT
	 Reference Energy          =    -263.9170978404881680 [Eh]
	 Singles Energy            =      -0.0000000000000000 [Eh]
	 Same-Spin Energy          =      -0.2883231876047374 [Eh]
	 Opposite-Spin Energy      =      -0.9018268534781301 [Eh]
	 Correlation Energy        =      -1.1901500410828674 [Eh]
	 Total Energy              =    -265.1072478815710269 [Eh]

	 ================> DF-SCS-MP2 Energies <==================
	-----------------------------------------------------------
	 SCS Same-Spin Scale       =       0.3333333333333333 [-]
	 SCS Opposite-Spin Scale   =       1.2000000000000000 [-]
	 SCS Same-Spin Energy      =      -0.0961077292015791 [Eh]
	 SCS Opposite-Spin Energy  =      -1.0821922241737560 [Eh]
	 SCS Correlation Energy    =      -1.1782999533753351 [Eh]
	 SCS Total Energy          =    -265.0953977938635262 [Eh]
	-----------------------------------------------------------

  Dipole Moment: [D]
     X:     1.2862      Y:     2.0504      Z:     0.0000     Total:     2.4205

*** Psi4 exiting successfully. Buy a developer a beer!
