                               Psi4 1.4a3.dev225

  ==> Input File <==

--------------------------------------------------------------------------
#psi4
#
memory 32 gb

molecule  {
0 1
  N        0.5963620     0.0240630    -0.0000100
  N       -0.0914470    -1.1353650    -0.0000170
  C       -0.2099680     1.1214940     0.0000230
  C        2.0462730    -0.0202480    -0.0000060
  C       -1.5131730     0.6485270     0.0000150
  C       -1.3848740    -0.7486420    -0.0000060
  H        0.1985450     2.1230060     0.0000470
  H        2.3968620    -0.5435580     0.8909570
  H        2.3968520    -0.5436990    -0.8908890
  H        2.4236260     1.0030860    -0.0000880
  H       -2.4195430     1.2372430     0.0000190
  H       -2.1459595    -1.4897967    -0.0000178
units angstrom
no_reorient  #important for SAPT in psi4, default
symmetry c1  #important for SAPT in psi4, default
}

set PROPERTIES_ORIGIN ["COM"]
properties('MP2/aug-cc-pvtz', properties = ['dipole'])
--------------------------------------------------------------------------

    Molecular point group: c1
  Charge       = 0
  Multiplicity = 1
  Basis Set: AUG-CC-PVTZ
    Blend: AUG-CC-PVTZ
  Basis Set: (AUG-CC-PVTZ AUX)
    Blend: AUG-CC-PVTZ-JKFIT

    Orbital Energies [Eh]
    ---------------------

    Doubly Occupied:

       1A    -15.641666     2A    -15.582062     3A    -11.275039
       4A    -11.274364     5A    -11.248638     6A    -11.219430
       7A     -1.372594     8A     -1.116426     9A     -1.054627
      10A     -0.946120    11A     -0.805210    12A     -0.773364
      13A     -0.715243    14A     -0.649981    15A     -0.613417
      16A     -0.581969    17A     -0.570094    18A     -0.546822
      19A     -0.545114    20A     -0.456210    21A     -0.349030
      22A     -0.340640

  @DF-RHF Final Energy:  -263.91848863140189

   => Energetics <=

    Nuclear Repulsion Energy =            226.3039034224638613
    One-Electron Energy =                -805.0886625395510237
    Two-Electron Energy =                 314.8662704856852201
    Total Energy =                       -263.9184886314018854
  Basis Set: (AUG-CC-PVTZ AUX)
    Blend: AUG-CC-PVTZ-RI
    Molecular point group: c1

    Geometry (in Angstrom), charge = 0, multiplicity = 1:

       Center              X                  Y                   Z               Mass
    ------------   -----------------  -----------------  -----------------  -----------------
         N            0.630460103733     0.045364001142    -0.000009541000    14.003074004430
         N           -0.057348896267    -1.114063998858    -0.000016541000    14.003074004430
         C           -0.175869896267     1.142795001142     0.000023459000    12.000000000000
         C            2.080371103733     0.001053001142    -0.000005541000    12.000000000000
         C           -1.479074896267     0.669828001142     0.000015459000    12.000000000000
         C           -1.350775896267    -0.727340998858    -0.000005541000    12.000000000000
         H            0.232643103733     2.144307001142     0.000047459000     1.007825032230
         H            2.430960103733    -0.522256998858     0.890957459000     1.007825032230
         H            2.430950103733    -0.522397998858    -0.890888541000     1.007825032230
         H            2.457724103733     1.024387001142    -0.000087541000     1.007825032230
         H           -2.385444896267     1.258544001142     0.000019459000     1.007825032230
         H           -2.111861396267    -1.468495698858    -0.000017341000     1.007825032230

  Basis Set: AUG-CC-PVTZ
    Blend: AUG-CC-PVTZ
  Basis Set: (AUG-CC-PVTZ AUX)
    Blend: AUG-CC-PVTZ-JKFIT
	 Reference Energy          =    -263.9184886314018854 [Eh]
	 Singles Energy            =      -0.0000000000000000 [Eh]
	 Same-Spin Energy          =      -0.2882980281441103 [Eh]
	 Opposite-Spin Energy      =      -0.9013275780200383 [Eh]
	 Correlation Energy        =      -1.1896256061641486 [Eh]
	 Total Energy              =    -265.1081142375660420 [Eh]

	 ================> DF-SCS-MP2 Energies <==================
	-----------------------------------------------------------
	 SCS Same-Spin Scale       =       0.3333333333333333 [-]
	 SCS Opposite-Spin Scale   =       1.2000000000000000 [-]
	 SCS Same-Spin Energy      =      -0.0960993427147034 [Eh]
	 SCS Opposite-Spin Energy  =      -1.0815930936240459 [Eh]
	 SCS Correlation Energy    =      -1.1776924363387493 [Eh]
	 SCS Total Energy          =    -265.0961810677406447 [Eh]
	-----------------------------------------------------------

  Dipole Moment: [D]
     X:     1.3375      Y:     2.0561      Z:     0.0000     Total:     2.4529

*** Psi4 exiting successfully. Buy a developer a beer!
