                               Psi4 1.4a3.dev225

  ==> Input File <==

--------------------------------------------------------------------------
#psi4
#
memory 32 gb

molecule  {
0 1
  N        0.5963620     0.0240630    -0.0000100
  N       -0.0914470    -1.1353650    -0.0000170
  C       -0.2099680     1.1214940     0.0000230
  C        2.0462730    -0.0202480    -0.0000060
  C       -1.6071738     0.6144117     0.0000144
  C       -1.3848740    -0.7486420    -0.0000060
  H        0.1985450     2.1230060     0.0000470
  H        2.3968620    -0.5435580     0.8909570
  H        2.3968520    -0.5436990    -0.8908890
  H        2.4236260     1.0030860    -0.0000880
  H       -2.4195430     1.2372430     0.0000190
  H       -2.1602880    -1.5037500    -0.0000180
units angstrom
no_reorient  #important for SAPT in psi4, default
symmetry c1  #important for SAPT in psi4, default
}

set PROPERTIES_ORIGIN ["COM"]
properties('MP2/aug-cc-pvtz', properties = ['dipole'])
--------------------------------------------------------------------------

    Molecular point group: c1
  Charge       = 0
  Multiplicity = 1
  Basis Set: AUG-CC-PVTZ
    Blend: AUG-CC-PVTZ
  Basis Set: (AUG-CC-PVTZ AUX)
    Blend: AUG-CC-PVTZ-JKFIT

    Orbital Energies [Eh]
    ---------------------

    Doubly Occupied:

       1A    -15.651527     2A    -15.577400     3A    -11.286589
       4A    -11.277566     5A    -11.250992     6A    -11.223427
       7A     -1.371714     8A     -1.118678     9A     -1.041972
      10A     -0.952895    11A     -0.810045    12A     -0.768908
      13A     -0.715179    14A     -0.650919    15A     -0.628010
      16A     -0.588633    17A     -0.570254    18A     -0.544438
      19A     -0.524879    20A     -0.457353    21A     -0.356018
      22A     -0.328048

  @DF-RHF Final Energy:  -263.90445867680967

   => Energetics <=

    Nuclear Repulsion Energy =            224.9703069664558939
    One-Electron Energy =                -802.3586437855941540
    Two-Electron Energy =                 313.4838781423285354
    Total Energy =                       -263.9044586768096678
  Basis Set: (AUG-CC-PVTZ AUX)
    Blend: AUG-CC-PVTZ-RI
    Molecular point group: c1

    Geometry (in Angstrom), charge = 0, multiplicity = 1:

       Center              X                  Y                   Z               Mass
    ------------   -----------------  -----------------  -----------------  -----------------
         N            0.644383407618     0.050524636076    -0.000009450796    14.003074004430
         N           -0.043425592382    -1.108903363924    -0.000016450796    14.003074004430
         C           -0.161946592382     1.147955636076     0.000023549204    12.000000000000
         C            2.094294407618     0.006213636076    -0.000005450796    12.000000000000
         C           -1.559152392382     0.640873336076     0.000014949204    12.000000000000
         C           -1.336852592382    -0.722180363924    -0.000005450796    12.000000000000
         H            0.246566407618     2.149467636076     0.000047549204     1.007825032230
         H            2.444883407618    -0.517096363924     0.890957549204     1.007825032230
         H            2.444873407618    -0.517237363924    -0.890888450796     1.007825032230
         H            2.471647407618     1.029547636076    -0.000087450796     1.007825032230
         H           -2.371521592382     1.263704636076     0.000019549204     1.007825032230
         H           -2.112266592382    -1.477288363924    -0.000017450796     1.007825032230

  Basis Set: AUG-CC-PVTZ
    Blend: AUG-CC-PVTZ
  Basis Set: (AUG-CC-PVTZ AUX)
    Blend: AUG-CC-PVTZ-JKFIT
	 Reference Energy          =    -263.9044586768096678 [Eh]
	 Singles Energy            =      -0.0000000000000000 [Eh]
	 Same-Spin Energy          =      -0.2890636294011749 [Eh]
	 Opposite-Spin Energy      =      -0.9033143854790142 [Eh]
	 Correlation Energy        =      -1.1923780148801892 [Eh]
	 Total Energy              =    -265.0968366916898731 [Eh]

	 ================> DF-SCS-MP2 Energies <==================
	-----------------------------------------------------------
	 SCS Same-Spin Scale       =       0.3333333333333333 [-]
	 SCS Opposite-Spin Scale   =       1.2000000000000000 [-]
	 SCS Same-Spin Energy      =      -0.0963545431337250 [Eh]
	 SCS Opposite-Spin Energy  =      -1.0839772625748170 [Eh]
	 SCS Correlation Energy    =      -1.1803318057085419 [Eh]
	 SCS Total Energy          =    -265.0847904825182013 [Eh]
	-----------------------------------------------------------

  Dipole Moment: [D]
     X:     1.4378      Y:     2.0516      Z:     0.0000     Total:     2.5053

*** Psi4 exiting successfully. Buy a developer a beer!
