                               Psi4 1.4a3.dev225

  ==> Input File <==

--------------------------------------------------------------------------
#psi4
#
memory 32 gb

molecule  {
0 1
  N        0.5963620     0.0240630    -0.0000100
  N       -0.0914470    -1.1353650    -0.0000170
  C       -0.2099680     1.1214940     0.0000230
  C        2.0462730    -0.0202480    -0.0000060
  C       -1.5131730     0.6485270     0.0000150
  C       -1.3848740    -0.7486420    -0.0000060
  H        0.1985450     2.1230060     0.0000470
  H        2.3968620    -0.5435580     0.8909570
  H        2.3968520    -0.5436990    -0.8908890
  H        2.4236260     1.0030860    -0.0000880
  H       -2.4195430     1.2372430     0.0000190
  H       -2.3035730    -1.6432828    -0.0000202
units angstrom
no_reorient  #important for SAPT in psi4, default
symmetry c1  #important for SAPT in psi4, default
}

set PROPERTIES_ORIGIN ["COM"]
properties('MP2/aug-cc-pvtz', properties = ['dipole'])
--------------------------------------------------------------------------

    Molecular point group: c1
  Charge       = 0
  Multiplicity = 1
  Basis Set: AUG-CC-PVTZ
    Blend: AUG-CC-PVTZ
  Basis Set: (AUG-CC-PVTZ AUX)
    Blend: AUG-CC-PVTZ-JKFIT

    Orbital Energies [Eh]
    ---------------------

    Doubly Occupied:

       1A    -15.643214     2A    -15.583988     3A    -11.276810
       4A    -11.275350     5A    -11.271913     6A    -11.221973
       7A     -1.374396     8A     -1.115662     9A     -1.056525
      10A     -0.942622    11A     -0.799296    12A     -0.765186
      13A     -0.706659    14A     -0.651288    15A     -0.607312
      16A     -0.579007    17A     -0.566629    18A     -0.546485
      19A     -0.522794    20A     -0.455462    21A     -0.350447
      22A     -0.342265

  @DF-RHF Final Energy:  -263.89563221566414

   => Energetics <=

    Nuclear Repulsion Energy =            225.3373784056549312
    One-Electron Energy =                -803.1554520754181112
    Two-Electron Energy =                 313.9224414540990438
    Total Energy =                       -263.8956322156641363
  Basis Set: (AUG-CC-PVTZ AUX)
    Blend: AUG-CC-PVTZ-RI
    Molecular point group: c1

    Geometry (in Angstrom), charge = 0, multiplicity = 1:

       Center              X                  Y                   Z               Mass
    ------------   -----------------  -----------------  -----------------  -----------------
         N            0.632396006633     0.047249208856    -0.000009511522    14.003074004430
         N           -0.055412993367    -1.112178791144    -0.000016511522    14.003074004430
         C           -0.173933993367     1.144680208856     0.000023488478    12.000000000000
         C            2.082307006633     0.002938208856    -0.000005511522    12.000000000000
         C           -1.477138993367     0.671713208856     0.000015488478    12.000000000000
         C           -1.348839993367    -0.725455791144    -0.000005511522    12.000000000000
         H            0.234579006633     2.146192208856     0.000047488478     1.007825032230
         H            2.432896006633    -0.520371791144     0.890957488478     1.007825032230
         H            2.432886006633    -0.520512791144    -0.890888511522     1.007825032230
         H            2.459660006633     1.026272208856    -0.000087511522     1.007825032230
         H           -2.383508993367     1.260429208856     0.000019488478     1.007825032230
         H           -2.267538993367    -1.620096591144    -0.000019711522     1.007825032230

  Basis Set: AUG-CC-PVTZ
    Blend: AUG-CC-PVTZ
  Basis Set: (AUG-CC-PVTZ AUX)
    Blend: AUG-CC-PVTZ-JKFIT
	 Reference Energy          =    -263.8956322156641363 [Eh]
	 Singles Energy            =      -0.0000000000000000 [Eh]
	 Same-Spin Energy          =      -0.2887463319433115 [Eh]
	 Opposite-Spin Energy      =      -0.9033895562447665 [Eh]
	 Correlation Energy        =      -1.1921358881880779 [Eh]
	 Total Energy              =    -265.0877681038522269 [Eh]

	 ================> DF-SCS-MP2 Energies <==================
	-----------------------------------------------------------
	 SCS Same-Spin Scale       =       0.3333333333333333 [-]
	 SCS Opposite-Spin Scale   =       1.2000000000000000 [-]
	 SCS Same-Spin Energy      =      -0.0962487773144372 [Eh]
	 SCS Opposite-Spin Energy  =      -1.0840674674937196 [Eh]
	 SCS Correlation Energy    =      -1.1803162448081568 [Eh]
	 SCS Total Energy          =    -265.0759484604723184 [Eh]
	-----------------------------------------------------------

  Dipole Moment: [D]
     X:     1.3926      Y:     2.0911      Z:     0.0000     Total:     2.5123

*** Psi4 exiting successfully. Buy a developer a beer!
