                               Psi4 1.4a3.dev225

  ==> Input File <==

--------------------------------------------------------------------------
#psi4
#
memory 32 gb

molecule  {
0 1
  N        0.5963620     0.0240630    -0.0000100
  N       -0.0914470    -1.1353650    -0.0000170
  C       -0.2099680     1.1214940     0.0000230
  C        2.1462263    -0.0233027    -0.0000057
  C       -1.5131730     0.6485270     0.0000150
  C       -1.3848740    -0.7486420    -0.0000060
  H        0.1985450     2.1230060     0.0000470
  H        2.3968620    -0.5435580     0.8909570
  H        2.3968520    -0.5436990    -0.8908890
  H        2.4236260     1.0030860    -0.0000880
  H       -2.4195430     1.2372430     0.0000190
  H       -2.1602880    -1.5037500    -0.0000180
units angstrom
no_reorient  #important for SAPT in psi4, default
symmetry c1  #important for SAPT in psi4, default
}

set PROPERTIES_ORIGIN ["COM"]
properties('MP2/aug-cc-pvtz', properties = ['dipole'])
--------------------------------------------------------------------------

    Molecular point group: c1
  Charge       = 0
  Multiplicity = 1
  Basis Set: AUG-CC-PVTZ
    Blend: AUG-CC-PVTZ
  Basis Set: (AUG-CC-PVTZ AUX)
    Blend: AUG-CC-PVTZ-JKFIT

    Orbital Energies [Eh]
    ---------------------

    Doubly Occupied:

       1A    -15.638750     2A    -15.579060     3A    -11.278874
       4A    -11.270923     5A    -11.246736     6A    -11.216010
       7A     -1.361638     8A     -1.099924     9A     -1.049193
      10A     -0.952443    11A     -0.797824    12A     -0.766258
      13A     -0.705459    14A     -0.649801    15A     -0.620465
      16A     -0.573665    17A     -0.559570    18A     -0.557664
      19A     -0.549564    20A     -0.451636    21A     -0.346589
      22A     -0.337299

  @DF-RHF Final Energy:  -263.90972881094586

   => Energetics <=

    Nuclear Repulsion Energy =            224.5269666690172414
    One-Electron Energy =                -801.6546994545894904
    Two-Electron Energy =                 313.2180039746263560
    Total Energy =                       -263.9097288109458646
  Basis Set: (AUG-CC-PVTZ AUX)
    Blend: AUG-CC-PVTZ-RI
    Molecular point group: c1

    Geometry (in Angstrom), charge = 0, multiplicity = 1:

       Center              X                  Y                   Z               Mass
    ------------   -----------------  -----------------  -----------------  -----------------
         N            0.616018248337     0.045982123872    -0.000009582418    14.003074004430
         N           -0.071790751663    -1.113445876128    -0.000016582418    14.003074004430
         C           -0.190311751663     1.143413123872     0.000023417582    12.000000000000
         C            2.165882548337    -0.001383576128    -0.000005282418    12.000000000000
         C           -1.493516751663     0.670446123872     0.000015417582    12.000000000000
         C           -1.365217751663    -0.726722876128    -0.000005582418    12.000000000000
         H            0.218201248337     2.144925123872     0.000047417582     1.007825032230
         H            2.416518248337    -0.521638876128     0.890957417582     1.007825032230
         H            2.416508248337    -0.521779876128    -0.890888582418     1.007825032230
         H            2.443282248337     1.025005123872    -0.000087582418     1.007825032230
         H           -2.399886751663     1.259162123872     0.000019417582     1.007825032230
         H           -2.140631751663    -1.481830876128    -0.000017582418     1.007825032230

  Basis Set: AUG-CC-PVTZ
    Blend: AUG-CC-PVTZ
  Basis Set: (AUG-CC-PVTZ AUX)
    Blend: AUG-CC-PVTZ-JKFIT
	 Reference Energy          =    -263.9097288109458646 [Eh]
	 Singles Energy            =      -0.0000000000000000 [Eh]
	 Same-Spin Energy          =      -0.2882963603241757 [Eh]
	 Opposite-Spin Energy      =      -0.9022278581605798 [Eh]
	 Correlation Energy        =      -1.1905242184847555 [Eh]
	 Total Energy              =    -265.1002530294306325 [Eh]

	 ================> DF-SCS-MP2 Energies <==================
	-----------------------------------------------------------
	 SCS Same-Spin Scale       =       0.3333333333333333 [-]
	 SCS Opposite-Spin Scale   =       1.2000000000000000 [-]
	 SCS Same-Spin Energy      =      -0.0960987867747252 [Eh]
	 SCS Opposite-Spin Energy  =      -1.0826734297926957 [Eh]
	 SCS Correlation Energy    =      -1.1787722165674208 [Eh]
	 SCS Total Energy          =    -265.0885010275133027 [Eh]
	-----------------------------------------------------------

  Dipole Moment: [D]
     X:     1.6329      Y:     2.0379      Z:     0.0000     Total:     2.6114

*** Psi4 exiting successfully. Buy a developer a beer!
