                               Psi4 1.4a3.dev225

  ==> Input File <==

--------------------------------------------------------------------------
#psi4
#
memory 32 gb

molecule  {
0 1
  N        0.5575710    -0.0034090    -0.0000106
  N       -0.0914470    -1.1353650    -0.0000170
  C       -0.2099680     1.1214940     0.0000230
  C        2.0462730    -0.0202480    -0.0000060
  C       -1.5131730     0.6485270     0.0000150
  C       -1.3848740    -0.7486420    -0.0000060
  H        0.1985450     2.1230060     0.0000470
  H        2.3968620    -0.5435580     0.8909570
  H        2.3968520    -0.5436990    -0.8908890
  H        2.4236260     1.0030860    -0.0000880
  H       -2.4195430     1.2372430     0.0000190
  H       -2.1602880    -1.5037500    -0.0000180
units angstrom
no_reorient  #important for SAPT in psi4, default
symmetry c1  #important for SAPT in psi4, default
}

set PROPERTIES_ORIGIN ["COM"]
properties('MP2/aug-cc-pvtz', properties = ['dipole'])
--------------------------------------------------------------------------

    Molecular point group: c1
  Charge       = 0
  Multiplicity = 1
  Basis Set: AUG-CC-PVTZ
    Blend: AUG-CC-PVTZ
  Basis Set: (AUG-CC-PVTZ AUX)
    Blend: AUG-CC-PVTZ-JKFIT

    Orbital Energies [Eh]
    ---------------------

    Doubly Occupied:

       1A    -15.645095     2A    -15.582074     3A    -11.277538
       4A    -11.270414     5A    -11.245941     6A    -11.219108
       7A     -1.389764     8A     -1.107491     9A     -1.060104
      10A     -0.944788    11A     -0.807558    12A     -0.769775
      13A     -0.716053    14A     -0.651661    15A     -0.610275
      16A     -0.579209    17A     -0.567733    18A     -0.551689
      19A     -0.545391    20A     -0.459055    21A     -0.346932
      22A     -0.340746

  @DF-RHF Final Energy:  -263.91626678754119

   => Energetics <=

    Nuclear Repulsion Energy =            226.7431758729717046
    One-Electron Energy =                -805.9420981316308144
    Two-Electron Energy =                 315.2826554711178915
    Total Energy =                       -263.9162667875411898
  Basis Set: (AUG-CC-PVTZ AUX)
    Blend: AUG-CC-PVTZ-RI
    Molecular point group: c1

    Geometry (in Angstrom), charge = 0, multiplicity = 1:

       Center              X                  Y                   Z               Mass
    ------------   -----------------  -----------------  -----------------  -----------------
         N            0.598465116034     0.022751719335    -0.000010036149    14.003074004430
         N           -0.050552883966    -1.109204280665    -0.000016436149    14.003074004430
         C           -0.169073883966     1.147654719335     0.000023563851    12.000000000000
         C            2.087167116034     0.005912719335    -0.000005436149    12.000000000000
         C           -1.472278883966     0.674687719335     0.000015563851    12.000000000000
         C           -1.343979883966    -0.722481280665    -0.000005436149    12.000000000000
         H            0.239439116034     2.149166719335     0.000047563851     1.007825032230
         H            2.437756116034    -0.517397280665     0.890957563851     1.007825032230
         H            2.437746116034    -0.517538280665    -0.890888436149     1.007825032230
         H            2.464520116034     1.029246719335    -0.000087436149     1.007825032230
         H           -2.378648883966     1.263403719335     0.000019563851     1.007825032230
         H           -2.119393883966    -1.477589280665    -0.000017436149     1.007825032230

  Basis Set: AUG-CC-PVTZ
    Blend: AUG-CC-PVTZ
  Basis Set: (AUG-CC-PVTZ AUX)
    Blend: AUG-CC-PVTZ-JKFIT
	 Reference Energy          =    -263.9162667875411898 [Eh]
	 Singles Energy            =      -0.0000000000000000 [Eh]
	 Same-Spin Energy          =      -0.2884527981287415 [Eh]
	 Opposite-Spin Energy      =      -0.9009440969530351 [Eh]
	 Correlation Energy        =      -1.1893968950817766 [Eh]
	 Total Energy              =    -265.1056636826229465 [Eh]

	 ================> DF-SCS-MP2 Energies <==================
	-----------------------------------------------------------
	 SCS Same-Spin Scale       =       0.3333333333333333 [-]
	 SCS Opposite-Spin Scale   =       1.2000000000000000 [-]
	 SCS Same-Spin Energy      =      -0.0961509327095805 [Eh]
	 SCS Opposite-Spin Energy  =      -1.0811329163436421 [Eh]
	 SCS Correlation Energy    =      -1.1772838490532225 [Eh]
	 SCS Total Energy          =    -265.0935506365943866 [Eh]
	-----------------------------------------------------------

  Dipole Moment: [D]
     X:     1.4421      Y:     2.0645      Z:     0.0000     Total:     2.5183

*** Psi4 exiting successfully. Buy a developer a beer!
