                               Psi4 1.4a3.dev225

  ==> Input File <==

--------------------------------------------------------------------------
#psi4
#
memory 32 gb

molecule  {
0 1
  N        0.5963620     0.0240630    -0.0000100
  N       -0.0914470    -1.1353650    -0.0000170
  C       -0.0915475     0.9603214     0.0000182
  C        2.0462730    -0.0202480    -0.0000060
  C       -1.5131730     0.6485270     0.0000150
  C       -1.3848740    -0.7486420    -0.0000060
  H        0.1985450     2.1230060     0.0000470
  H        2.3968620    -0.5435580     0.8909570
  H        2.3968520    -0.5436990    -0.8908890
  H        2.4236260     1.0030860    -0.0000880
  H       -2.4195430     1.2372430     0.0000190
  H       -2.1602880    -1.5037500    -0.0000180
units angstrom
no_reorient  #important for SAPT in psi4, default
symmetry c1  #important for SAPT in psi4, default
}

set PROPERTIES_ORIGIN ["COM"]
properties('MP2/aug-cc-pvtz', properties = ['dipole'])
--------------------------------------------------------------------------

    Molecular point group: c1
  Charge       = 0
  Multiplicity = 1
  Basis Set: AUG-CC-PVTZ
    Blend: AUG-CC-PVTZ
  Basis Set: (AUG-CC-PVTZ AUX)
    Blend: AUG-CC-PVTZ-JKFIT

    Orbital Energies [Eh]
    ---------------------

    Doubly Occupied:

       1A    -15.648429     2A    -15.559548     3A    -11.284674
       4A    -11.274717     5A    -11.251519     6A    -11.210482
       7A     -1.427960     8A     -1.142777     9A     -1.056702
      10A     -0.964720    11A     -0.818541    12A     -0.759062
      13A     -0.714612    14A     -0.681141    15A     -0.617548
      16A     -0.602608    17A     -0.564106    18A     -0.562141
      19A     -0.500515    20A     -0.446007    21A     -0.378975
      22A     -0.317962

  @DF-RHF Final Energy:  -263.86504189363455

   => Energetics <=

    Nuclear Repulsion Energy =            229.7854971543487750
    One-Electron Energy =                -811.7315873454839448
    Two-Electron Energy =                 318.0810482975006721
    Total Energy =                       -263.8650418936345545
  Basis Set: (AUG-CC-PVTZ AUX)
    Blend: AUG-CC-PVTZ-RI
    Molecular point group: c1

    Geometry (in Angstrom), charge = 0, multiplicity = 1:

       Center              X                  Y                   Z               Mass
    ------------   -----------------  -----------------  -----------------  -----------------
         N            0.613317480117     0.069106354907    -0.000008836560    14.003074004430
         N           -0.074491519883    -1.090321645093    -0.000015836560    14.003074004430
         C           -0.074592019883     1.005364754907     0.000019363440    12.000000000000
         C            2.063228480117     0.024795354907    -0.000004836560    12.000000000000
         C           -1.496217519883     0.693570354907     0.000016163440    12.000000000000
         C           -1.367918519883    -0.703598645093    -0.000004836560    12.000000000000
         H            0.215500480117     2.168049354907     0.000048163440     1.007825032230
         H            2.413817480117    -0.498514645093     0.890958163440     1.007825032230
         H            2.413807480117    -0.498655645093    -0.890887836560     1.007825032230
         H            2.440581480117     1.048129354907    -0.000086836560     1.007825032230
         H           -2.402587519883     1.282286354907     0.000020163440     1.007825032230
         H           -2.143332519883    -1.458706645093    -0.000016836560     1.007825032230

  Basis Set: AUG-CC-PVTZ
    Blend: AUG-CC-PVTZ
  Basis Set: (AUG-CC-PVTZ AUX)
    Blend: AUG-CC-PVTZ-JKFIT
	 Reference Energy          =    -263.8650418936345545 [Eh]
	 Singles Energy            =      -0.0000000000000000 [Eh]
	 Same-Spin Energy          =      -0.2865572488547463 [Eh]
	 Opposite-Spin Energy      =      -0.8970059988397869 [Eh]
	 Correlation Energy        =      -1.1835632476945332 [Eh]
	 Total Energy              =    -265.0486051413290625 [Eh]

	 ================> DF-SCS-MP2 Energies <==================
	-----------------------------------------------------------
	 SCS Same-Spin Scale       =       0.3333333333333333 [-]
	 SCS Opposite-Spin Scale   =       1.2000000000000000 [-]
	 SCS Same-Spin Energy      =      -0.0955190829515821 [Eh]
	 SCS Opposite-Spin Energy  =      -1.0764071986077444 [Eh]
	 SCS Correlation Energy    =      -1.1719262815593265 [Eh]
	 SCS Total Energy          =    -265.0369681751938629 [Eh]
	-----------------------------------------------------------

  Dipole Moment: [D]
     X:     1.7500      Y:     2.0704      Z:     0.0000     Total:     2.7109

*** Psi4 exiting successfully. Buy a developer a beer!
