                               Psi4 1.4a3.dev225

  ==> Input File <==

--------------------------------------------------------------------------
#psi4
#
memory 32 gb

molecule  {
0 1
  N        0.5963620     0.0240630    -0.0000100
  N       -0.0914470    -1.1353650    -0.0000170
  C       -0.2099680     1.1214940     0.0000230
  C        2.0662637    -0.0208589    -0.0000059
  C       -1.5131730     0.6485270     0.0000150
  C       -1.3848740    -0.7486420    -0.0000060
  H        0.1985450     2.1230060     0.0000470
  H        2.3968620    -0.5435580     0.8909570
  H        2.3968520    -0.5436990    -0.8908890
  H        2.4236260     1.0030860    -0.0000880
  H       -2.4195430     1.2372430     0.0000190
  H       -2.1602880    -1.5037500    -0.0000180
units angstrom
no_reorient  #important for SAPT in psi4, default
symmetry c1  #important for SAPT in psi4, default
}

set PROPERTIES_ORIGIN ["COM"]
properties('MP2/aug-cc-pvtz', properties = ['dipole'])
--------------------------------------------------------------------------

    Molecular point group: c1
  Charge       = 0
  Multiplicity = 1
  Basis Set: AUG-CC-PVTZ
    Blend: AUG-CC-PVTZ
  Basis Set: (AUG-CC-PVTZ AUX)
    Blend: AUG-CC-PVTZ-JKFIT

    Orbital Energies [Eh]
    ---------------------

    Doubly Occupied:

       1A    -15.641333     2A    -15.581573     3A    -11.275025
       4A    -11.274326     5A    -11.250069     6A    -11.218877
       7A     -1.370276     8A     -1.112618     9A     -1.053620
      10A     -0.946882    11A     -0.802798    12A     -0.771143
      13A     -0.712527    14A     -0.649535    15A     -0.613386
      16A     -0.576909    17A     -0.570545    18A     -0.548514
      19A     -0.547119    20A     -0.455313    21A     -0.348718
      22A     -0.340080

  @DF-RHF Final Energy:  -263.91793753474417

   => Energetics <=

    Nuclear Repulsion Energy =            225.8588444247148459
    One-Electron Energy =                -804.2311929694094488
    Two-Electron Energy =                 314.4544110099504906
    Total Energy =                       -263.9179375347441692
  Basis Set: (AUG-CC-PVTZ AUX)
    Blend: AUG-CC-PVTZ-RI
    Molecular point group: c1

    Geometry (in Angstrom), charge = 0, multiplicity = 1:

       Center              X                  Y                   Z               Mass
    ------------   -----------------  -----------------  -----------------  -----------------
         N            0.627712519742     0.045624726032    -0.000009553169    14.003074004430
         N           -0.060096480258    -1.113803273968    -0.000016553169    14.003074004430
         C           -0.178617480258     1.143055726032     0.000023446831    12.000000000000
         C            2.097614219742     0.000702826032    -0.000005453169    12.000000000000
         C           -1.481822480258     0.670088726032     0.000015446831    12.000000000000
         C           -1.353523480258    -0.727080273968    -0.000005553169    12.000000000000
         H            0.229895519742     2.144567726032     0.000047446831     1.007825032230
         H            2.428212519742    -0.521996273968     0.890957446831     1.007825032230
         H            2.428202519742    -0.522137273968    -0.890888553169     1.007825032230
         H            2.454976519742     1.024647726032    -0.000087553169     1.007825032230
         H           -2.388192480258     1.258804726032     0.000019446831     1.007825032230
         H           -2.128937480258    -1.482188273968    -0.000017553169     1.007825032230

  Basis Set: AUG-CC-PVTZ
    Blend: AUG-CC-PVTZ
  Basis Set: (AUG-CC-PVTZ AUX)
    Blend: AUG-CC-PVTZ-JKFIT
	 Reference Energy          =    -263.9179375347441692 [Eh]
	 Singles Energy            =      -0.0000000000000000 [Eh]
	 Same-Spin Energy          =      -0.2882713207806161 [Eh]
	 Opposite-Spin Energy      =      -0.9015126451626095 [Eh]
	 Correlation Energy        =      -1.1897839659432257 [Eh]
	 Total Energy              =    -265.1077215006873757 [Eh]

	 ================> DF-SCS-MP2 Energies <==================
	-----------------------------------------------------------
	 SCS Same-Spin Scale       =       0.3333333333333333 [-]
	 SCS Opposite-Spin Scale   =       1.2000000000000000 [-]
	 SCS Same-Spin Energy      =      -0.0960904402602054 [Eh]
	 SCS Opposite-Spin Energy  =      -1.0818151741951314 [Eh]
	 SCS Correlation Energy    =      -1.1779056144553368 [Eh]
	 SCS Total Energy          =    -265.0958431491994816 [Eh]
	-----------------------------------------------------------

  Dipole Moment: [D]
     X:     1.4008      Y:     2.0531      Z:     0.0000     Total:     2.4854

*** Psi4 exiting successfully. Buy a developer a beer!
