                               Psi4 1.4a3.dev225

  ==> Input File <==

--------------------------------------------------------------------------
#psi4
#
memory 32 gb

molecule  {
0 1
  N        0.5963620     0.0240630    -0.0000100
  N       -0.0914470    -1.1353650    -0.0000170
  C       -0.2099680     1.1214940     0.0000230
  C        2.0462730    -0.0202480    -0.0000060
  C       -1.5131730     0.6485270     0.0000150
  C       -1.3848740    -0.7486420    -0.0000060
  H        0.1985450     2.1230060     0.0000470
  H        2.3968620    -0.5435580     0.8909570
  H        2.3968520    -0.5436990    -0.8908890
  H        2.4236260     1.0030860    -0.0000880
  H       -2.5034053     1.2917142     0.0000194
  H       -2.1602880    -1.5037500    -0.0000180
units angstrom
no_reorient  #important for SAPT in psi4, default
symmetry c1  #important for SAPT in psi4, default
}

set PROPERTIES_ORIGIN ["COM"]
properties('MP2/aug-cc-pvtz', properties = ['dipole'])
--------------------------------------------------------------------------

    Molecular point group: c1
  Charge       = 0
  Multiplicity = 1
  Basis Set: AUG-CC-PVTZ
    Blend: AUG-CC-PVTZ
  Basis Set: (AUG-CC-PVTZ AUX)
    Blend: AUG-CC-PVTZ-JKFIT

    Orbital Energies [Eh]
    ---------------------

    Doubly Occupied:

       1A    -15.642355     2A    -15.582898     3A    -11.276036
       4A    -11.274810     5A    -11.251867     6A    -11.230570
       7A     -1.373428     8A     -1.116680     9A     -1.053730
      10A     -0.944433    11A     -0.798869    12A     -0.772918
      13A     -0.709746    14A     -0.650591    15A     -0.605984
      16A     -0.576739    17A     -0.566091    18A     -0.545762
      19A     -0.541774    20A     -0.456109    21A     -0.349685
      22A     -0.341339

  @DF-RHF Final Energy:  -263.91082534581403

   => Energetics <=

    Nuclear Repulsion Energy =            225.7552540013632836
    One-Electron Energy =                -804.0073293379987263
    Two-Electron Energy =                 314.3412499908214386
    Total Energy =                       -263.9108253458140325
  Basis Set: (AUG-CC-PVTZ AUX)
    Blend: AUG-CC-PVTZ-RI
    Molecular point group: c1

    Geometry (in Angstrom), charge = 0, multiplicity = 1:

       Center              X                  Y                   Z               Mass
    ------------   -----------------  -----------------  -----------------  -----------------
         N            0.631666141632     0.044866336157    -0.000009543457    14.003074004430
         N           -0.056142858368    -1.114561663843    -0.000016543457    14.003074004430
         C           -0.174663858368     1.142297336157     0.000023456543    12.000000000000
         C            2.081577141632     0.000555336157    -0.000005543457    12.000000000000
         C           -1.477868858368     0.669330336157     0.000015456543    12.000000000000
         C           -1.349569858368    -0.727838663843    -0.000005543457    12.000000000000
         H            0.233849141632     2.143809336157     0.000047456543     1.007825032230
         H            2.432166141632    -0.522754663843     0.890957456543     1.007825032230
         H            2.432156141632    -0.522895663843    -0.890888543457     1.007825032230
         H            2.458930141632     1.023889336157    -0.000087543457     1.007825032230
         H           -2.468101158368     1.312517536157     0.000019856543     1.007825032230
         H           -2.124983858368    -1.482946663843    -0.000017543457     1.007825032230

  Basis Set: AUG-CC-PVTZ
    Blend: AUG-CC-PVTZ
  Basis Set: (AUG-CC-PVTZ AUX)
    Blend: AUG-CC-PVTZ-JKFIT
	 Reference Energy          =    -263.9108253458140325 [Eh]
	 Singles Energy            =      -0.0000000000000000 [Eh]
	 Same-Spin Energy          =      -0.2885014586705705 [Eh]
	 Opposite-Spin Energy      =      -0.9022049998877226 [Eh]
	 Correlation Energy        =      -1.1907064585582932 [Eh]
	 Total Energy              =    -265.1015318043723141 [Eh]

	 ================> DF-SCS-MP2 Energies <==================
	-----------------------------------------------------------
	 SCS Same-Spin Scale       =       0.3333333333333333 [-]
	 SCS Opposite-Spin Scale   =       1.2000000000000000 [-]
	 SCS Same-Spin Energy      =      -0.0961671528901902 [Eh]
	 SCS Opposite-Spin Energy  =      -1.0826459998652671 [Eh]
	 SCS Correlation Energy    =      -1.1788131527554573 [Eh]
	 SCS Total Energy          =    -265.0896384985695136 [Eh]
	-----------------------------------------------------------

  Dipole Moment: [D]
     X:     1.3547      Y:     2.0454      Z:     0.0000     Total:     2.4533

*** Psi4 exiting successfully. Buy a developer a beer!
