                               Psi4 1.4a3.dev225

  ==> Input File <==

--------------------------------------------------------------------------
#psi4
#
memory 32 gb

molecule  {
0 1
  N        0.5963620     0.0240630    -0.0000100
  N       -0.0914470    -1.1353650    -0.0000170
  C       -0.2395731     1.1617871     0.0000242
  C        2.0462730    -0.0202480    -0.0000060
  C       -1.5131730     0.6485270     0.0000150
  C       -1.3848740    -0.7486420    -0.0000060
  H        0.1985450     2.1230060     0.0000470
  H        2.3968620    -0.5435580     0.8909570
  H        2.3968520    -0.5436990    -0.8908890
  H        2.4236260     1.0030860    -0.0000880
  H       -2.4195430     1.2372430     0.0000190
  H       -2.1602880    -1.5037500    -0.0000180
units angstrom
no_reorient  #important for SAPT in psi4, default
symmetry c1  #important for SAPT in psi4, default
}

set PROPERTIES_ORIGIN ["COM"]
properties('MP2/aug-cc-pvtz', properties = ['dipole'])
--------------------------------------------------------------------------

    Molecular point group: c1
  Charge       = 0
  Multiplicity = 1
  Basis Set: AUG-CC-PVTZ
    Blend: AUG-CC-PVTZ
  Basis Set: (AUG-CC-PVTZ AUX)
    Blend: AUG-CC-PVTZ-JKFIT

    Orbital Energies [Eh]
    ---------------------

    Doubly Occupied:

       1A    -15.638905     2A    -15.587625     3A    -11.275645
       4A    -11.272091     5A    -11.250832     6A    -11.222526
       7A     -1.363882     8A     -1.111650     9A     -1.055605
      10A     -0.940517    11A     -0.802717    12A     -0.774710
      13A     -0.713654    14A     -0.644790    15A     -0.612317
      16A     -0.584457    17A     -0.569381    18A     -0.545102
      19A     -0.542082    20A     -0.457676    21A     -0.347960
      22A     -0.341434

  @DF-RHF Final Energy:  -263.91338674169583

   => Energetics <=

    Nuclear Repulsion Energy =            225.4213609418742124
    One-Electron Energy =                -803.3583798480381120
    Two-Electron Energy =                 314.0236321644680402
    Total Energy =                       -263.9133867416958310
  Basis Set: (AUG-CC-PVTZ AUX)
    Blend: AUG-CC-PVTZ-RI
    Molecular point group: c1

    Geometry (in Angstrom), charge = 0, multiplicity = 1:

       Center              X                  Y                   Z               Mass
    ------------   -----------------  -----------------  -----------------  -----------------
         N            0.634965744947     0.039642648442    -0.000009714040    14.003074004430
         N           -0.052843255053    -1.119785351558    -0.000016714040    14.003074004430
         C           -0.200969355053     1.177366748442     0.000024485960    12.000000000000
         C            2.084876744947    -0.004668351558    -0.000005714040    12.000000000000
         C           -1.474569255053     0.664106648442     0.000015285960    12.000000000000
         C           -1.346270255053    -0.733062351558    -0.000005714040    12.000000000000
         H            0.237148744947     2.138585648442     0.000047285960     1.007825032230
         H            2.435465744947    -0.527978351558     0.890957285960     1.007825032230
         H            2.435455744947    -0.528119351558    -0.890888714040     1.007825032230
         H            2.462229744947     1.018665648442    -0.000087714040     1.007825032230
         H           -2.380939255053     1.252822648442     0.000019285960     1.007825032230
         H           -2.121684255053    -1.488170351558    -0.000017714040     1.007825032230

  Basis Set: AUG-CC-PVTZ
    Blend: AUG-CC-PVTZ
  Basis Set: (AUG-CC-PVTZ AUX)
    Blend: AUG-CC-PVTZ-JKFIT
	 Reference Energy          =    -263.9133867416958310 [Eh]
	 Singles Energy            =      -0.0000000000000000 [Eh]
	 Same-Spin Energy          =      -0.2887566045190953 [Eh]
	 Opposite-Spin Energy      =      -0.9028261262991110 [Eh]
	 Correlation Energy        =      -1.1915827308182063 [Eh]
	 Total Energy              =    -265.1049694725140284 [Eh]

	 ================> DF-SCS-MP2 Energies <==================
	-----------------------------------------------------------
	 SCS Same-Spin Scale       =       0.3333333333333333 [-]
	 SCS Opposite-Spin Scale   =       1.2000000000000000 [-]
	 SCS Same-Spin Energy      =      -0.0962522015063651 [Eh]
	 SCS Opposite-Spin Energy  =      -1.0833913515589331 [Eh]
	 SCS Correlation Energy    =      -1.1796435530652982 [Eh]
	 SCS Total Energy          =    -265.0930302947611494 [Eh]
	-----------------------------------------------------------

  Dipole Moment: [D]
     X:     1.2572      Y:     2.0625      Z:     0.0000     Total:     2.4155

*** Psi4 exiting successfully. Buy a developer a beer!
