                               Psi4 1.4a3.dev225

  ==> Input File <==

--------------------------------------------------------------------------
#psi4
#
memory 32 gb

molecule  {
0 1
  N        0.5963620     0.0240630    -0.0000100
  N       -0.0914470    -1.1353650    -0.0000170
  C       -0.3283885     1.2826666     0.0000278
  C        2.0462730    -0.0202480    -0.0000060
  C       -1.5131730     0.6485270     0.0000150
  C       -1.3848740    -0.7486420    -0.0000060
  H        0.1985450     2.1230060     0.0000470
  H        2.3968620    -0.5435580     0.8909570
  H        2.3968520    -0.5436990    -0.8908890
  H        2.4236260     1.0030860    -0.0000880
  H       -2.4195430     1.2372430     0.0000190
  H       -2.1602880    -1.5037500    -0.0000180
units angstrom
no_reorient  #important for SAPT in psi4, default
symmetry c1  #important for SAPT in psi4, default
}

set PROPERTIES_ORIGIN ["COM"]
properties('MP2/aug-cc-pvtz', properties = ['dipole'])
--------------------------------------------------------------------------

    Molecular point group: c1
  Charge       = 0
  Multiplicity = 1
  Basis Set: AUG-CC-PVTZ
    Blend: AUG-CC-PVTZ
  Basis Set: (AUG-CC-PVTZ AUX)
    Blend: AUG-CC-PVTZ-JKFIT

    Orbital Energies [Eh]
    ---------------------

    Doubly Occupied:

       1A    -15.628461     2A    -15.602394     3A    -11.279697
       4A    -11.265425     5A    -11.250342     6A    -11.233118
       7A     -1.345176     8A     -1.101955     9A     -1.059055
      10A     -0.928816    11A     -0.811564    12A     -0.772621
      13A     -0.710424    14A     -0.632170    15A     -0.625380
      16A     -0.598737    17A     -0.558136    18A     -0.534707
      19A     -0.528091    20A     -0.456634    21A     -0.364116
      22A     -0.325935

  @DF-RHF Final Energy:  -263.87381376441965

   => Energetics <=

    Nuclear Repulsion Energy =            223.2263507886345337
    One-Electron Energy =                -798.9744195808683571
    Two-Electron Energy =                 311.8742550278142289
    Total Energy =                       -263.8738137644196513
  Basis Set: (AUG-CC-PVTZ AUX)
    Blend: AUG-CC-PVTZ-RI
    Molecular point group: c1

    Geometry (in Angstrom), charge = 0, multiplicity = 1:

       Center              X                  Y                   Z               Mass
    ------------   -----------------  -----------------  -----------------  -----------------
         N            0.647954709695     0.021964412863    -0.000010240528    14.003074004430
         N           -0.039854290305    -1.137463587137    -0.000017240528    14.003074004430
         C           -0.276795790305     1.280568012863     0.000027559472    12.000000000000
         C            2.097865709695    -0.022346587137    -0.000006240528    12.000000000000
         C           -1.461580290305     0.646428412863     0.000014759472    12.000000000000
         C           -1.333281290305    -0.750740587137    -0.000006240528    12.000000000000
         H            0.250137709695     2.120907412863     0.000046759472     1.007825032230
         H            2.448454709695    -0.545656587137     0.890956759472     1.007825032230
         H            2.448444709695    -0.545797587137    -0.890889240528     1.007825032230
         H            2.475218709695     1.000987412863    -0.000088240528     1.007825032230
         H           -2.367950290305     1.235144412863     0.000018759472     1.007825032230
         H           -2.108695290305    -1.505848587137    -0.000018240528     1.007825032230

  Basis Set: AUG-CC-PVTZ
    Blend: AUG-CC-PVTZ
  Basis Set: (AUG-CC-PVTZ AUX)
    Blend: AUG-CC-PVTZ-JKFIT
	 Reference Energy          =    -263.8738137644196513 [Eh]
	 Singles Energy            =      -0.0000000000000000 [Eh]
	 Same-Spin Energy          =      -0.2902936605526064 [Eh]
	 Opposite-Spin Energy      =      -0.9076773408841605 [Eh]
	 Correlation Energy        =      -1.1979710014367670 [Eh]
	 Total Energy              =    -265.0717847658564210 [Eh]

	 ================> DF-SCS-MP2 Energies <==================
	-----------------------------------------------------------
	 SCS Same-Spin Scale       =       0.3333333333333333 [-]
	 SCS Opposite-Spin Scale   =       1.2000000000000000 [-]
	 SCS Same-Spin Energy      =      -0.0967645535175355 [Eh]
	 SCS Opposite-Spin Energy  =      -1.0892128090609925 [Eh]
	 SCS Correlation Energy    =      -1.1859773625785279 [Eh]
	 SCS Total Energy          =    -265.0597911269981637 [Eh]
	-----------------------------------------------------------

  Dipole Moment: [D]
     X:     1.0330      Y:     2.0932      Z:     0.0000     Total:     2.3342

*** Psi4 exiting successfully. Buy a developer a beer!
