                               Psi4 1.4a3.dev225

  ==> Input File <==

--------------------------------------------------------------------------
#psi4
#
memory 32 gb

molecule  {
0 1
  N        0.5963620     0.0240630    -0.0000100
  N       -0.0914470    -1.1353650    -0.0000170
  C       -0.2099680     1.1214940     0.0000230
  C        2.0462730    -0.0202480    -0.0000060
  C       -1.5131730     0.6485270     0.0000150
  C       -1.3848740    -0.7486420    -0.0000060
  H        0.1985450     2.1230060     0.0000470
  H        2.3968620    -0.5435580     0.8909570
  H        2.3968520    -0.5436990    -0.8908890
  H        2.4236260     1.0030860    -0.0000880
  H       -2.5872676     1.3461854     0.0000197
  H       -2.1602880    -1.5037500    -0.0000180
units angstrom
no_reorient  #important for SAPT in psi4, default
symmetry c1  #important for SAPT in psi4, default
}

set PROPERTIES_ORIGIN ["COM"]
properties('MP2/aug-cc-pvtz', properties = ['dipole'])
--------------------------------------------------------------------------

    Molecular point group: c1
  Charge       = 0
  Multiplicity = 1
  Basis Set: AUG-CC-PVTZ
    Blend: AUG-CC-PVTZ
  Basis Set: (AUG-CC-PVTZ AUX)
    Blend: AUG-CC-PVTZ-JKFIT

    Orbital Energies [Eh]
    ---------------------

    Doubly Occupied:

       1A    -15.643129     2A    -15.583784     3A    -11.277170
       4A    -11.275304     5A    -11.253050     6A    -11.240584
       7A     -1.374312     8A     -1.117346     9A     -1.053442
      10A     -0.943936    11A     -0.795747    12A     -0.773616
      13A     -0.706517    14A     -0.651258    15A     -0.603073
      16A     -0.575618    17A     -0.560832    18A     -0.546470
      19A     -0.532531    20A     -0.455844    21A     -0.350452
      22A     -0.342179

  @DF-RHF Final Energy:  -263.89547587093995

   => Energetics <=

    Nuclear Repulsion Energy =            225.3555174873538363
    One-Electron Energy =                -803.1895977186082973
    Two-Electron Energy =                 313.9386043603145140
    Total Energy =                       -263.8954758709399471
  Basis Set: (AUG-CC-PVTZ AUX)
    Blend: AUG-CC-PVTZ-RI
    Molecular point group: c1

    Geometry (in Angstrom), charge = 0, multiplicity = 1:

       Center              X                  Y                   Z               Mass
    ------------   -----------------  -----------------  -----------------  -----------------
         N            0.632696188359     0.044197288430    -0.000009547142    14.003074004430
         N           -0.055112811641    -1.115230711570    -0.000016547142    14.003074004430
         C           -0.173633811641     1.141628288430     0.000023452858    12.000000000000
         C            2.082607188359    -0.000113711570    -0.000005547142    12.000000000000
         C           -1.476838811641     0.668661288430     0.000015452858    12.000000000000
         C           -1.348539811641    -0.728507711570    -0.000005547142    12.000000000000
         H            0.234879188359     2.143140288430     0.000047452858     1.007825032230
         H            2.433196188359    -0.523423711570     0.890957452858     1.007825032230
         H            2.433186188359    -0.523564711570    -0.890888547142     1.007825032230
         H            2.459960188359     1.023220288430    -0.000087547142     1.007825032230
         H           -2.550933411641     1.366319688430     0.000020152858     1.007825032230
         H           -2.123953811641    -1.483615711570    -0.000017547142     1.007825032230

  Basis Set: AUG-CC-PVTZ
    Blend: AUG-CC-PVTZ
  Basis Set: (AUG-CC-PVTZ AUX)
    Blend: AUG-CC-PVTZ-JKFIT
	 Reference Energy          =    -263.8954758709399471 [Eh]
	 Singles Energy            =      -0.0000000000000000 [Eh]
	 Same-Spin Energy          =      -0.2887103262081452 [Eh]
	 Opposite-Spin Energy      =      -0.9033140370130383 [Eh]
	 Correlation Energy        =      -1.1920243632211833 [Eh]
	 Total Energy              =    -265.0875002341611548 [Eh]

	 ================> DF-SCS-MP2 Energies <==================
	-----------------------------------------------------------
	 SCS Same-Spin Scale       =       0.3333333333333333 [-]
	 SCS Opposite-Spin Scale   =       1.2000000000000000 [-]
	 SCS Same-Spin Energy      =      -0.0962367754027151 [Eh]
	 SCS Opposite-Spin Energy  =      -1.0839768444156459 [Eh]
	 SCS Correlation Energy    =      -1.1802136198183610 [Eh]
	 SCS Total Energy          =    -265.0756894907582932 [Eh]
	-----------------------------------------------------------

  Dipole Moment: [D]
     X:     1.3789      Y:     2.0272      Z:     0.0000     Total:     2.4517

*** Psi4 exiting successfully. Buy a developer a beer!
