                               Psi4 1.4a3.dev225

  ==> Input File <==

--------------------------------------------------------------------------
#psi4
#
memory 32 gb

molecule  {
0 1
  N        0.5963620     0.0240630    -0.0000100
  N       -0.0914470    -1.1353650    -0.0000170
  C       -0.2099680     1.1214940     0.0000230
  C        2.0462730    -0.0202480    -0.0000060
  C       -1.5131730     0.6485270     0.0000150
  C       -1.3848740    -0.7486420    -0.0000060
  H        0.1985450     2.1230060     0.0000470
  H        2.3968620    -0.5435580     0.8909570
  H        2.3325926    -0.4477530    -0.7275945
  H        2.4236260     1.0030860    -0.0000880
  H       -2.4195430     1.2372430     0.0000190
  H       -2.1602880    -1.5037500    -0.0000180
units angstrom
no_reorient  #important for SAPT in psi4, default
symmetry c1  #important for SAPT in psi4, default
}

set PROPERTIES_ORIGIN ["COM"]
properties('MP2/aug-cc-pvtz', properties = ['dipole'])
--------------------------------------------------------------------------

    Molecular point group: c1
  Charge       = 0
  Multiplicity = 1
  Basis Set: AUG-CC-PVTZ
    Blend: AUG-CC-PVTZ
  Basis Set: (AUG-CC-PVTZ AUX)
    Blend: AUG-CC-PVTZ-JKFIT

    Orbital Energies [Eh]
    ---------------------

    Doubly Occupied:

       1A    -15.640492     2A    -15.581895     3A    -11.274175
       4A    -11.251154     5A    -11.250157     6A    -11.218865
       7A     -1.372388     8A     -1.121070     9A     -1.055531
      10A     -0.965121    11A     -0.803450    12A     -0.777836
      13A     -0.719024    14A     -0.667881    15A     -0.617290
      16A     -0.582528    17A     -0.572148    18A     -0.557900
      19A     -0.544697    20A     -0.455796    21A     -0.349476
      22A     -0.340319

  @DF-RHF Final Energy:  -263.88380480715563

   => Energetics <=

    Nuclear Repulsion Energy =            227.1935945964122254
    One-Electron Energy =                -806.7164154052477443
    Two-Electron Energy =                 315.6390160016798632
    Total Energy =                       -263.8838048071556273
  Basis Set: (AUG-CC-PVTZ AUX)
    Blend: AUG-CC-PVTZ-RI
    Molecular point group: c1

    Geometry (in Angstrom), charge = 0, multiplicity = 1:

       Center              X                  Y                   Z               Mass
    ------------   -----------------  -----------------  -----------------  -----------------
         N            0.631425367137     0.044356917957    -0.002015218870    14.003074004430
         N           -0.056383632863    -1.115071082043    -0.002022218870    14.003074004430
         C           -0.174904632863     1.141787917957    -0.001982218870    12.000000000000
         C            2.081336367137     0.000045917957    -0.002011218870    12.000000000000
         C           -1.478109632863     0.668820917957    -0.001990218870    12.000000000000
         C           -1.349810632863    -0.728348082043    -0.002011218870    12.000000000000
         H            0.233608367137     2.143299917957    -0.001958218870     1.007825032230
         H            2.431925367137    -0.523264082043     0.888951781130     1.007825032230
         H            2.367655967137    -0.427459082043    -0.729599718870     1.007825032230
         H            2.458689367137     1.023379917957    -0.002093218870     1.007825032230
         H           -2.384479632863     1.257536917957    -0.001986218870     1.007825032230
         H           -2.125224632863    -1.483456082043    -0.002023218870     1.007825032230

  Basis Set: AUG-CC-PVTZ
    Blend: AUG-CC-PVTZ
  Basis Set: (AUG-CC-PVTZ AUX)
    Blend: AUG-CC-PVTZ-JKFIT
	 Reference Energy          =    -263.8838048071556273 [Eh]
	 Singles Energy            =      -0.0000000000000000 [Eh]
	 Same-Spin Energy          =      -0.2884044473593192 [Eh]
	 Opposite-Spin Energy      =      -0.9008240873169548 [Eh]
	 Correlation Energy        =      -1.1892285346762741 [Eh]
	 Total Energy              =    -265.0730333418318878 [Eh]

	 ================> DF-SCS-MP2 Energies <==================
	-----------------------------------------------------------
	 SCS Same-Spin Scale       =       0.3333333333333333 [-]
	 SCS Opposite-Spin Scale   =       1.2000000000000000 [-]
	 SCS Same-Spin Energy      =      -0.0961348157864397 [Eh]
	 SCS Opposite-Spin Energy  =      -1.0809889047803458 [Eh]
	 SCS Correlation Energy    =      -1.1771237205667855 [Eh]
	 SCS Total Energy          =    -265.0609285277224103 [Eh]
	-----------------------------------------------------------

  Dipole Moment: [D]
     X:     1.4048      Y:     2.0568      Z:    -0.0172     Total:     2.4908

*** Psi4 exiting successfully. Buy a developer a beer!
