                               Psi4 1.4a3.dev225

  ==> Input File <==

--------------------------------------------------------------------------
#psi4
#
memory 32 gb

molecule  {
0 1
  N        0.5963620     0.0240630    -0.0000100
  N       -0.0914470    -1.1353650    -0.0000170
  C       -0.2099680     1.1214940     0.0000230
  C        2.0462730    -0.0202480    -0.0000060
  C       -1.5131730     0.6485270     0.0000150
  C       -1.3848740    -0.7486420    -0.0000060
  H        0.1985450     2.1230060     0.0000470
  H        2.3968620    -0.5435580     0.8909570
  H        2.3968520    -0.5436990    -0.8908890
  H        2.4305455     1.0218509    -0.0000895
  H       -2.4195430     1.2372430     0.0000190
  H       -2.1602880    -1.5037500    -0.0000180
units angstrom
no_reorient  #important for SAPT in psi4, default
symmetry c1  #important for SAPT in psi4, default
}

set PROPERTIES_ORIGIN ["COM"]
properties('MP2/aug-cc-pvtz', properties = ['dipole'])
--------------------------------------------------------------------------

    Molecular point group: c1
  Charge       = 0
  Multiplicity = 1
  Basis Set: AUG-CC-PVTZ
    Blend: AUG-CC-PVTZ
  Basis Set: (AUG-CC-PVTZ AUX)
    Blend: AUG-CC-PVTZ-JKFIT

    Orbital Energies [Eh]
    ---------------------

    Doubly Occupied:

       1A    -15.641919     2A    -15.582304     3A    -11.276792
       4A    -11.275212     5A    -11.251037     6A    -11.219648
       7A     -1.372812     8A     -1.115880     9A     -1.054820
      10A     -0.944229    11A     -0.803946    12A     -0.772207
      13A     -0.713959    14A     -0.650262    15A     -0.610951
      16A     -0.581286    17A     -0.569031    18A     -0.545382
      19A     -0.543866    20A     -0.456295    21A     -0.349206
      22A     -0.340825

  @DF-RHF Final Energy:  -263.91784720451278

   => Energetics <=

    Nuclear Repulsion Energy =            226.1211217903105251
    One-Electron Energy =                -804.7341987264696854
    Two-Electron Energy =                 314.6952297316463500
    Total Energy =                       -263.9178472045127819
  Basis Set: (AUG-CC-PVTZ AUX)
    Blend: AUG-CC-PVTZ-RI
    Molecular point group: c1

    Geometry (in Angstrom), charge = 0, multiplicity = 1:

       Center              X                  Y                   Z               Mass
    ------------   -----------------  -----------------  -----------------  -----------------
         N            0.630551105485     0.045304902205    -0.000009520120    14.003074004430
         N           -0.057257894515    -1.114123097795    -0.000016520120    14.003074004430
         C           -0.175778894515     1.142735902205     0.000023479880    12.000000000000
         C            2.080462105485     0.000993902205    -0.000005520120    12.000000000000
         C           -1.478983894515     0.669768902205     0.000015479880    12.000000000000
         C           -1.350684894515    -0.727400097795    -0.000005520120    12.000000000000
         H            0.232734105485     2.144247902205     0.000047479880     1.007825032230
         H            2.431051105485    -0.522316097795     0.890957479880     1.007825032230
         H            2.431041105485    -0.522457097795    -0.890888520120     1.007825032230
         H            2.464734605485     1.043092802205    -0.000089020120     1.007825032230
         H           -2.385353894515     1.258484902205     0.000019479880     1.007825032230
         H           -2.126098894515    -1.482508097795    -0.000017520120     1.007825032230

  Basis Set: AUG-CC-PVTZ
    Blend: AUG-CC-PVTZ
  Basis Set: (AUG-CC-PVTZ AUX)
    Blend: AUG-CC-PVTZ-JKFIT
	 Reference Energy          =    -263.9178472045127819 [Eh]
	 Singles Energy            =      -0.0000000000000000 [Eh]
	 Same-Spin Energy          =      -0.2883327444974340 [Eh]
	 Opposite-Spin Energy      =      -0.9015765961521889 [Eh]
	 Correlation Energy        =      -1.1899093406496228 [Eh]
	 Total Energy              =    -265.1077565451624309 [Eh]

	 ================> DF-SCS-MP2 Energies <==================
	-----------------------------------------------------------
	 SCS Same-Spin Scale       =       0.3333333333333333 [-]
	 SCS Opposite-Spin Scale   =       1.2000000000000000 [-]
	 SCS Same-Spin Energy      =      -0.0961109148324780 [Eh]
	 SCS Opposite-Spin Energy  =      -1.0818919153826265 [Eh]
	 SCS Correlation Energy    =      -1.1780028302151044 [Eh]
	 SCS Total Energy          =    -265.0958500347279028 [Eh]
	-----------------------------------------------------------

  Dipole Moment: [D]
     X:     1.3344      Y:     2.0526      Z:     0.0000     Total:     2.4482

*** Psi4 exiting successfully. Buy a developer a beer!
