                               Psi4 1.4a3.dev225

  ==> Input File <==

--------------------------------------------------------------------------
#psi4
#
memory 32 gb

molecule  {
0 1
  N        0.5963620     0.0240630    -0.0000100
  N       -0.0914470    -1.1353650    -0.0000170
  C       -0.2099680     1.1214940     0.0000230
  C        2.0462730    -0.0202480    -0.0000060
  C       -1.5131730     0.6485270     0.0000150
  C       -1.3848740    -0.7486420    -0.0000060
  H        0.1985450     2.1230060     0.0000470
  H        2.3968620    -0.5435580     0.8909570
  H        2.3968520    -0.5436990    -0.8908890
  H        2.4236260     1.0030860    -0.0000880
  H       -2.4195430     1.2372430     0.0000190
  H       -2.1746165    -1.5177033    -0.0000182
units angstrom
no_reorient  #important for SAPT in psi4, default
symmetry c1  #important for SAPT in psi4, default
}

set PROPERTIES_ORIGIN ["COM"]
properties('MP2/aug-cc-pvtz', properties = ['dipole'])
--------------------------------------------------------------------------

    Molecular point group: c1
  Charge       = 0
  Multiplicity = 1
  Basis Set: AUG-CC-PVTZ
    Blend: AUG-CC-PVTZ
  Basis Set: (AUG-CC-PVTZ AUX)
    Blend: AUG-CC-PVTZ-JKFIT

    Orbital Energies [Eh]
    ---------------------

    Doubly Occupied:

       1A    -15.641866     2A    -15.582305     3A    -11.275299
       4A    -11.274498     5A    -11.253183     6A    -11.219794
       7A     -1.372843     8A     -1.116060     9A     -1.054904
      10A     -0.945090    11A     -0.803170    12A     -0.771457
      13A     -0.713486    14A     -0.650159    15A     -0.611632
      16A     -0.580943    17A     -0.569365    18A     -0.545301
      19A     -0.543941    20A     -0.456145    21A     -0.349188
      22A     -0.340876

  @DF-RHF Final Energy:  -263.91774866265280

   => Energetics <=

    Nuclear Repulsion Energy =            226.1086208263458559
    One-Electron Energy =                -804.7097313944492498
    Two-Electron Energy =                 314.6833619054506244
    Total Energy =                       -263.9177486626527980
  Basis Set: (AUG-CC-PVTZ AUX)
    Blend: AUG-CC-PVTZ-RI
    Molecular point group: c1

    Geometry (in Angstrom), charge = 0, multiplicity = 1:

       Center              X                  Y                   Z               Mass
    ------------   -----------------  -----------------  -----------------  -----------------
         N            0.630812086078     0.045706766628    -0.000009536087    14.003074004430
         N           -0.056996913922    -1.113721233372    -0.000016536087    14.003074004430
         C           -0.175517913922     1.143137766628     0.000023463913    12.000000000000
         C            2.080723086078     0.001395766628    -0.000005536087    12.000000000000
         C           -1.478722913922     0.670170766628     0.000015463913    12.000000000000
         C           -1.350423913922    -0.726998233372    -0.000005536087    12.000000000000
         H            0.232995086078     2.144649766628     0.000047463913     1.007825032230
         H            2.431312086078    -0.521914233372     0.890957463913     1.007825032230
         H            2.431302086078    -0.522055233372    -0.890888536087     1.007825032230
         H            2.458076086078     1.024729766628    -0.000087536087     1.007825032230
         H           -2.385092913922     1.258886766628     0.000019463913     1.007825032230
         H           -2.140166413922    -1.496059533372    -0.000017736087     1.007825032230

  Basis Set: AUG-CC-PVTZ
    Blend: AUG-CC-PVTZ
  Basis Set: (AUG-CC-PVTZ AUX)
    Blend: AUG-CC-PVTZ-JKFIT
	 Reference Energy          =    -263.9177486626527980 [Eh]
	 Singles Energy            =      -0.0000000000000000 [Eh]
	 Same-Spin Energy          =      -0.2883580116874976 [Eh]
	 Opposite-Spin Energy      =      -0.9015646543442718 [Eh]
	 Correlation Energy        =      -1.1899226660317694 [Eh]
	 Total Energy              =    -265.1076713286845461 [Eh]

	 ================> DF-SCS-MP2 Energies <==================
	-----------------------------------------------------------
	 SCS Same-Spin Scale       =       0.3333333333333333 [-]
	 SCS Opposite-Spin Scale   =       1.2000000000000000 [-]
	 SCS Same-Spin Energy      =      -0.0961193372291659 [Eh]
	 SCS Opposite-Spin Energy  =      -1.0818775852131262 [Eh]
	 SCS Correlation Energy    =      -1.1779969224422919 [Eh]
	 SCS Total Energy          =    -265.0957455850950737 [Eh]
	-----------------------------------------------------------

  Dipole Moment: [D]
     X:     1.3435      Y:     2.0590      Z:     0.0000     Total:     2.4586

*** Psi4 exiting successfully. Buy a developer a beer!
