                               Psi4 1.4a3.dev225

  ==> Input File <==

--------------------------------------------------------------------------
#psi4
#
memory 32 gb

molecule  {
0 1
  N        0.5963620     0.0240630    -0.0000100
  N       -0.0914470    -1.1353650    -0.0000170
  C       -0.2099680     1.1214940     0.0000230
  C        2.0462730    -0.0202480    -0.0000060
  C       -1.4943728     0.6553501     0.0000151
  C       -1.3848740    -0.7486420    -0.0000060
  H        0.1985450     2.1230060     0.0000470
  H        2.3968620    -0.5435580     0.8909570
  H        2.3968520    -0.5436990    -0.8908890
  H        2.4236260     1.0030860    -0.0000880
  H       -2.4195430     1.2372430     0.0000190
  H       -2.1602880    -1.5037500    -0.0000180
units angstrom
no_reorient  #important for SAPT in psi4, default
symmetry c1  #important for SAPT in psi4, default
}

set PROPERTIES_ORIGIN ["COM"]
properties('MP2/aug-cc-pvtz', properties = ['dipole'])
--------------------------------------------------------------------------

    Molecular point group: c1
  Charge       = 0
  Multiplicity = 1
  Basis Set: AUG-CC-PVTZ
    Blend: AUG-CC-PVTZ
  Basis Set: (AUG-CC-PVTZ AUX)
    Blend: AUG-CC-PVTZ-JKFIT

    Orbital Energies [Eh]
    ---------------------

    Doubly Occupied:

       1A    -15.639726     2A    -15.583179     3A    -11.273777
       4A    -11.272539     5A    -11.251099     6A    -11.218893
       7A     -1.373014     8A     -1.115668     9A     -1.057887
      10A     -0.944060    11A     -0.803314    12A     -0.773035
      13A     -0.714209    14A     -0.649946    15A     -0.610421
      16A     -0.581339    17A     -0.568194    18A     -0.547678
      19A     -0.545429    20A     -0.455861    21A     -0.347803
      22A     -0.343663

  @DF-RHF Final Energy:  -263.91832715389006

   => Energetics <=

    Nuclear Repulsion Energy =            226.4634476502780274
    One-Electron Energy =                -805.4220822882516586
    Two-Electron Energy =                 315.0403074840835984
    Total Energy =                       -263.9183271538900613
  Basis Set: (AUG-CC-PVTZ AUX)
    Blend: AUG-CC-PVTZ-RI
    Molecular point group: c1

    Geometry (in Angstrom), charge = 0, multiplicity = 1:

       Center              X                  Y                   Z               Mass
    ------------   -----------------  -----------------  -----------------  -----------------
         N            0.627886626513     0.044537527597    -0.000009553169    14.003074004430
         N           -0.059922373487    -1.114890472403    -0.000016553169    14.003074004430
         C           -0.178443373487     1.141968527597     0.000023446831    12.000000000000
         C            2.077797626513     0.000226527597    -0.000005553169    12.000000000000
         C           -1.462848173487     0.675824627597     0.000015546831    12.000000000000
         C           -1.353349373487    -0.728167472403    -0.000005553169    12.000000000000
         H            0.230069626513     2.143480527597     0.000047446831     1.007825032230
         H            2.428386626513    -0.523083472403     0.890957446831     1.007825032230
         H            2.428376626513    -0.523224472403    -0.890888553169     1.007825032230
         H            2.455150626513     1.023560527597    -0.000087553169     1.007825032230
         H           -2.388018373487     1.257717527597     0.000019446831     1.007825032230
         H           -2.128763373487    -1.483275472403    -0.000017553169     1.007825032230

  Basis Set: AUG-CC-PVTZ
    Blend: AUG-CC-PVTZ
  Basis Set: (AUG-CC-PVTZ AUX)
    Blend: AUG-CC-PVTZ-JKFIT
	 Reference Energy          =    -263.9183271538900613 [Eh]
	 Singles Energy            =      -0.0000000000000000 [Eh]
	 Same-Spin Energy          =      -0.2881824553869142 [Eh]
	 Opposite-Spin Energy      =      -0.9011572149108111 [Eh]
	 Correlation Energy        =      -1.1893396702977252 [Eh]
	 Total Energy              =    -265.1076668241877883 [Eh]

	 ================> DF-SCS-MP2 Energies <==================
	-----------------------------------------------------------
	 SCS Same-Spin Scale       =       0.3333333333333333 [-]
	 SCS Opposite-Spin Scale   =       1.2000000000000000 [-]
	 SCS Same-Spin Energy      =      -0.0960608184623047 [Eh]
	 SCS Opposite-Spin Energy  =      -1.0813886578929732 [Eh]
	 SCS Correlation Energy    =      -1.1774494763552779 [Eh]
	 SCS Total Energy          =    -265.0957766302453251 [Eh]
	-----------------------------------------------------------

  Dipole Moment: [D]
     X:     1.3198      Y:     2.0571      Z:     0.0000     Total:     2.4441

*** Psi4 exiting successfully. Buy a developer a beer!
