                               Psi4 1.4a3.dev225

  ==> Input File <==

--------------------------------------------------------------------------
#psi4
#
memory 32 gb

molecule  {
0 1
  N        0.5770864     0.0101577    -0.0000103
  N       -0.0914470    -1.1353650    -0.0000170
  C       -0.2099680     1.1214940     0.0000230
  C        2.0462730    -0.0202480    -0.0000060
  C       -1.5131730     0.6485270     0.0000150
  C       -1.3848740    -0.7486420    -0.0000060
  H        0.1985450     2.1230060     0.0000470
  H        2.3968620    -0.5435580     0.8909570
  H        2.3968520    -0.5436990    -0.8908890
  H        2.4236260     1.0030860    -0.0000880
  H       -2.4195430     1.2372430     0.0000190
  H       -2.1602880    -1.5037500    -0.0000180
units angstrom
no_reorient  #important for SAPT in psi4, default
symmetry c1  #important for SAPT in psi4, default
}

set PROPERTIES_ORIGIN ["COM"]
properties('MP2/aug-cc-pvtz', properties = ['dipole'])
--------------------------------------------------------------------------

    Molecular point group: c1
  Charge       = 0
  Multiplicity = 1
  Basis Set: AUG-CC-PVTZ
    Blend: AUG-CC-PVTZ
  Basis Set: (AUG-CC-PVTZ AUX)
    Blend: AUG-CC-PVTZ-JKFIT

    Orbital Energies [Eh]
    ---------------------

    Doubly Occupied:

       1A    -15.643398     2A    -15.582095     3A    -11.276014
       4A    -11.272772     5A    -11.248432     6A    -11.219339
       7A     -1.380853     8A     -1.111800     9A     -1.057319
      10A     -0.945193    11A     -0.805815    12A     -0.771082
      13A     -0.715199    14A     -0.650692    15A     -0.611330
      16A     -0.578080    17A     -0.570891    18A     -0.548416
      19A     -0.545604    20A     -0.457795    21A     -0.347054
      22A     -0.341705

  @DF-RHF Final Energy:  -263.91813480172129

   => Energetics <=

    Nuclear Repulsion Energy =            226.4676143761358844
    One-Electron Energy =                -805.4097493171466340
    Two-Electron Energy =                 315.0240001392894555
    Total Energy =                       -263.9181348017212940
  Basis Set: (AUG-CC-PVTZ AUX)
    Blend: AUG-CC-PVTZ-RI
    Molecular point group: c1

    Geometry (in Angstrom), charge = 0, multiplicity = 1:

       Center              X                  Y                   Z               Mass
    ------------   -----------------  -----------------  -----------------  -----------------
         N            0.614650043493     0.034003144125    -0.000009787346    14.003074004430
         N           -0.053883356507    -1.111519555875    -0.000016487346    14.003074004430
         C           -0.172404356507     1.145339444125     0.000023512654    12.000000000000
         C            2.083836643493     0.003597444125    -0.000005487346    12.000000000000
         C           -1.475609356507     0.672372444125     0.000015512654    12.000000000000
         C           -1.347310356507    -0.724796555875    -0.000005487346    12.000000000000
         H            0.236108643493     2.146851444125     0.000047512654     1.007825032230
         H            2.434425643493    -0.519712555875     0.890957512654     1.007825032230
         H            2.434415643493    -0.519853555875    -0.890888487346     1.007825032230
         H            2.461189643493     1.026931444125    -0.000087487346     1.007825032230
         H           -2.381979356507     1.261088444125     0.000019512654     1.007825032230
         H           -2.122724356507    -1.479904555875    -0.000017487346     1.007825032230

  Basis Set: AUG-CC-PVTZ
    Blend: AUG-CC-PVTZ
  Basis Set: (AUG-CC-PVTZ AUX)
    Blend: AUG-CC-PVTZ-JKFIT
	 Reference Energy          =    -263.9181348017212940 [Eh]
	 Singles Energy            =      -0.0000000000000000 [Eh]
	 Same-Spin Energy          =      -0.2883707664953349 [Eh]
	 Opposite-Spin Energy      =      -0.9011437420075494 [Eh]
	 Correlation Energy        =      -1.1895145085028844 [Eh]
	 Total Energy              =    -265.1076493102241898 [Eh]

	 ================> DF-SCS-MP2 Energies <==================
	-----------------------------------------------------------
	 SCS Same-Spin Scale       =       0.3333333333333333 [-]
	 SCS Opposite-Spin Scale   =       1.2000000000000000 [-]
	 SCS Same-Spin Energy      =      -0.0961235888317783 [Eh]
	 SCS Opposite-Spin Energy  =      -1.0813724904090594 [Eh]
	 SCS Correlation Energy    =      -1.1774960792408378 [Eh]
	 SCS Total Energy          =    -265.0956308809621191 [Eh]
	-----------------------------------------------------------

  Dipole Moment: [D]
     X:     1.3925      Y:     2.0622      Z:     0.0000     Total:     2.4883

*** Psi4 exiting successfully. Buy a developer a beer!
