                               Psi4 1.4a3.dev225

  ==> Input File <==

--------------------------------------------------------------------------
#psi4
#
memory 32 gb

molecule  {
0 1
  N        0.5963620     0.0240630    -0.0000100
  N       -0.1115771    -1.1231845    -0.0000164
  C       -0.2099680     1.1214940     0.0000230
  C        2.0462730    -0.0202480    -0.0000060
  C       -1.5131730     0.6485270     0.0000150
  C       -1.3848740    -0.7486420    -0.0000060
  H        0.1985450     2.1230060     0.0000470
  H        2.3968620    -0.5435580     0.8909570
  H        2.3968520    -0.5436990    -0.8908890
  H        2.4236260     1.0030860    -0.0000880
  H       -2.4195430     1.2372430     0.0000190
  H       -2.1602880    -1.5037500    -0.0000180
units angstrom
no_reorient  #important for SAPT in psi4, default
symmetry c1  #important for SAPT in psi4, default
}

set PROPERTIES_ORIGIN ["COM"]
properties('MP2/aug-cc-pvtz', properties = ['dipole'])
--------------------------------------------------------------------------

    Molecular point group: c1
  Charge       = 0
  Multiplicity = 1
  Basis Set: AUG-CC-PVTZ
    Blend: AUG-CC-PVTZ
  Basis Set: (AUG-CC-PVTZ AUX)
    Blend: AUG-CC-PVTZ-JKFIT

    Orbital Energies [Eh]
    ---------------------

    Doubly Occupied:

       1A    -15.640092     2A    -15.579271     3A    -11.274933
       4A    -11.274505     5A    -11.248161     6A    -11.218034
       7A     -1.374681     8A     -1.121516     9A     -1.052751
      10A     -0.946333    11A     -0.806048    12A     -0.771395
      13A     -0.714482    14A     -0.650478    15A     -0.612873
      16A     -0.583218    17A     -0.569965    18A     -0.546872
      19A     -0.546790    20A     -0.452496    21A     -0.352061
      22A     -0.339758

  @DF-RHF Final Energy:  -263.92015035532506

   => Energetics <=

    Nuclear Repulsion Energy =            226.6008701060264343
    One-Electron Energy =                -805.6886144740182090
    Two-Electron Energy =                 315.1675940126666546
    Total Energy =                       -263.9201503553250632
  Basis Set: (AUG-CC-PVTZ AUX)
    Blend: AUG-CC-PVTZ-RI
    Molecular point group: c1

    Geometry (in Angstrom), charge = 0, multiplicity = 1:

       Center              X                  Y                   Z               Mass
    ------------   -----------------  -----------------  -----------------  -----------------
         N            0.634071471341     0.043456675748    -0.000009640939    14.003074004430
         N           -0.073867628659    -1.103790824252    -0.000016040939    14.003074004430
         C           -0.172258528659     1.140887675748     0.000023359061    12.000000000000
         C            2.083982471341    -0.000854324252    -0.000005640939    12.000000000000
         C           -1.475463528659     0.667920675748     0.000015359061    12.000000000000
         C           -1.347164528659    -0.729248324252    -0.000005640939    12.000000000000
         H            0.236254471341     2.142399675748     0.000047359061     1.007825032230
         H            2.434571471341    -0.524164324252     0.890957359061     1.007825032230
         H            2.434561471341    -0.524305324252    -0.890888640939     1.007825032230
         H            2.461335471341     1.022479675748    -0.000087640939     1.007825032230
         H           -2.381833528659     1.256636675748     0.000019359061     1.007825032230
         H           -2.122578528659    -1.484356324252    -0.000017640939     1.007825032230

  Basis Set: AUG-CC-PVTZ
    Blend: AUG-CC-PVTZ
  Basis Set: (AUG-CC-PVTZ AUX)
    Blend: AUG-CC-PVTZ-JKFIT
	 Reference Energy          =    -263.9201503553250632 [Eh]
	 Singles Energy            =      -0.0000000000000000 [Eh]
	 Same-Spin Energy          =      -0.2877128954843235 [Eh]
	 Opposite-Spin Energy      =      -0.9001391049377527 [Eh]
	 Correlation Energy        =      -1.1878520004220763 [Eh]
	 Total Energy              =    -265.1080023557471463 [Eh]

	 ================> DF-SCS-MP2 Energies <==================
	-----------------------------------------------------------
	 SCS Same-Spin Scale       =       0.3333333333333333 [-]
	 SCS Opposite-Spin Scale   =       1.2000000000000000 [-]
	 SCS Same-Spin Energy      =      -0.0959042984947745 [Eh]
	 SCS Opposite-Spin Energy  =      -1.0801669259253033 [Eh]
	 SCS Correlation Energy    =      -1.1760712244200777 [Eh]
	 SCS Total Energy          =    -265.0962215797451336 [Eh]
	-----------------------------------------------------------

  Dipole Moment: [D]
     X:     1.3680      Y:     2.0154      Z:     0.0000     Total:     2.4359

*** Psi4 exiting successfully. Buy a developer a beer!
