                               Psi4 1.4a3.dev225

  ==> Input File <==

--------------------------------------------------------------------------
#psi4
#
memory 32 gb

molecule  {
0 1
  N        0.7066576     0.1143593    -0.0000080
  N       -0.0914470    -1.1353650    -0.0000170
  C       -0.2099680     1.1214940     0.0000230
  C        2.0462730    -0.0202480    -0.0000060
  C       -1.5131730     0.6485270     0.0000150
  C       -1.3848740    -0.7486420    -0.0000060
  H        0.1985450     2.1230060     0.0000470
  H        2.3968620    -0.5435580     0.8909570
  H        2.3968520    -0.5436990    -0.8908890
  H        2.4236260     1.0030860    -0.0000880
  H       -2.4195430     1.2372430     0.0000190
  H       -2.1602880    -1.5037500    -0.0000180
units angstrom
no_reorient  #important for SAPT in psi4, default
symmetry c1  #important for SAPT in psi4, default
}

set PROPERTIES_ORIGIN ["COM"]
properties('MP2/aug-cc-pvtz', properties = ['dipole'])
--------------------------------------------------------------------------

    Molecular point group: c1
  Charge       = 0
  Multiplicity = 1
  Basis Set: AUG-CC-PVTZ
    Blend: AUG-CC-PVTZ
  Basis Set: (AUG-CC-PVTZ AUX)
    Blend: AUG-CC-PVTZ-JKFIT

    Orbital Energies [Eh]
    ---------------------

    Doubly Occupied:

       1A    -15.633085     2A    -15.583395     3A    -11.289896
       4A    -11.265105     5A    -11.265008     6A    -11.221766
       7A     -1.339354     8A     -1.142857     9A     -1.045410
      10A     -0.947800    11A     -0.794897    12A     -0.779753
      13A     -0.709997    14A     -0.651804    15A     -0.623275
      16A     -0.608311    17A     -0.562963    18A     -0.530099
      19A     -0.528585    20A     -0.440685    21A     -0.365407
      22A     -0.330693

  @DF-RHF Final Energy:  -263.89002116567229

   => Energetics <=

    Nuclear Repulsion Energy =            224.8729975481393240
    One-Electron Energy =                -802.2057444231122645
    Two-Electron Energy =                 313.4427257093006460
    Total Energy =                       -263.8900211656722945
  Basis Set: (AUG-CC-PVTZ AUX)
    Blend: AUG-CC-PVTZ-RI
    Molecular point group: c1

    Geometry (in Angstrom), charge = 0, multiplicity = 1:

       Center              X                  Y                   Z               Mass
    ------------   -----------------  -----------------  -----------------  -----------------
         N            0.722108792627     0.120421835885    -0.000007879861    14.003074004430
         N           -0.075995807373    -1.129302464115    -0.000016879861    14.003074004430
         C           -0.194516807373     1.127556535885     0.000023120139    12.000000000000
         C            2.061724192627    -0.014185464115    -0.000005879861    12.000000000000
         C           -1.497721807373     0.654589535885     0.000015120139    12.000000000000
         C           -1.369422807373    -0.742579464115    -0.000005879861    12.000000000000
         H            0.213996192627     2.129068535885     0.000047120139     1.007825032230
         H            2.412313192627    -0.537495464115     0.890957120139     1.007825032230
         H            2.412303192627    -0.537636464115    -0.890888879861     1.007825032230
         H            2.439077192627     1.009148535885    -0.000087879861     1.007825032230
         H           -2.404091807373     1.243305535885     0.000019120139     1.007825032230
         H           -2.144836807373    -1.497687464115    -0.000017879861     1.007825032230

  Basis Set: AUG-CC-PVTZ
    Blend: AUG-CC-PVTZ
  Basis Set: (AUG-CC-PVTZ AUX)
    Blend: AUG-CC-PVTZ-JKFIT
	 Reference Energy          =    -263.8900211656722945 [Eh]
	 Singles Energy            =      -0.0000000000000000 [Eh]
	 Same-Spin Energy          =      -0.2890361808969483 [Eh]
	 Opposite-Spin Energy      =      -0.9052650761904850 [Eh]
	 Correlation Energy        =      -1.1943012570874334 [Eh]
	 Total Energy              =    -265.0843224227597261 [Eh]

	 ================> DF-SCS-MP2 Energies <==================
	-----------------------------------------------------------
	 SCS Same-Spin Scale       =       0.3333333333333333 [-]
	 SCS Opposite-Spin Scale   =       1.2000000000000000 [-]
	 SCS Same-Spin Energy      =      -0.0963453936323161 [Eh]
	 SCS Opposite-Spin Energy  =      -1.0863180914285819 [Eh]
	 SCS Correlation Energy    =      -1.1826634850608979 [Eh]
	 SCS Total Energy          =    -265.0726846507332084 [Eh]
	-----------------------------------------------------------

  Dipole Moment: [D]
     X:     1.0114      Y:     1.9914      Z:     0.0000     Total:     2.2335

*** Psi4 exiting successfully. Buy a developer a beer!
