                               Psi4 1.4a3.dev225

  ==> Input File <==

--------------------------------------------------------------------------
#psi4
#
memory 32 gb

molecule  {
0 1
  N        0.5963620     0.0240630    -0.0000100
  N       -0.0914470    -1.1353650    -0.0000170
  C       -0.2099680     1.1214940     0.0000230
  C        2.0462730    -0.0202480    -0.0000060
  C       -1.5131730     0.6485270     0.0000150
  C       -1.3848740    -0.7486420    -0.0000060
  H        0.1985450     2.1230060     0.0000470
  H        2.3968620    -0.5435580     0.8909570
  H        2.3807871    -0.5197125    -0.8500654
  H        2.4236260     1.0030860    -0.0000880
  H       -2.4195430     1.2372430     0.0000190
  H       -2.1602880    -1.5037500    -0.0000180
units angstrom
no_reorient  #important for SAPT in psi4, default
symmetry c1  #important for SAPT in psi4, default
}

set PROPERTIES_ORIGIN ["COM"]
properties('MP2/aug-cc-pvtz', properties = ['dipole'])
--------------------------------------------------------------------------

    Molecular point group: c1
  Charge       = 0
  Multiplicity = 1
  Basis Set: AUG-CC-PVTZ
    Blend: AUG-CC-PVTZ
  Basis Set: (AUG-CC-PVTZ AUX)
    Blend: AUG-CC-PVTZ-JKFIT

    Orbital Energies [Eh]
    ---------------------

    Doubly Occupied:

       1A    -15.641337     2A    -15.582052     3A    -11.274843
       4A    -11.268648     5A    -11.250668     6A    -11.219353
       7A     -1.372536     8A     -1.116940     9A     -1.054793
      10A     -0.949380    11A     -0.803879    12A     -0.773318
      13A     -0.715077    14A     -0.653865    15A     -0.613762
      16A     -0.581491    17A     -0.570153    18A     -0.549831
      19A     -0.545131    20A     -0.456037    21A     -0.349159
      22A     -0.340599

  @DF-RHF Final Energy:  -263.91739131314728

   => Energetics <=

    Nuclear Repulsion Energy =            226.4269999529469715
    One-Electron Energy =                -805.3230762116601227
    Two-Electron Energy =                 314.9786849455658739
    Total Energy =                       -263.9173913131472773
  Basis Set: (AUG-CC-PVTZ AUX)
    Blend: AUG-CC-PVTZ-RI
    Molecular point group: c1

    Geometry (in Angstrom), charge = 0, multiplicity = 1:

       Center              X                  Y                   Z               Mass
    ------------   -----------------  -----------------  -----------------  -----------------
         N            0.630833413578     0.045240767403    -0.000510958318    14.003074004430
         N           -0.056975586422    -1.114187232597    -0.000517958318    14.003074004430
         C           -0.175496586422     1.142671767403    -0.000477958318    12.000000000000
         C            2.080744413578     0.000929767403    -0.000506958318    12.000000000000
         C           -1.478701586422     0.669704767403    -0.000485958318    12.000000000000
         C           -1.350402586422    -0.727464232597    -0.000506958318    12.000000000000
         H            0.233016413578     2.144183767403    -0.000453958318     1.007825032230
         H            2.431333413578    -0.522380232597     0.890456041682     1.007825032230
         H            2.415258513578    -0.498534732597    -0.850566358318     1.007825032230
         H            2.458097413578     1.024263767403    -0.000588958318     1.007825032230
         H           -2.385071586422     1.258420767403    -0.000481958318     1.007825032230
         H           -2.125816586422    -1.482572232597    -0.000518958318     1.007825032230

  Basis Set: AUG-CC-PVTZ
    Blend: AUG-CC-PVTZ
  Basis Set: (AUG-CC-PVTZ AUX)
    Blend: AUG-CC-PVTZ-JKFIT
	 Reference Energy          =    -263.9173913131472773 [Eh]
	 Singles Energy            =      -0.0000000000000000 [Eh]
	 Same-Spin Energy          =      -0.2883218671683498 [Eh]
	 Opposite-Spin Energy      =      -0.9011607579465208 [Eh]
	 Correlation Energy        =      -1.1894826251148707 [Eh]
	 Total Energy              =    -265.1068739382621402 [Eh]

	 ================> DF-SCS-MP2 Energies <==================
	-----------------------------------------------------------
	 SCS Same-Spin Scale       =       0.3333333333333333 [-]
	 SCS Opposite-Spin Scale   =       1.2000000000000000 [-]
	 SCS Same-Spin Energy      =      -0.0961072890561166 [Eh]
	 SCS Opposite-Spin Energy  =      -1.0813929095358250 [Eh]
	 SCS Correlation Energy    =      -1.1775001985919415 [Eh]
	 SCS Total Energy          =    -265.0948915117392062 [Eh]
	-----------------------------------------------------------

  Dipole Moment: [D]
     X:     1.3622      Y:     2.0551      Z:    -0.0084     Total:     2.4656

*** Psi4 exiting successfully. Buy a developer a beer!
