                               Psi4 1.4a3.dev225

  ==> Input File <==

--------------------------------------------------------------------------
#psi4
#
memory 32 gb

molecule  {
0 1
  N        0.5963620     0.0240630    -0.0000100
  N       -0.0914470    -1.1353650    -0.0000170
  C       -0.2099680     1.1214940     0.0000230
  C        2.0462730    -0.0202480    -0.0000060
  C       -1.5131730     0.6485270     0.0000150
  C       -1.3848740    -0.7486420    -0.0000060
  H        0.1985450     2.1230060     0.0000470
  H        2.3968620    -0.5435580     0.8909570
  H        2.4611114    -0.6396450    -1.0541835
  H        2.4236260     1.0030860    -0.0000880
  H       -2.4195430     1.2372430     0.0000190
  H       -2.1602880    -1.5037500    -0.0000180
units angstrom
no_reorient  #important for SAPT in psi4, default
symmetry c1  #important for SAPT in psi4, default
}

set PROPERTIES_ORIGIN ["COM"]
properties('MP2/aug-cc-pvtz', properties = ['dipole'])
--------------------------------------------------------------------------

    Molecular point group: c1
  Charge       = 0
  Multiplicity = 1
  Basis Set: AUG-CC-PVTZ
    Blend: AUG-CC-PVTZ
  Basis Set: (AUG-CC-PVTZ AUX)
    Blend: AUG-CC-PVTZ-JKFIT

    Orbital Energies [Eh]
    ---------------------

    Doubly Occupied:

       1A    -15.644183     2A    -15.583102     3A    -11.295689
       4A    -11.276981     5A    -11.252445     6A    -11.221119
       7A     -1.374085     8A     -1.115528     9A     -1.055505
      10A     -0.936212    11A     -0.805529    12A     -0.770887
      13A     -0.713645    14A     -0.641501    15A     -0.608342
      16A     -0.582512    17A     -0.569755    18A     -0.547282
      19A     -0.518079    20A     -0.457111    21A     -0.349053
      22A     -0.341717

  @DF-RHF Final Energy:  -263.89799290935656

   => Energetics <=

    Nuclear Repulsion Energy =            225.4370563132983136
    One-Electron Energy =                -803.3495710829597556
    Two-Electron Energy =                 314.0145218603049102
    Total Energy =                       -263.8979929093565602
  Basis Set: (AUG-CC-PVTZ AUX)
    Blend: AUG-CC-PVTZ-RI
    Molecular point group: c1

    Geometry (in Angstrom), charge = 0, multiplicity = 1:

       Center              X                  Y                   Z               Mass
    ------------   -----------------  -----------------  -----------------  -----------------
         N            0.629846822675     0.046713849813     0.001996141782    14.003074004430
         N           -0.057962177325    -1.112714150187     0.001989141782    14.003074004430
         C           -0.176483177325     1.144144849813     0.002029141782    12.000000000000
         C            2.079757822675     0.002402849813     0.002000141782    12.000000000000
         C           -1.479688177325     0.671177849813     0.002021141782    12.000000000000
         C           -1.351389177325    -0.725991150187     0.002000141782    12.000000000000
         H            0.232029822675     2.145656849813     0.002053141782     1.007825032230
         H            2.430346822675    -0.520907150187     0.892963141782     1.007825032230
         H            2.494596222675    -0.616994150187    -1.052177358218     1.007825032230
         H            2.457110822675     1.025736849813     0.001918141782     1.007825032230
         H           -2.386058177325     1.259893849813     0.002025141782     1.007825032230
         H           -2.126803177325    -1.481099150187     0.001988141782     1.007825032230

  Basis Set: AUG-CC-PVTZ
    Blend: AUG-CC-PVTZ
  Basis Set: (AUG-CC-PVTZ AUX)
    Blend: AUG-CC-PVTZ-JKFIT
	 Reference Energy          =    -263.8979929093565602 [Eh]
	 Singles Energy            =      -0.0000000000000000 [Eh]
	 Same-Spin Energy          =      -0.2884007852823668 [Eh]
	 Opposite-Spin Energy      =      -0.9030378557009164 [Eh]
	 Correlation Energy        =      -1.1914386409832831 [Eh]
	 Total Energy              =    -265.0894315503398389 [Eh]

	 ================> DF-SCS-MP2 Energies <==================
	-----------------------------------------------------------
	 SCS Same-Spin Scale       =       0.3333333333333333 [-]
	 SCS Opposite-Spin Scale   =       1.2000000000000000 [-]
	 SCS Same-Spin Energy      =      -0.0961335950941223 [Eh]
	 SCS Opposite-Spin Energy  =      -1.0836454268410998 [Eh]
	 SCS Correlation Energy    =      -1.1797790219352220 [Eh]
	 SCS Total Energy          =    -265.0777719312918066 [Eh]
	-----------------------------------------------------------

  Dipole Moment: [D]
     X:     1.2114      Y:     2.0812      Z:     0.0614     Total:     2.4089

*** Psi4 exiting successfully. Buy a developer a beer!
