                               Psi4 1.4a3.dev225

  ==> Input File <==

--------------------------------------------------------------------------
#psi4
#
memory 32 gb

molecule  {
0 1
  N        0.5138089     0.0692178    -0.0000091
  N       -0.0914470    -1.1353650    -0.0000170
  C       -0.2099680     1.1214940     0.0000230
  C        2.0462730    -0.0202480    -0.0000060
  C       -1.5131730     0.6485270     0.0000150
  C       -1.3848740    -0.7486420    -0.0000060
  H        0.1985450     2.1230060     0.0000470
  H        2.3968620    -0.5435580     0.8909570
  H        2.3968520    -0.5436990    -0.8908890
  H        2.4236260     1.0030860    -0.0000880
  H       -2.4195430     1.2372430     0.0000190
  H       -2.1602880    -1.5037500    -0.0000180
units angstrom
no_reorient  #important for SAPT in psi4, default
symmetry c1  #important for SAPT in psi4, default
}

set PROPERTIES_ORIGIN ["COM"]
properties('MP2/aug-cc-pvtz', properties = ['dipole'])
--------------------------------------------------------------------------

    Molecular point group: c1
  Charge       = 0
  Multiplicity = 1
  Basis Set: AUG-CC-PVTZ
    Blend: AUG-CC-PVTZ
  Basis Set: (AUG-CC-PVTZ AUX)
    Blend: AUG-CC-PVTZ-JKFIT

    Orbital Energies [Eh]
    ---------------------

    Doubly Occupied:

       1A    -15.642805     2A    -15.576699     3A    -11.282059
       4A    -11.267791     5A    -11.248304     6A    -11.210977
       7A     -1.386571     8A     -1.113186     9A     -1.060086
      10A     -0.945187    11A     -0.806900    12A     -0.768641
      13A     -0.718760    14A     -0.649522    15A     -0.606837
      16A     -0.580345    17A     -0.556628    18A     -0.550227
      19A     -0.544720    20A     -0.463127    21A     -0.359059
      22A     -0.333641

  @DF-RHF Final Energy:  -263.90675532023374

   => Energetics <=

    Nuclear Repulsion Energy =            227.1028431698772465
    One-Electron Energy =                -806.6750595245175646
    Two-Electron Energy =                 315.6654610344065759
    Total Energy =                       -263.9067553202337422
  Basis Set: (AUG-CC-PVTZ AUX)
    Blend: AUG-CC-PVTZ-RI
    Molecular point group: c1

    Geometry (in Angstrom), charge = 0, multiplicity = 1:

       Center              X                  Y                   Z               Mass
    ------------   -----------------  -----------------  -----------------  -----------------
         N            0.562171398561     0.082984125005    -0.000008792137    14.003074004430
         N           -0.043084501439    -1.121598674995    -0.000016692137    14.003074004430
         C           -0.161605501439     1.135260325005     0.000023307863    12.000000000000
         C            2.094635498561    -0.006481674995    -0.000005692137    12.000000000000
         C           -1.464810501439     0.662293325005     0.000015307863    12.000000000000
         C           -1.336511501439    -0.734875674995    -0.000005692137    12.000000000000
         H            0.246907498561     2.136772325005     0.000047307863     1.007825032230
         H            2.445224498561    -0.529791674995     0.890957307863     1.007825032230
         H            2.445214498561    -0.529932674995    -0.890888692137     1.007825032230
         H            2.471988498561     1.016852325005    -0.000087692137     1.007825032230
         H           -2.371180501439     1.251009325005     0.000019307863     1.007825032230
         H           -2.111925501439    -1.489983674995    -0.000017692137     1.007825032230

  Basis Set: AUG-CC-PVTZ
    Blend: AUG-CC-PVTZ
  Basis Set: (AUG-CC-PVTZ AUX)
    Blend: AUG-CC-PVTZ-JKFIT
	 Reference Energy          =    -263.9067553202337422 [Eh]
	 Singles Energy            =      -0.0000000000000000 [Eh]
	 Same-Spin Energy          =      -0.2878800351581139 [Eh]
	 Opposite-Spin Energy      =      -0.9005452358955667 [Eh]
	 Correlation Energy        =      -1.1884252710536807 [Eh]
	 Total Energy              =    -265.0951805912874306 [Eh]

	 ================> DF-SCS-MP2 Energies <==================
	-----------------------------------------------------------
	 SCS Same-Spin Scale       =       0.3333333333333333 [-]
	 SCS Opposite-Spin Scale   =       1.2000000000000000 [-]
	 SCS Same-Spin Energy      =      -0.0959600117193713 [Eh]
	 SCS Opposite-Spin Energy  =      -1.0806542830746799 [Eh]
	 SCS Correlation Energy    =      -1.1766142947940512 [Eh]
	 SCS Total Energy          =    -265.0833696150277774 [Eh]
	-----------------------------------------------------------

  Dipole Moment: [D]
     X:     1.5765      Y:     2.0633      Z:     0.0000     Total:     2.5966

*** Psi4 exiting successfully. Buy a developer a beer!
