                               Psi4 1.4a3.dev225

  ==> Input File <==

--------------------------------------------------------------------------
#psi4
#
memory 32 gb

molecule  {
0 1
  N        0.5963620     0.0240630    -0.0000100
  N       -0.0914470    -1.1353650    -0.0000170
  C       -0.2099680     1.1214940     0.0000230
  C        2.0462730    -0.0202480    -0.0000060
  C       -1.5131730     0.6485270     0.0000150
  C       -1.3848740    -0.7486420    -0.0000060
  H        0.1985450     2.1230060     0.0000470
  H        2.3326008    -0.4476379     0.7276480
  H        2.3968520    -0.5436990    -0.8908890
  H        2.4236260     1.0030860    -0.0000880
  H       -2.4195430     1.2372430     0.0000190
  H       -2.1602880    -1.5037500    -0.0000180
units angstrom
no_reorient  #important for SAPT in psi4, default
symmetry c1  #important for SAPT in psi4, default
}

set PROPERTIES_ORIGIN ["COM"]
properties('MP2/aug-cc-pvtz', properties = ['dipole'])
--------------------------------------------------------------------------

    Molecular point group: c1
  Charge       = 0
  Multiplicity = 1
  Basis Set: AUG-CC-PVTZ
    Blend: AUG-CC-PVTZ
  Basis Set: (AUG-CC-PVTZ AUX)
    Blend: AUG-CC-PVTZ-JKFIT

    Orbital Energies [Eh]
    ---------------------

    Doubly Occupied:

       1A    -15.640492     2A    -15.581894     3A    -11.274175
       4A    -11.251153     5A    -11.250157     6A    -11.218865
       7A     -1.372388     8A     -1.121070     9A     -1.055530
      10A     -0.965121    11A     -0.803450    12A     -0.777836
      13A     -0.719025    14A     -0.667883    15A     -0.617286
      16A     -0.582529    17A     -0.572147    18A     -0.557900
      19A     -0.544697    20A     -0.455796    21A     -0.349477
      22A     -0.340319

  @DF-RHF Final Energy:  -263.88380499545372

   => Energetics <=

    Nuclear Repulsion Energy =            227.1935960778039600
    One-Electron Energy =                -806.7164237167482952
    Two-Electron Energy =                 315.6390226434906481
    Total Energy =                       -263.8838049954537155
  Basis Set: (AUG-CC-PVTZ AUX)
    Blend: AUG-CC-PVTZ-RI
    Molecular point group: c1

    Geometry (in Angstrom), charge = 0, multiplicity = 1:

       Center              X                  Y                   Z               Mass
    ------------   -----------------  -----------------  -----------------  -----------------
         N            0.631425389245     0.044357236076     0.001996319879    14.003074004430
         N           -0.056383610755    -1.115070763924     0.001989319879    14.003074004430
         C           -0.174904610755     1.141788236076     0.002029319879    12.000000000000
         C            2.081336389245     0.000046236076     0.002000319879    12.000000000000
         C           -1.478109610755     0.668821236076     0.002021319879    12.000000000000
         C           -1.349810610755    -0.728347763924     0.002000319879    12.000000000000
         H            0.233608389245     2.143300236076     0.002053319879     1.007825032230
         H            2.367664189245    -0.427343663924     0.729654319879     1.007825032230
         H            2.431915389245    -0.523404763924    -0.888882680121     1.007825032230
         H            2.458689389245     1.023380236076     0.001918319879     1.007825032230
         H           -2.384479610755     1.257537236076     0.002025319879     1.007825032230
         H           -2.125224610755    -1.483455763924     0.001988319879     1.007825032230

  Basis Set: AUG-CC-PVTZ
    Blend: AUG-CC-PVTZ
  Basis Set: (AUG-CC-PVTZ AUX)
    Blend: AUG-CC-PVTZ-JKFIT
	 Reference Energy          =    -263.8838049954537155 [Eh]
	 Singles Energy            =      -0.0000000000000000 [Eh]
	 Same-Spin Energy          =      -0.2884044789620644 [Eh]
	 Opposite-Spin Energy      =      -0.9008241125632088 [Eh]
	 Correlation Energy        =      -1.1892285915252732 [Eh]
	 Total Energy              =    -265.0730335869789656 [Eh]

	 ================> DF-SCS-MP2 Energies <==================
	-----------------------------------------------------------
	 SCS Same-Spin Scale       =       0.3333333333333333 [-]
	 SCS Opposite-Spin Scale   =       1.2000000000000000 [-]
	 SCS Same-Spin Energy      =      -0.0961348263206881 [Eh]
	 SCS Opposite-Spin Energy  =      -1.0809889350758506 [Eh]
	 SCS Correlation Energy    =      -1.1771237613965386 [Eh]
	 SCS Total Energy          =    -265.0609287568502737 [Eh]
	-----------------------------------------------------------

  Dipole Moment: [D]
     X:     1.4048      Y:     2.0568      Z:     0.0173     Total:     2.4908

*** Psi4 exiting successfully. Buy a developer a beer!
