                               Psi4 1.4a3.dev225

  ==> Input File <==

--------------------------------------------------------------------------
#psi4
#
memory 32 gb

molecule  {
0 1
  N        0.5963620     0.0240630    -0.0000100
  N       -0.0088939    -1.1805198    -0.0000193
  C       -0.2099680     1.1214940     0.0000230
  C        2.0462730    -0.0202480    -0.0000060
  C       -1.5131730     0.6485270     0.0000150
  C       -1.3848740    -0.7486420    -0.0000060
  H        0.1985450     2.1230060     0.0000470
  H        2.3968620    -0.5435580     0.8909570
  H        2.3968520    -0.5436990    -0.8908890
  H        2.4236260     1.0030860    -0.0000880
  H       -2.4195430     1.2372430     0.0000190
  H       -2.1602880    -1.5037500    -0.0000180
units angstrom
no_reorient  #important for SAPT in psi4, default
symmetry c1  #important for SAPT in psi4, default
}

set PROPERTIES_ORIGIN ["COM"]
properties('MP2/aug-cc-pvtz', properties = ['dipole'])
--------------------------------------------------------------------------

    Molecular point group: c1
  Charge       = 0
  Multiplicity = 1
  Basis Set: AUG-CC-PVTZ
    Blend: AUG-CC-PVTZ
  Basis Set: (AUG-CC-PVTZ AUX)
    Blend: AUG-CC-PVTZ-JKFIT

    Orbital Energies [Eh]
    ---------------------

    Doubly Occupied:

       1A    -15.648639     2A    -15.592521     3A    -11.277671
       4A    -11.272505     5A    -11.261007     6A    -11.225886
       7A     -1.366716     8A     -1.097597     9A     -1.062306
      10A     -0.943159    11A     -0.798091    12A     -0.774321
      13A     -0.714127    14A     -0.648961    15A     -0.611968
      16A     -0.577386    17A     -0.567228    18A     -0.539830
      19A     -0.539151    20A     -0.465866    21A     -0.350371
      22A     -0.332864

  @DF-RHF Final Energy:  -263.90126950193928

   => Energetics <=

    Nuclear Repulsion Energy =            224.7535706681228191
    One-Electron Energy =                -801.9733368836656382
    Two-Electron Energy =                 313.3184967136035084
    Total Energy =                       -263.9012695019392822
  Basis Set: (AUG-CC-PVTZ AUX)
    Blend: AUG-CC-PVTZ-RI
    Molecular point group: c1

    Geometry (in Angstrom), charge = 0, multiplicity = 1:

       Center              X                  Y                   Z               Mass
    ------------   -----------------  -----------------  -----------------  -----------------
         N            0.616547691251     0.053241442765    -0.000009146029    14.003074004430
         N            0.011291791251    -1.151341357235    -0.000018446029    14.003074004430
         C           -0.189782308749     1.150672442765     0.000023853971    12.000000000000
         C            2.066458691251     0.008930442765    -0.000005146029    12.000000000000
         C           -1.492987308749     0.677705442765     0.000015853971    12.000000000000
         C           -1.364688308749    -0.719463557235    -0.000005146029    12.000000000000
         H            0.218730691251     2.152184442765     0.000047853971     1.007825032230
         H            2.417047691251    -0.514379557235     0.890957853971     1.007825032230
         H            2.417037691251    -0.514520557235    -0.890888146029     1.007825032230
         H            2.443811691251     1.032264442765    -0.000087146029     1.007825032230
         H           -2.399357308749     1.266421442765     0.000019853971     1.007825032230
         H           -2.140102308749    -1.474571557235    -0.000017146029     1.007825032230

  Basis Set: AUG-CC-PVTZ
    Blend: AUG-CC-PVTZ
  Basis Set: (AUG-CC-PVTZ AUX)
    Blend: AUG-CC-PVTZ-JKFIT
	 Reference Energy          =    -263.9012695019392822 [Eh]
	 Singles Energy            =      -0.0000000000000000 [Eh]
	 Same-Spin Energy          =      -0.2909665460772090 [Eh]
	 Opposite-Spin Energy      =      -0.9072548009324152 [Eh]
	 Correlation Energy        =      -1.1982213470096241 [Eh]
	 Total Energy              =    -265.0994908489489035 [Eh]

	 ================> DF-SCS-MP2 Energies <==================
	-----------------------------------------------------------
	 SCS Same-Spin Scale       =       0.3333333333333333 [-]
	 SCS Opposite-Spin Scale   =       1.2000000000000000 [-]
	 SCS Same-Spin Energy      =      -0.0969888486924030 [Eh]
	 SCS Opposite-Spin Energy  =      -1.0887057611188982 [Eh]
	 SCS Correlation Energy    =      -1.1856946098113010 [Eh]
	 SCS Total Energy          =    -265.0869641117506035 [Eh]
	-----------------------------------------------------------

  Dipole Moment: [D]
     X:     1.2295      Y:     2.1968      Z:     0.0000     Total:     2.5175

*** Psi4 exiting successfully. Buy a developer a beer!
