                               Psi4 1.4a3.dev225

  ==> Input File <==

--------------------------------------------------------------------------
#psi4
#
memory 32 gb

molecule  {
0 1
  N        0.5963620     0.0240630    -0.0000100
  N       -0.0914470    -1.1353650    -0.0000170
  C       -0.2099680     1.1214940     0.0000230
  C        2.0462730    -0.0202480    -0.0000060
  C       -1.5131730     0.6485270     0.0000150
  C       -1.3848740    -0.7486420    -0.0000060
  H        0.1985450     2.1230060     0.0000470
  H        2.3968620    -0.5435580     0.8909570
  H        2.3968520    -0.5436990    -0.8908890
  H        2.4236260     1.0030860    -0.0000880
  H       -2.4027705     1.2263488     0.0000189
  H       -2.1602880    -1.5037500    -0.0000180
units angstrom
no_reorient  #important for SAPT in psi4, default
symmetry c1  #important for SAPT in psi4, default
}

set PROPERTIES_ORIGIN ["COM"]
properties('MP2/aug-cc-pvtz', properties = ['dipole'])
--------------------------------------------------------------------------

    Molecular point group: c1
  Charge       = 0
  Multiplicity = 1
  Basis Set: AUG-CC-PVTZ
    Blend: AUG-CC-PVTZ
  Basis Set: (AUG-CC-PVTZ AUX)
    Blend: AUG-CC-PVTZ-JKFIT

    Orbital Energies [Eh]
    ---------------------

    Doubly Occupied:

       1A    -15.641664     2A    -15.582052     3A    -11.275025
       4A    -11.274365     5A    -11.250767     6A    -11.217316
       7A     -1.372592     8A     -1.116166     9A     -1.055079
      10A     -0.945903    11A     -0.805490    12A     -0.772316
      13A     -0.715456    14A     -0.649979    15A     -0.614309
      16A     -0.582535    17A     -0.570018    18A     -0.545840
      19A     -0.545111    20A     -0.456183    21A     -0.349010
      22A     -0.340669

  @DF-RHF Final Energy:  -263.91849279613234

   => Energetics <=

    Nuclear Repulsion Energy =            226.3020013940189017
    One-Electron Energy =                -805.0852983300686674
    Two-Electron Energy =                 314.8648041399173962
    Total Energy =                       -263.9184927961323410
  Basis Set: (AUG-CC-PVTZ AUX)
    Blend: AUG-CC-PVTZ-RI
    Molecular point group: c1

    Geometry (in Angstrom), charge = 0, multiplicity = 1:

       Center              X                  Y                   Z               Mass
    ------------   -----------------  -----------------  -----------------  -----------------
         N            0.630430085069     0.045669192939    -0.000009537316    14.003074004430
         N           -0.057378914931    -1.113758807061    -0.000016537316    14.003074004430
         C           -0.175899914931     1.143100192939     0.000023462684    12.000000000000
         C            2.080341085069     0.001358192939    -0.000005537316    12.000000000000
         C           -1.479104914931     0.670133192939     0.000015462684    12.000000000000
         C           -1.350805914931    -0.727035807061    -0.000005537316    12.000000000000
         H            0.232613085069     2.144612192939     0.000047462684     1.007825032230
         H            2.430930085069    -0.521951807061     0.890957462684     1.007825032230
         H            2.430920085069    -0.522092807061    -0.890888537316     1.007825032230
         H            2.457694085069     1.024692192939    -0.000087537316     1.007825032230
         H           -2.368702414931     1.247954992939     0.000019362684     1.007825032230
         H           -2.126219914931    -1.482143807061    -0.000017537316     1.007825032230

  Basis Set: AUG-CC-PVTZ
    Blend: AUG-CC-PVTZ
  Basis Set: (AUG-CC-PVTZ AUX)
    Blend: AUG-CC-PVTZ-JKFIT
	 Reference Energy          =    -263.9184927961323410 [Eh]
	 Singles Energy            =      -0.0000000000000000 [Eh]
	 Same-Spin Energy          =      -0.2882976380124784 [Eh]
	 Opposite-Spin Energy      =      -0.9013318308152855 [Eh]
	 Correlation Energy        =      -1.1896294688277638 [Eh]
	 Total Energy              =    -265.1081222649601159 [Eh]

	 ================> DF-SCS-MP2 Energies <==================
	-----------------------------------------------------------
	 SCS Same-Spin Scale       =       0.3333333333333333 [-]
	 SCS Opposite-Spin Scale   =       1.2000000000000000 [-]
	 SCS Same-Spin Energy      =      -0.0960992126708261 [Eh]
	 SCS Opposite-Spin Energy  =      -1.0815981969783426 [Eh]
	 SCS Correlation Energy    =      -1.1776974096491688 [Eh]
	 SCS Total Energy          =    -265.0961902057815109 [Eh]
	-----------------------------------------------------------

  Dipole Moment: [D]
     X:     1.3386      Y:     2.0590      Z:     0.0000     Total:     2.4559

*** Psi4 exiting successfully. Buy a developer a beer!
