                               Psi4 1.4a3.dev225

  ==> Input File <==

--------------------------------------------------------------------------
#psi4
#
memory 32 gb

molecule  {
0 1
  N        0.5963620     0.0240630    -0.0000100
  N       -0.0914470    -1.1353650    -0.0000170
  C       -0.2099680     1.1214940     0.0000230
  C        1.9962963    -0.0187207    -0.0000061
  C       -1.5131730     0.6485270     0.0000150
  C       -1.3848740    -0.7486420    -0.0000060
  H        0.1985450     2.1230060     0.0000470
  H        2.3968620    -0.5435580     0.8909570
  H        2.3968520    -0.5436990    -0.8908890
  H        2.4236260     1.0030860    -0.0000880
  H       -2.4195430     1.2372430     0.0000190
  H       -2.1602880    -1.5037500    -0.0000180
units angstrom
no_reorient  #important for SAPT in psi4, default
symmetry c1  #important for SAPT in psi4, default
}

set PROPERTIES_ORIGIN ["COM"]
properties('MP2/aug-cc-pvtz', properties = ['dipole'])
--------------------------------------------------------------------------

    Molecular point group: c1
  Charge       = 0
  Multiplicity = 1
  Basis Set: AUG-CC-PVTZ
    Blend: AUG-CC-PVTZ
  Basis Set: (AUG-CC-PVTZ AUX)
    Blend: AUG-CC-PVTZ-JKFIT

    Orbital Energies [Eh]
    ---------------------

    Doubly Occupied:

       1A    -15.642452     2A    -15.583664     3A    -11.277272
       4A    -11.273548     5A    -11.253136     6A    -11.221479
       7A     -1.379453     8A     -1.126096     9A     -1.057701
      10A     -0.942580    11A     -0.807556    12A     -0.775530
      13A     -0.718975    14A     -0.652437    15A     -0.611804
      16A     -0.591933    17A     -0.568460    18A     -0.538967
      19A     -0.536266    20A     -0.458278    21A     -0.349778
      22A     -0.342381

  @DF-RHF Final Energy:  -263.91600970205383

   => Energetics <=

    Nuclear Repulsion Energy =            227.0977897226710809
    One-Electron Energy =                -806.6081088038912412
    Two-Electron Energy =                 315.5943093791663046
    Total Energy =                       -263.9160097020538274
  Basis Set: (AUG-CC-PVTZ AUX)
    Blend: AUG-CC-PVTZ-RI
    Molecular point group: c1

    Geometry (in Angstrom), charge = 0, multiplicity = 1:

       Center              X                  Y                   Z               Mass
    ------------   -----------------  -----------------  -----------------  -----------------
         N            0.637945025502     0.045312021204    -0.000009523919    14.003074004430
         N           -0.049863974498    -1.114115978796    -0.000016523919    14.003074004430
         C           -0.168384974498     1.142743021204     0.000023476081    12.000000000000
         C            2.037879325502     0.002528321204    -0.000005623919    12.000000000000
         C           -1.471589974498     0.669776021204     0.000015476081    12.000000000000
         C           -1.343290974498    -0.727392978796    -0.000005523919    12.000000000000
         H            0.240128025502     2.144255021204     0.000047476081     1.007825032230
         H            2.438445025502    -0.522308978796     0.890957476081     1.007825032230
         H            2.438435025502    -0.522449978796    -0.890888523919     1.007825032230
         H            2.465209025502     1.024335021204    -0.000087523919     1.007825032230
         H           -2.377959974498     1.258492021204     0.000019476081     1.007825032230
         H           -2.118704974498    -1.482500978796    -0.000017523919     1.007825032230

  Basis Set: AUG-CC-PVTZ
    Blend: AUG-CC-PVTZ
  Basis Set: (AUG-CC-PVTZ AUX)
    Blend: AUG-CC-PVTZ-JKFIT
	 Reference Energy          =    -263.9160097020538274 [Eh]
	 Singles Energy            =      -0.0000000000000000 [Eh]
	 Same-Spin Energy          =      -0.2885841734988919 [Eh]
	 Opposite-Spin Energy      =      -0.9014523215421103 [Eh]
	 Correlation Energy        =      -1.1900364950410021 [Eh]
	 Total Energy              =    -265.1060461970948268 [Eh]

	 ================> DF-SCS-MP2 Energies <==================
	-----------------------------------------------------------
	 SCS Same-Spin Scale       =       0.3333333333333333 [-]
	 SCS Opposite-Spin Scale   =       1.2000000000000000 [-]
	 SCS Same-Spin Energy      =      -0.0961947244996306 [Eh]
	 SCS Opposite-Spin Energy  =      -1.0817427858505324 [Eh]
	 SCS Correlation Energy    =      -1.1779375103501630 [Eh]
	 SCS Total Energy          =    -265.0939472124039753 [Eh]
	-----------------------------------------------------------

  Dipole Moment: [D]
     X:     1.1837      Y:     2.0693      Z:     0.0000     Total:     2.3839

*** Psi4 exiting successfully. Buy a developer a beer!
