                               Psi4 1.4a3.dev225

  ==> Input File <==

--------------------------------------------------------------------------
#psi4
#
memory 32 gb

molecule  {
0 1
  N        0.5963620     0.0240630    -0.0000100
  N       -0.0914470    -1.1353650    -0.0000170
  C       -0.2099680     1.1214940     0.0000230
  C        2.0462730    -0.0202480    -0.0000060
  C       -1.5131730     0.6485270     0.0000150
  C       -1.3848740    -0.7486420    -0.0000060
  H        0.1985450     2.1230060     0.0000470
  H        2.4611232    -0.6394781     1.0542660
  H        2.3968520    -0.5436990    -0.8908890
  H        2.4236260     1.0030860    -0.0000880
  H       -2.4195430     1.2372430     0.0000190
  H       -2.1602880    -1.5037500    -0.0000180
units angstrom
no_reorient  #important for SAPT in psi4, default
symmetry c1  #important for SAPT in psi4, default
}

set PROPERTIES_ORIGIN ["COM"]
properties('MP2/aug-cc-pvtz', properties = ['dipole'])
--------------------------------------------------------------------------

    Molecular point group: c1
  Charge       = 0
  Multiplicity = 1
  Basis Set: AUG-CC-PVTZ
    Blend: AUG-CC-PVTZ
  Basis Set: (AUG-CC-PVTZ AUX)
    Blend: AUG-CC-PVTZ-JKFIT

    Orbital Energies [Eh]
    ---------------------

    Doubly Occupied:

       1A    -15.644183     2A    -15.583102     3A    -11.295689
       4A    -11.276981     5A    -11.252445     6A    -11.221119
       7A     -1.374085     8A     -1.115528     9A     -1.055505
      10A     -0.936212    11A     -0.805529    12A     -0.770888
      13A     -0.713644    14A     -0.641498    15A     -0.608345
      16A     -0.582512    17A     -0.569756    18A     -0.547282
      19A     -0.518080    20A     -0.457112    21A     -0.349053
      22A     -0.341717

  @DF-RHF Final Energy:  -263.89799316985477

   => Energetics <=

    Nuclear Repulsion Energy =            225.4370552474439933
    One-Electron Energy =                -803.3495615649338788
    Two-Electron Energy =                 314.0145131476351708
    Total Energy =                       -263.8979931698547716
  Basis Set: (AUG-CC-PVTZ AUX)
    Blend: AUG-CC-PVTZ-RI
    Molecular point group: c1

    Geometry (in Angstrom), charge = 0, multiplicity = 1:

       Center              X                  Y                   Z               Mass
    ------------   -----------------  -----------------  -----------------  -----------------
         N            0.629846800566     0.046713531694    -0.002015396967    14.003074004430
         N           -0.057962199434    -1.112714468306    -0.002022396967    14.003074004430
         C           -0.176483199434     1.144144531694    -0.001982396967    12.000000000000
         C            2.079757800566     0.002402531694    -0.002011396967    12.000000000000
         C           -1.479688199434     0.671177531694    -0.001990396967    12.000000000000
         C           -1.351389199434    -0.725991468306    -0.002011396967    12.000000000000
         H            0.232029800566     2.145656531694    -0.001958396967     1.007825032230
         H            2.494608000566    -0.616827568306     1.052260603033     1.007825032230
         H            2.430336800566    -0.521048468306    -0.892894396967     1.007825032230
         H            2.457110800566     1.025736531694    -0.002093396967     1.007825032230
         H           -2.386058199434     1.259893531694    -0.001986396967     1.007825032230
         H           -2.126803199434    -1.481099468306    -0.002023396967     1.007825032230

  Basis Set: AUG-CC-PVTZ
    Blend: AUG-CC-PVTZ
  Basis Set: (AUG-CC-PVTZ AUX)
    Blend: AUG-CC-PVTZ-JKFIT
	 Reference Energy          =    -263.8979931698547716 [Eh]
	 Singles Energy            =      -0.0000000000000000 [Eh]
	 Same-Spin Energy          =      -0.2884007422353680 [Eh]
	 Opposite-Spin Energy      =      -0.9030377906508843 [Eh]
	 Correlation Energy        =      -1.1914385328862522 [Eh]
	 Total Energy              =    -265.0894317027410239 [Eh]

	 ================> DF-SCS-MP2 Energies <==================
	-----------------------------------------------------------
	 SCS Same-Spin Scale       =       0.3333333333333333 [-]
	 SCS Opposite-Spin Scale   =       1.2000000000000000 [-]
	 SCS Same-Spin Energy      =      -0.0961335807451227 [Eh]
	 SCS Opposite-Spin Energy  =      -1.0836453487810611 [Eh]
	 SCS Correlation Energy    =      -1.1797789295261838 [Eh]
	 SCS Total Energy          =    -265.0777720993809794 [Eh]
	-----------------------------------------------------------

  Dipole Moment: [D]
     X:     1.2114      Y:     2.0812      Z:    -0.0614     Total:     2.4089

*** Psi4 exiting successfully. Buy a developer a beer!
