                               Psi4 1.4a3.dev225

  ==> Input File <==

--------------------------------------------------------------------------
#psi4
#
memory 32 gb

molecule  {
0 1
  N        0.5963620     0.0240630    -0.0000100
  N       -0.0914470    -1.1353650    -0.0000170
  C       -0.2099680     1.1214940     0.0000230
  C        2.0462730    -0.0202480    -0.0000060
  C       -1.5131730     0.6485270     0.0000150
  C       -1.3848740    -0.7486420    -0.0000060
  H        0.1985450     2.1230060     0.0000470
  H        2.3968620    -0.5435580     0.8909570
  H        2.3397900    -0.6348646    -0.8524573
  H        2.4236260     1.0030860    -0.0000880
  H       -2.4195430     1.2372430     0.0000190
  H       -2.1602880    -1.5037500    -0.0000180
units angstrom
no_reorient  #important for SAPT in psi4, default
symmetry c1  #important for SAPT in psi4, default
}

set PROPERTIES_ORIGIN ["COM"]
properties('MP2/aug-cc-pvtz', properties = ['dipole'])
--------------------------------------------------------------------------

    Molecular point group: c1
  Charge       = 0
  Multiplicity = 1
  Basis Set: AUG-CC-PVTZ
    Blend: AUG-CC-PVTZ
  Basis Set: (AUG-CC-PVTZ AUX)
    Blend: AUG-CC-PVTZ-JKFIT

    Orbital Energies [Eh]
    ---------------------

    Doubly Occupied:

       1A    -15.641207     2A    -15.582012     3A    -11.274893
       4A    -11.274467     5A    -11.250894     6A    -11.219309
       7A     -1.372699     8A     -1.116464     9A     -1.054846
      10A     -0.945308    11A     -0.804224    12A     -0.771797
      13A     -0.713160    14A     -0.648254    15A     -0.617092
      16A     -0.580191    17A     -0.571636    18A     -0.548643
      19A     -0.540157    20A     -0.456243    21A     -0.348191
      22A     -0.340524

  @DF-RHF Final Energy:  -263.91699500105921

   => Energetics <=

    Nuclear Repulsion Energy =            226.3020000176320536
    One-Electron Energy =                -805.0935673318637100
    Two-Electron Energy =                 314.8745723131724503
    Total Energy =                       -263.9169950010592061
  Basis Set: (AUG-CC-PVTZ AUX)
    Blend: AUG-CC-PVTZ-RI
    Molecular point group: c1

    Geometry (in Angstrom), charge = 0, multiplicity = 1:

       Center              X                  Y                   Z               Mass
    ------------   -----------------  -----------------  -----------------  -----------------
         N            0.631336964382     0.046655134093    -0.000481579578    14.003074004430
         N           -0.056472035618    -1.112772865907    -0.000488579578    14.003074004430
         C           -0.174993035618     1.144086134093    -0.000448579578    12.000000000000
         C            2.081247964382     0.002344134093    -0.000477579578    12.000000000000
         C           -1.478198035618     0.671119134093    -0.000456579578    12.000000000000
         C           -1.349899035618    -0.726049865907    -0.000477579578    12.000000000000
         H            0.233519964382     2.145598134093    -0.000424579578     1.007825032230
         H            2.431836964382    -0.520965865907     0.890485420422     1.007825032230
         H            2.374764964382    -0.612272465907    -0.852928879578     1.007825032230
         H            2.458600964382     1.025678134093    -0.000559579578     1.007825032230
         H           -2.384568035618     1.259835134093    -0.000452579578     1.007825032230
         H           -2.125313035618    -1.481157865907    -0.000489579578     1.007825032230

  Basis Set: AUG-CC-PVTZ
    Blend: AUG-CC-PVTZ
  Basis Set: (AUG-CC-PVTZ AUX)
    Blend: AUG-CC-PVTZ-JKFIT
	 Reference Energy          =    -263.9169950010592061 [Eh]
	 Singles Energy            =      -0.0000000000000000 [Eh]
	 Same-Spin Energy          =      -0.2884505071960213 [Eh]
	 Opposite-Spin Energy      =      -0.9015670311999151 [Eh]
	 Correlation Energy        =      -1.1900175383959364 [Eh]
	 Total Energy              =    -265.1070125394551269 [Eh]

	 ================> DF-SCS-MP2 Energies <==================
	-----------------------------------------------------------
	 SCS Same-Spin Scale       =       0.3333333333333333 [-]
	 SCS Opposite-Spin Scale   =       1.2000000000000000 [-]
	 SCS Same-Spin Energy      =      -0.0961501690653404 [Eh]
	 SCS Opposite-Spin Energy  =      -1.0818804374398980 [Eh]
	 SCS Correlation Energy    =      -1.1780306065052384 [Eh]
	 SCS Total Energy          =    -265.0950256075644234 [Eh]
	-----------------------------------------------------------

  Dipole Moment: [D]
     X:     1.3403      Y:     2.0291      Z:     0.0252     Total:     2.4320

*** Psi4 exiting successfully. Buy a developer a beer!
