                               Psi4 1.4a3.dev225

  ==> Input File <==

--------------------------------------------------------------------------
#psi4
#
memory 32 gb

molecule  {
0 1
  N        0.5963620     0.0240630    -0.0000100
  N       -0.0505646    -1.1586629    -0.0000181
  C       -0.2099680     1.1214940     0.0000230
  C        2.0462730    -0.0202480    -0.0000060
  C       -1.5131730     0.6485270     0.0000150
  C       -1.3848740    -0.7486420    -0.0000060
  H        0.1985450     2.1230060     0.0000470
  H        2.3968620    -0.5435580     0.8909570
  H        2.3968520    -0.5436990    -0.8908890
  H        2.4236260     1.0030860    -0.0000880
  H       -2.4195430     1.2372430     0.0000190
  H       -2.1602880    -1.5037500    -0.0000180
units angstrom
no_reorient  #important for SAPT in psi4, default
symmetry c1  #important for SAPT in psi4, default
}

set PROPERTIES_ORIGIN ["COM"]
properties('MP2/aug-cc-pvtz', properties = ['dipole'])
--------------------------------------------------------------------------

    Molecular point group: c1
  Charge       = 0
  Multiplicity = 1
  Basis Set: AUG-CC-PVTZ
    Blend: AUG-CC-PVTZ
  Basis Set: (AUG-CC-PVTZ AUX)
    Blend: AUG-CC-PVTZ-JKFIT

    Orbital Energies [Eh]
    ---------------------

    Doubly Occupied:

       1A    -15.645174     2A    -15.587606     3A    -11.276443
       4A    -11.273450     5A    -11.256169     6A    -11.222754
       7A     -1.369368     8A     -1.106347     9A     -1.058696
      10A     -0.944243    11A     -0.800603    12A     -0.773905
      13A     -0.714195    14A     -0.649417    15A     -0.612061
      16A     -0.578720    17A     -0.568833    18A     -0.542339
      19A     -0.542326    20A     -0.462133    21A     -0.347709
      22A     -0.338587

  @DF-RHF Final Energy:  -263.91161766646593

   => Energetics <=

    Nuclear Repulsion Energy =            225.4533246180982928
    One-Electron Energy =                -803.3877241699470915
    Two-Electron Energy =                 314.0227818853829262
    Total Energy =                       -263.9116176664659292
  Basis Set: (AUG-CC-PVTZ AUX)
    Blend: AUG-CC-PVTZ-RI
    Molecular point group: c1

    Geometry (in Angstrom), charge = 0, multiplicity = 1:

       Center              X                  Y                   Z               Mass
    ------------   -----------------  -----------------  -----------------  -----------------
         N            0.623659158200     0.049511372909    -0.000009350819    14.003074004430
         N           -0.023267441800    -1.133214527091    -0.000017450819    14.003074004430
         C           -0.182670841800     1.146942372909     0.000023649181    12.000000000000
         C            2.073570158200     0.005200372909    -0.000005350819    12.000000000000
         C           -1.485875841800     0.673975372909     0.000015649181    12.000000000000
         C           -1.357576841800    -0.723193627091    -0.000005350819    12.000000000000
         H            0.225842158200     2.148454372909     0.000047649181     1.007825032230
         H            2.424159158200    -0.518109627091     0.890957649181     1.007825032230
         H            2.424149158200    -0.518250627091    -0.890888350819     1.007825032230
         H            2.450923158200     1.028534372909    -0.000087350819     1.007825032230
         H           -2.392245841800     1.262691372909     0.000019649181     1.007825032230
         H           -2.132990841800    -1.478301627091    -0.000017350819     1.007825032230

  Basis Set: AUG-CC-PVTZ
    Blend: AUG-CC-PVTZ
  Basis Set: (AUG-CC-PVTZ AUX)
    Blend: AUG-CC-PVTZ-JKFIT
	 Reference Energy          =    -263.9116176664659292 [Eh]
	 Singles Energy            =      -0.0000000000000000 [Eh]
	 Same-Spin Energy          =      -0.2896147790467685 [Eh]
	 Opposite-Spin Energy      =      -0.9042294466753611 [Eh]
	 Correlation Energy        =      -1.1938442257221296 [Eh]
	 Total Energy              =    -265.1054618921880319 [Eh]

	 ================> DF-SCS-MP2 Energies <==================
	-----------------------------------------------------------
	 SCS Same-Spin Scale       =       0.3333333333333333 [-]
	 SCS Opposite-Spin Scale   =       1.2000000000000000 [-]
	 SCS Same-Spin Energy      =      -0.0965382596822562 [Eh]
	 SCS Opposite-Spin Energy  =      -1.0850753360104333 [Eh]
	 SCS Correlation Energy    =      -1.1816135956926894 [Eh]
	 SCS Total Energy          =    -265.0932312621586107 [Eh]
	-----------------------------------------------------------

  Dipole Moment: [D]
     X:     1.2851      Y:     2.1328      Z:     0.0000     Total:     2.4900

*** Psi4 exiting successfully. Buy a developer a beer!
