                               Psi4 1.4a3.dev225

  ==> Input File <==

--------------------------------------------------------------------------
#psi4
#
memory 32 gb

molecule  {
0 1
  N        0.6755641    -0.0267404    -0.0000109
  N       -0.0914470    -1.1353650    -0.0000170
  C       -0.2099680     1.1214940     0.0000230
  C        2.0462730    -0.0202480    -0.0000060
  C       -1.5131730     0.6485270     0.0000150
  C       -1.3848740    -0.7486420    -0.0000060
  H        0.1985450     2.1230060     0.0000470
  H        2.3968620    -0.5435580     0.8909570
  H        2.3968520    -0.5436990    -0.8908890
  H        2.4236260     1.0030860    -0.0000880
  H       -2.4195430     1.2372430     0.0000190
  H       -2.1602880    -1.5037500    -0.0000180
units angstrom
no_reorient  #important for SAPT in psi4, default
symmetry c1  #important for SAPT in psi4, default
}

set PROPERTIES_ORIGIN ["COM"]
properties('MP2/aug-cc-pvtz', properties = ['dipole'])
--------------------------------------------------------------------------

    Molecular point group: c1
  Charge       = 0
  Multiplicity = 1
  Basis Set: AUG-CC-PVTZ
    Blend: AUG-CC-PVTZ
  Basis Set: (AUG-CC-PVTZ AUX)
    Blend: AUG-CC-PVTZ-JKFIT

    Orbital Energies [Eh]
    ---------------------

    Doubly Occupied:

       1A    -15.639833     2A    -15.588096     3A    -11.281561
       4A    -11.266700     5A    -11.253736     6A    -11.228236
       7A     -1.364490     8A     -1.133338     9A     -1.045022
      10A     -0.943844    11A     -0.801617    12A     -0.774936
      13A     -0.710548    14A     -0.654931    15A     -0.619430
      16A     -0.607206    17A     -0.561780    18A     -0.543091
      19A     -0.535001    20A     -0.446256    21A     -0.351105
      22A     -0.335316

  @DF-RHF Final Energy:  -263.90241671660442

   => Energetics <=

    Nuclear Repulsion Energy =            225.5174173634509600
    One-Electron Energy =                -803.4675227368085189
    Two-Electron Energy =                 314.0476886567531665
    Total Energy =                       -263.9024167166044208
  Basis Set: (AUG-CC-PVTZ AUX)
    Blend: AUG-CC-PVTZ-RI
    Molecular point group: c1

    Geometry (in Angstrom), charge = 0, multiplicity = 1:

       Center              X                  Y                   Z               Mass
    ------------   -----------------  -----------------  -----------------  -----------------
         N            0.696321668511     0.003402025425    -0.000010284951    14.003074004430
         N           -0.070689431489    -1.105222574575    -0.000016384951    14.003074004430
         C           -0.189210431489     1.151636425425     0.000023615049    12.000000000000
         C            2.067030568511     0.009894425425    -0.000005384951    12.000000000000
         C           -1.492415431489     0.678669425425     0.000015615049    12.000000000000
         C           -1.364116431489    -0.718499574575    -0.000005384951    12.000000000000
         H            0.219302568511     2.153148425425     0.000047615049     1.007825032230
         H            2.417619568511    -0.513415574575     0.890957615049     1.007825032230
         H            2.417609568511    -0.513556574575    -0.890888384951     1.007825032230
         H            2.444383568511     1.033228425425    -0.000087384951     1.007825032230
         H           -2.398785431489     1.267385425425     0.000019615049     1.007825032230
         H           -2.139530431489    -1.473607574575    -0.000017384951     1.007825032230

  Basis Set: AUG-CC-PVTZ
    Blend: AUG-CC-PVTZ
  Basis Set: (AUG-CC-PVTZ AUX)
    Blend: AUG-CC-PVTZ-JKFIT
	 Reference Energy          =    -263.9024167166044208 [Eh]
	 Singles Energy            =      -0.0000000000000000 [Eh]
	 Same-Spin Energy          =      -0.2893478337816993 [Eh]
	 Opposite-Spin Energy      =      -0.9037121171112269 [Eh]
	 Correlation Energy        =      -1.1930599508929260 [Eh]
	 Total Energy              =    -265.0954766674973371 [Eh]

	 ================> DF-SCS-MP2 Energies <==================
	-----------------------------------------------------------
	 SCS Same-Spin Scale       =       0.3333333333333333 [-]
	 SCS Opposite-Spin Scale   =       1.2000000000000000 [-]
	 SCS Same-Spin Energy      =      -0.0964492779272331 [Eh]
	 SCS Opposite-Spin Energy  =      -1.0844545405334722 [Eh]
	 SCS Correlation Energy    =      -1.1809038184607052 [Eh]
	 SCS Total Energy          =    -265.0833205350651269 [Eh]
	-----------------------------------------------------------

  Dipole Moment: [D]
     X:     1.1146      Y:     2.0762      Z:     0.0000     Total:     2.3565

*** Psi4 exiting successfully. Buy a developer a beer!
