                               Psi4 1.4a3.dev225

  ==> Input File <==

--------------------------------------------------------------------------
#psi4
#
memory 32 gb

molecule  {
0 1
  N        0.5963620     0.0240630    -0.0000100
  N       -0.0711074    -1.1471923    -0.0000176
  C       -0.2099680     1.1214940     0.0000230
  C        2.0462730    -0.0202480    -0.0000060
  C       -1.5131730     0.6485270     0.0000150
  C       -1.3848740    -0.7486420    -0.0000060
  H        0.1985450     2.1230060     0.0000470
  H        2.3968620    -0.5435580     0.8909570
  H        2.3968520    -0.5436990    -0.8908890
  H        2.4236260     1.0030860    -0.0000880
  H       -2.4195430     1.2372430     0.0000190
  H       -2.1602880    -1.5037500    -0.0000180
units angstrom
no_reorient  #important for SAPT in psi4, default
symmetry c1  #important for SAPT in psi4, default
}

set PROPERTIES_ORIGIN ["COM"]
properties('MP2/aug-cc-pvtz', properties = ['dipole'])
--------------------------------------------------------------------------

    Molecular point group: c1
  Charge       = 0
  Multiplicity = 1
  Basis Set: AUG-CC-PVTZ
    Blend: AUG-CC-PVTZ
  Basis Set: (AUG-CC-PVTZ AUX)
    Blend: AUG-CC-PVTZ-JKFIT

    Orbital Energies [Eh]
    ---------------------

    Doubly Occupied:

       1A    -15.643458     2A    -15.584956     3A    -11.275811
       4A    -11.273935     5A    -11.253596     6A    -11.221180
       7A     -1.370948     8A     -1.111163     9A     -1.056751
      10A     -0.944879    11A     -0.802272    12A     -0.773255
      13A     -0.714265    14A     -0.649715    15A     -0.612221
      16A     -0.579908    17A     -0.569375    18A     -0.543936
      19A     -0.543723    20A     -0.459406    21A     -0.347479
      22A     -0.340537

  @DF-RHF Final Energy:  -263.91550307682422

   => Energetics <=

    Nuclear Repulsion Energy =            225.8225657434834091
    One-Electron Energy =                -804.1305965265577242
    Two-Electron Energy =                 314.3925277062500641
    Total Energy =                       -263.9155030768242227
  Basis Set: (AUG-CC-PVTZ AUX)
    Blend: AUG-CC-PVTZ-RI
    Molecular point group: c1

    Geometry (in Angstrom), charge = 0, multiplicity = 1:

       Center              X                  Y                   Z               Mass
    ------------   -----------------  -----------------  -----------------  -----------------
         N            0.627164965475     0.047553815374    -0.000009436149    14.003074004430
         N           -0.040304434525    -1.123701484626    -0.000017036149    14.003074004430
         C           -0.179165034525     1.144984815374     0.000023563851    12.000000000000
         C            2.077075965475     0.003242815374    -0.000005436149    12.000000000000
         C           -1.482370034525     0.672017815374     0.000015563851    12.000000000000
         C           -1.354071034525    -0.725151184626    -0.000005436149    12.000000000000
         H            0.229347965475     2.146496815374     0.000047563851     1.007825032230
         H            2.427664965475    -0.520067184626     0.890957563851     1.007825032230
         H            2.427654965475    -0.520208184626    -0.890888436149     1.007825032230
         H            2.454428965475     1.026576815374    -0.000087436149     1.007825032230
         H           -2.388740034525     1.260733815374     0.000019563851     1.007825032230
         H           -2.129485034525    -1.480259184626    -0.000017436149     1.007825032230

  Basis Set: AUG-CC-PVTZ
    Blend: AUG-CC-PVTZ
  Basis Set: (AUG-CC-PVTZ AUX)
    Blend: AUG-CC-PVTZ-JKFIT
	 Reference Energy          =    -263.9155030768242227 [Eh]
	 Singles Energy            =      -0.0000000000000000 [Eh]
	 Same-Spin Energy          =      -0.2889613555604095 [Eh]
	 Opposite-Spin Energy      =      -0.9028020250330033 [Eh]
	 Correlation Energy        =      -1.1917633805934127 [Eh]
	 Total Energy              =    -265.1072664574176088 [Eh]

	 ================> DF-SCS-MP2 Energies <==================
	-----------------------------------------------------------
	 SCS Same-Spin Scale       =       0.3333333333333333 [-]
	 SCS Opposite-Spin Scale   =       1.2000000000000000 [-]
	 SCS Same-Spin Energy      =      -0.0963204518534698 [Eh]
	 SCS Opposite-Spin Energy  =      -1.0833624300396039 [Eh]
	 SCS Correlation Energy    =      -1.1796828818930736 [Eh]
	 SCS Total Energy          =    -265.0951859587173089 [Eh]
	-----------------------------------------------------------

  Dipole Moment: [D]
     X:     1.3127      Y:     2.0965      Z:     0.0000     Total:     2.4736

*** Psi4 exiting successfully. Buy a developer a beer!
