                               Psi4 1.4a3.dev225

  ==> Input File <==

--------------------------------------------------------------------------
#psi4
#
memory 32 gb

molecule  {
0 1
  N        0.5963620     0.0240630    -0.0000100
  N       -0.0914470    -1.1353650    -0.0000170
  C       -0.2099680     1.1214940     0.0000230
  C        2.0462730    -0.0202480    -0.0000060
  C       -1.5131730     0.6485270     0.0000150
  C       -1.3848740    -0.7486420    -0.0000060
  H        0.1985450     2.1230060     0.0000470
  H        2.3968620    -0.5435580     0.8909570
  H        2.3968520    -0.5436990    -0.8908890
  H        2.3890284     0.9092617    -0.0000805
  H       -2.4195430     1.2372430     0.0000190
  H       -2.1602880    -1.5037500    -0.0000180
units angstrom
no_reorient  #important for SAPT in psi4, default
symmetry c1  #important for SAPT in psi4, default
}

set PROPERTIES_ORIGIN ["COM"]
properties('MP2/aug-cc-pvtz', properties = ['dipole'])
--------------------------------------------------------------------------

    Molecular point group: c1
  Charge       = 0
  Multiplicity = 1
  Basis Set: AUG-CC-PVTZ
    Blend: AUG-CC-PVTZ
  Basis Set: (AUG-CC-PVTZ AUX)
    Blend: AUG-CC-PVTZ-JKFIT

    Orbital Energies [Eh]
    ---------------------

    Doubly Occupied:

       1A    -15.641091     2A    -15.581635     3A    -11.274996
       4A    -11.262326     5A    -11.250447     6A    -11.219442
       7A     -1.372357     8A     -1.118694     9A     -1.054578
      10A     -0.953967    11A     -0.805202    12A     -0.773664
      13A     -0.716981    14A     -0.649289    15A     -0.622241
      16A     -0.582704    17A     -0.572773    18A     -0.550753
      19A     -0.544512    20A     -0.455680    21A     -0.348680
      22A     -0.340465

  @DF-RHF Final Energy:  -263.91223613619070

   => Energetics <=

    Nuclear Repulsion Energy =            226.6588095307481581
    One-Electron Energy =                -805.7571378447283905
    Two-Electron Energy =                 315.1860921777895328
    Total Energy =                       -263.9122361361906997
  Basis Set: (AUG-CC-PVTZ AUX)
    Blend: AUG-CC-PVTZ-RI
    Molecular point group: c1

    Geometry (in Angstrom), charge = 0, multiplicity = 1:

       Center              X                  Y                   Z               Mass
    ------------   -----------------  -----------------  -----------------  -----------------
         N            0.631061043239     0.046687789830    -0.000009630663    14.003074004430
         N           -0.056747956761    -1.112740210170    -0.000016630663    14.003074004430
         C           -0.175268956761     1.144118789830     0.000023369337    12.000000000000
         C            2.080972043239     0.002376789830    -0.000005630663    12.000000000000
         C           -1.478473956761     0.671151789830     0.000015369337    12.000000000000
         C           -1.350174956761    -0.726017210170    -0.000005630663    12.000000000000
         H            0.233244043239     2.145630789830     0.000047369337     1.007825032230
         H            2.431561043239    -0.520933210170     0.890957369337     1.007825032230
         H            2.431551043239    -0.521074210170    -0.890888630663     1.007825032230
         H            2.423727443239     0.931886489830    -0.000080130663     1.007825032230
         H           -2.384843956761     1.259867789830     0.000019369337     1.007825032230
         H           -2.125588956761    -1.481125210170    -0.000017630663     1.007825032230

  Basis Set: AUG-CC-PVTZ
    Blend: AUG-CC-PVTZ
  Basis Set: (AUG-CC-PVTZ AUX)
    Blend: AUG-CC-PVTZ-JKFIT
	 Reference Energy          =    -263.9122361361906997 [Eh]
	 Singles Energy            =      -0.0000000000000000 [Eh]
	 Same-Spin Energy          =      -0.2883198766676512 [Eh]
	 Opposite-Spin Energy      =      -0.9009127557353196 [Eh]
	 Correlation Energy        =      -1.1892326324029707 [Eh]
	 Total Energy              =    -265.1014687685936906 [Eh]

	 ================> DF-SCS-MP2 Energies <==================
	-----------------------------------------------------------
	 SCS Same-Spin Scale       =       0.3333333333333333 [-]
	 SCS Opposite-Spin Scale   =       1.2000000000000000 [-]
	 SCS Same-Spin Energy      =      -0.0961066255558837 [Eh]
	 SCS Opposite-Spin Energy  =      -1.0810953068823834 [Eh]
	 SCS Correlation Energy    =      -1.1772019324382672 [Eh]
	 SCS Total Energy          =    -265.0894380686289651 [Eh]
	-----------------------------------------------------------

  Dipole Moment: [D]
     X:     1.3648      Y:     2.0763      Z:     0.0000     Total:     2.4847

*** Psi4 exiting successfully. Buy a developer a beer!
