                               Psi4 1.4a3.dev225

  ==> Input File <==

--------------------------------------------------------------------------
#psi4
#
memory 32 gb

molecule  {
0 1
  N        0.4714009     0.0896071    -0.0000087
  N       -0.0914470    -1.1353650    -0.0000170
  C       -0.2099680     1.1214940     0.0000230
  C        2.0462730    -0.0202480    -0.0000060
  C       -1.5131730     0.6485270     0.0000150
  C       -1.3848740    -0.7486420    -0.0000060
  H        0.1985450     2.1230060     0.0000470
  H        2.3968620    -0.5435580     0.8909570
  H        2.3968520    -0.5436990    -0.8908890
  H        2.4236260     1.0030860    -0.0000880
  H       -2.4195430     1.2372430     0.0000190
  H       -2.1602880    -1.5037500    -0.0000180
units angstrom
no_reorient  #important for SAPT in psi4, default
symmetry c1  #important for SAPT in psi4, default
}

set PROPERTIES_ORIGIN ["COM"]
properties('MP2/aug-cc-pvtz', properties = ['dipole'])
--------------------------------------------------------------------------

    Molecular point group: c1
  Charge       = 0
  Multiplicity = 1
  Basis Set: AUG-CC-PVTZ
    Blend: AUG-CC-PVTZ
  Basis Set: (AUG-CC-PVTZ AUX)
    Blend: AUG-CC-PVTZ-JKFIT

    Orbital Energies [Eh]
    ---------------------

    Doubly Occupied:

       1A    -15.642991     2A    -15.574253     3A    -11.285417
       4A    -11.263998     5A    -11.247178     6A    -11.206966
       7A     -1.395687     8A     -1.119845     9A     -1.057575
      10A     -0.944358    11A     -0.808120    12A     -0.767158
      13A     -0.720794    14A     -0.651109    15A     -0.604432
      16A     -0.584906    17A     -0.562364    18A     -0.546133
      19A     -0.531694    20A     -0.465628    21A     -0.364699
      22A     -0.329483

  @DF-RHF Final Energy:  -263.88961541461754

   => Energetics <=

    Nuclear Repulsion Energy =            227.6337963808085476
    One-Electron Energy =                -807.6972434194900643
    Two-Electron Energy =                 316.1738316240639506
    Total Energy =                       -263.8896154146175377
  Basis Set: (AUG-CC-PVTZ AUX)
    Blend: AUG-CC-PVTZ-RI
    Molecular point group: c1

    Geometry (in Angstrom), charge = 0, multiplicity = 1:

       Center              X                  Y                   Z               Mass
    ------------   -----------------  -----------------  -----------------  -----------------
         N            0.527000692159     0.099893813838    -0.000008460400    14.003074004430
         N           -0.035847207841    -1.125078286162    -0.000016760400    14.003074004430
         C           -0.154368207841     1.131780713838     0.000023239600    12.000000000000
         C            2.101872792159    -0.009961286162    -0.000005760400    12.000000000000
         C           -1.457573207841     0.658813713838     0.000015239600    12.000000000000
         C           -1.329274207841    -0.738355286162    -0.000005760400    12.000000000000
         H            0.254144792159     2.133292713838     0.000047239600     1.007825032230
         H            2.452461792159    -0.533271286162     0.890957239600     1.007825032230
         H            2.452451792159    -0.533412286162    -0.890888760400     1.007825032230
         H            2.479225792159     1.013372713838    -0.000087760400     1.007825032230
         H           -2.363943207841     1.247529713838     0.000019239600     1.007825032230
         H           -2.104688207841    -1.493463286162    -0.000017760400     1.007825032230

  Basis Set: AUG-CC-PVTZ
    Blend: AUG-CC-PVTZ
  Basis Set: (AUG-CC-PVTZ AUX)
    Blend: AUG-CC-PVTZ-JKFIT
	 Reference Energy          =    -263.8896154146175377 [Eh]
	 Singles Energy            =      -0.0000000000000000 [Eh]
	 Same-Spin Energy          =      -0.2878703620906658 [Eh]
	 Opposite-Spin Energy      =      -0.9006297122582210 [Eh]
	 Correlation Energy        =      -1.1885000743488867 [Eh]
	 Total Energy              =    -265.0781154889664322 [Eh]

	 ================> DF-SCS-MP2 Energies <==================
	-----------------------------------------------------------
	 SCS Same-Spin Scale       =       0.3333333333333333 [-]
	 SCS Opposite-Spin Scale   =       1.2000000000000000 [-]
	 SCS Same-Spin Energy      =      -0.0959567873635553 [Eh]
	 SCS Opposite-Spin Energy  =      -1.0807556547098651 [Eh]
	 SCS Correlation Energy    =      -1.1767124420734203 [Eh]
	 SCS Total Energy          =    -265.0663278566909753 [Eh]
	-----------------------------------------------------------

  Dipole Moment: [D]
     X:     1.6851      Y:     2.0782      Z:     0.0000     Total:     2.6755

*** Psi4 exiting successfully. Buy a developer a beer!
