                               Psi4 1.4a3.dev225

  ==> Input File <==

--------------------------------------------------------------------------
#psi4
#
memory 32 gb

molecule  {
0 1
  N        0.5963620     0.0240630    -0.0000100
  N       -0.0914470    -1.1353650    -0.0000170
  C       -0.2691782     1.2020803     0.0000254
  C        2.0462730    -0.0202480    -0.0000060
  C       -1.5131730     0.6485270     0.0000150
  C       -1.3848740    -0.7486420    -0.0000060
  H        0.1985450     2.1230060     0.0000470
  H        2.3968620    -0.5435580     0.8909570
  H        2.3968520    -0.5436990    -0.8908890
  H        2.4236260     1.0030860    -0.0000880
  H       -2.4195430     1.2372430     0.0000190
  H       -2.1602880    -1.5037500    -0.0000180
units angstrom
no_reorient  #important for SAPT in psi4, default
symmetry c1  #important for SAPT in psi4, default
}

set PROPERTIES_ORIGIN ["COM"]
properties('MP2/aug-cc-pvtz', properties = ['dipole'])
--------------------------------------------------------------------------

    Molecular point group: c1
  Charge       = 0
  Multiplicity = 1
  Basis Set: AUG-CC-PVTZ
    Blend: AUG-CC-PVTZ
  Basis Set: (AUG-CC-PVTZ AUX)
    Blend: AUG-CC-PVTZ-JKFIT

    Orbital Energies [Eh]
    ---------------------

    Doubly Occupied:

       1A    -15.635708     2A    -15.592829     3A    -11.276503
       4A    -11.269824     5A    -11.250718     6A    -11.225731
       7A     -1.356515     8A     -1.107804     9A     -1.056681
      10A     -0.935977    11A     -0.803729    12A     -0.775188
      13A     -0.712793    14A     -0.640131    15A     -0.613789
      16A     -0.592140    17A     -0.564639    18A     -0.541361
      19A     -0.539326    20A     -0.458454    21A     -0.353243
      22A     -0.336087

  @DF-RHF Final Energy:  -263.90367590033088

   => Energetics <=

    Nuclear Repulsion Energy =            224.6677223689066523
    One-Electron Energy =                -801.8644610103625610
    Two-Electron Energy =                 313.2930627411250271
    Total Energy =                       -263.9036759003308816
  Basis Set: (AUG-CC-PVTZ AUX)
    Blend: AUG-CC-PVTZ-RI
    Molecular point group: c1

    Geometry (in Angstrom), charge = 0, multiplicity = 1:

       Center              X                  Y                   Z               Mass
    ------------   -----------------  -----------------  -----------------  -----------------
         N            0.639295394988     0.033749898374    -0.000009889536    14.003074004430
         N           -0.048513605012    -1.125678101626    -0.000016889536    14.003074004430
         C           -0.226244805012     1.211767198374     0.000025510464    12.000000000000
         C            2.089206394988    -0.010561101626    -0.000005889536    12.000000000000
         C           -1.470239605012     0.658213898374     0.000015110464    12.000000000000
         C           -1.341940605012    -0.738955101626    -0.000005889536    12.000000000000
         H            0.241478394988     2.132692898374     0.000047110464     1.007825032230
         H            2.439795394988    -0.533871101626     0.890957110464     1.007825032230
         H            2.439785394988    -0.534012101626    -0.890888889536     1.007825032230
         H            2.466559394988     1.012772898374    -0.000087889536     1.007825032230
         H           -2.376609605012     1.246929898374     0.000019110464     1.007825032230
         H           -2.117354605012    -1.494063101626    -0.000017889536     1.007825032230

  Basis Set: AUG-CC-PVTZ
    Blend: AUG-CC-PVTZ
  Basis Set: (AUG-CC-PVTZ AUX)
    Blend: AUG-CC-PVTZ-JKFIT
	 Reference Energy          =    -263.9036759003308816 [Eh]
	 Singles Energy            =      -0.0000000000000000 [Eh]
	 Same-Spin Energy          =      -0.2892159593435806 [Eh]
	 Opposite-Spin Energy      =      -0.9043326167053224 [Eh]
	 Correlation Energy        =      -1.1935485760489031 [Eh]
	 Total Energy              =    -265.0972244763797789 [Eh]

	 ================> DF-SCS-MP2 Energies <==================
	-----------------------------------------------------------
	 SCS Same-Spin Scale       =       0.3333333333333333 [-]
	 SCS Opposite-Spin Scale   =       1.2000000000000000 [-]
	 SCS Same-Spin Energy      =      -0.0964053197811935 [Eh]
	 SCS Opposite-Spin Energy  =      -1.0851991400463867 [Eh]
	 SCS Correlation Energy    =      -1.1816044598275803 [Eh]
	 SCS Total Energy          =    -265.0852803601584355 [Eh]
	-----------------------------------------------------------

  Dipole Moment: [D]
     X:     1.1787      Y:     2.0708      Z:     0.0000     Total:     2.3828

*** Psi4 exiting successfully. Buy a developer a beer!
