                               Psi4 1.4a3.dev225

  ==> Input File <==

--------------------------------------------------------------------------
#psi4
#
memory 32 gb

molecule  {
0 1
  N        0.4772321    -0.0542096    -0.0000117
  N       -0.0914470    -1.1353650    -0.0000170
  C       -0.2099680     1.1214940     0.0000230
  C        2.0462730    -0.0202480    -0.0000060
  C       -1.5131730     0.6485270     0.0000150
  C       -1.3848740    -0.7486420    -0.0000060
  H        0.1985450     2.1230060     0.0000470
  H        2.3968620    -0.5435580     0.8909570
  H        2.3968520    -0.5436990    -0.8908890
  H        2.4236260     1.0030860    -0.0000880
  H       -2.4195430     1.2372430     0.0000190
  H       -2.1602880    -1.5037500    -0.0000180
units angstrom
no_reorient  #important for SAPT in psi4, default
symmetry c1  #important for SAPT in psi4, default
}

set PROPERTIES_ORIGIN ["COM"]
properties('MP2/aug-cc-pvtz', properties = ['dipole'])
--------------------------------------------------------------------------

    Molecular point group: c1
  Charge       = 0
  Multiplicity = 1
  Basis Set: AUG-CC-PVTZ
    Blend: AUG-CC-PVTZ
  Basis Set: (AUG-CC-PVTZ AUX)
    Blend: AUG-CC-PVTZ-JKFIT

    Orbital Energies [Eh]
    ---------------------

    Doubly Occupied:

       1A    -15.652657     2A    -15.582860     3A    -11.282357
       4A    -11.261615     5A    -11.236423     6A    -11.218718
       7A     -1.433101     8A     -1.093889     9A     -1.071297
      10A     -0.942810    11A     -0.814893    12A     -0.765093
      13A     -0.719542    14A     -0.659883    15A     -0.607069
      16A     -0.592410    17A     -0.564449    18A     -0.548003
      19A     -0.543463    20A     -0.458537    21A     -0.354415
      22A     -0.329585

  @DF-RHF Final Energy:  -263.89106557889443

   => Energetics <=

    Nuclear Repulsion Energy =            227.9805277322894597
    One-Electron Energy =                -808.2770447051775591
    Two-Electron Energy =                 316.4054513939936442
    Total Energy =                       -263.8910655788944268
  Basis Set: (AUG-CC-PVTZ AUX)
    Blend: AUG-CC-PVTZ-RI
    Molecular point group: c1

    Geometry (in Angstrom), charge = 0, multiplicity = 1:

       Center              X                  Y                   Z               Mass
    ------------   -----------------  -----------------  -----------------  -----------------
         N            0.531836747224    -0.019379316970    -0.000010948424    14.003074004430
         N           -0.036842352776    -1.100534716970    -0.000016248424    14.003074004430
         C           -0.155363352776     1.156324283030     0.000023751576    12.000000000000
         C            2.100877647224     0.014582283030    -0.000005248424    12.000000000000
         C           -1.458568352776     0.683357283030     0.000015751576    12.000000000000
         C           -1.330269352776    -0.713811716970    -0.000005248424    12.000000000000
         H            0.253149647224     2.157836283030     0.000047751576     1.007825032230
         H            2.451466647224    -0.508727716970     0.890957751576     1.007825032230
         H            2.451456647224    -0.508868716970    -0.890888248424     1.007825032230
         H            2.478230647224     1.037916283030    -0.000087248424     1.007825032230
         H           -2.364938352776     1.272073283030     0.000019751576     1.007825032230
         H           -2.105683352776    -1.468919716970    -0.000017248424     1.007825032230

  Basis Set: AUG-CC-PVTZ
    Blend: AUG-CC-PVTZ
  Basis Set: (AUG-CC-PVTZ AUX)
    Blend: AUG-CC-PVTZ-JKFIT
	 Reference Energy          =    -263.8910655788944268 [Eh]
	 Singles Energy            =      -0.0000000000000000 [Eh]
	 Same-Spin Energy          =      -0.2890991684048163 [Eh]
	 Opposite-Spin Energy      =      -0.9010305179799905 [Eh]
	 Correlation Energy        =      -1.1901296863848068 [Eh]
	 Total Energy              =    -265.0811952652792343 [Eh]

	 ================> DF-SCS-MP2 Energies <==================
	-----------------------------------------------------------
	 SCS Same-Spin Scale       =       0.3333333333333333 [-]
	 SCS Opposite-Spin Scale   =       1.2000000000000000 [-]
	 SCS Same-Spin Energy      =      -0.0963663894682721 [Eh]
	 SCS Opposite-Spin Energy  =      -1.0812366215759885 [Eh]
	 SCS Correlation Energy    =      -1.1776030110442606 [Eh]
	 SCS Total Energy          =    -265.0686685899386816 [Eh]
	-----------------------------------------------------------

  Dipole Moment: [D]
     X:     1.5946      Y:     2.0458      Z:     0.0000     Total:     2.5938

*** Psi4 exiting successfully. Buy a developer a beer!
