                               Psi4 1.4a3.dev225

  ==> Input File <==

--------------------------------------------------------------------------
#psi4
#
memory 32 gb

molecule  {
0 1
  N        0.5963620     0.0240630    -0.0000100
  N       -0.0914470    -1.1353650    -0.0000170
  C       -0.2099680     1.1214940     0.0000230
  C        2.2461797    -0.0263574    -0.0000054
  C       -1.5131730     0.6485270     0.0000150
  C       -1.3848740    -0.7486420    -0.0000060
  H        0.1985450     2.1230060     0.0000470
  H        2.3968620    -0.5435580     0.8909570
  H        2.3968520    -0.5436990    -0.8908890
  H        2.4236260     1.0030860    -0.0000880
  H       -2.4195430     1.2372430     0.0000190
  H       -2.1602880    -1.5037500    -0.0000180
units angstrom
no_reorient  #important for SAPT in psi4, default
symmetry c1  #important for SAPT in psi4, default
}

set PROPERTIES_ORIGIN ["COM"]
properties('MP2/aug-cc-pvtz', properties = ['dipole'])
--------------------------------------------------------------------------

    Molecular point group: c1
  Charge       = 0
  Multiplicity = 1
  Basis Set: AUG-CC-PVTZ
    Blend: AUG-CC-PVTZ
  Basis Set: (AUG-CC-PVTZ AUX)
    Blend: AUG-CC-PVTZ-JKFIT

    Orbital Energies [Eh]
    ---------------------

    Doubly Occupied:

       1A    -15.633750     2A    -15.575659     3A    -11.286942
       4A    -11.266497     5A    -11.242649     6A    -11.212422
       7A     -1.352609     8A     -1.087305     9A     -1.043930
      10A     -0.959522    11A     -0.792036    12A     -0.760621
      13A     -0.697566    14A     -0.654803    15A     -0.634006
      16A     -0.574291    17A     -0.567494    18A     -0.548383
      19A     -0.532562    20A     -0.446358    21A     -0.342917
      22A     -0.333681

  @DF-RHF Final Energy:  -263.88918926248846

   => Energetics <=

    Nuclear Repulsion Energy =            222.9548320304657238
    One-Electron Energy =                -798.5960391865008887
    Two-Electron Energy =                 311.7520178935467356
    Total Energy =                       -263.8891892624884576
  Basis Set: (AUG-CC-PVTZ AUX)
    Blend: AUG-CC-PVTZ-RI
    Molecular point group: c1

    Geometry (in Angstrom), charge = 0, multiplicity = 1:

       Center              X                  Y                   Z               Mass
    ------------   -----------------  -----------------  -----------------  -----------------
         N            0.601400387144     0.046428863858    -0.000009626292    14.003074004430
         N           -0.086408612856    -1.112999136142    -0.000016626292    14.003074004430
         C           -0.204929612856     1.143859863858     0.000023373708    12.000000000000
         C            2.251218087144    -0.003991536142    -0.000005026292    12.000000000000
         C           -1.508134612856     0.670892863858     0.000015373708    12.000000000000
         C           -1.379835612856    -0.726276136142    -0.000005626292    12.000000000000
         H            0.203583387144     2.145371863858     0.000047373708     1.007825032230
         H            2.401900387144    -0.521192136142     0.890957373708     1.007825032230
         H            2.401890387144    -0.521333136142    -0.890888626292     1.007825032230
         H            2.428664387144     1.025451863858    -0.000087626292     1.007825032230
         H           -2.414504612856     1.259608863858     0.000019373708     1.007825032230
         H           -2.155249612856    -1.481384136142    -0.000017626292     1.007825032230

  Basis Set: AUG-CC-PVTZ
    Blend: AUG-CC-PVTZ
  Basis Set: (AUG-CC-PVTZ AUX)
    Blend: AUG-CC-PVTZ-JKFIT
	 Reference Energy          =    -263.8891892624884576 [Eh]
	 Singles Energy            =      -0.0000000000000000 [Eh]
	 Same-Spin Energy          =      -0.2887901995575198 [Eh]
	 Opposite-Spin Energy      =      -0.9039076252228446 [Eh]
	 Correlation Energy        =      -1.1926978247803643 [Eh]
	 Total Energy              =    -265.0818870872687967 [Eh]

	 ================> DF-SCS-MP2 Energies <==================
	-----------------------------------------------------------
	 SCS Same-Spin Scale       =       0.3333333333333333 [-]
	 SCS Opposite-Spin Scale   =       1.2000000000000000 [-]
	 SCS Same-Spin Energy      =      -0.0962633998525066 [Eh]
	 SCS Opposite-Spin Energy  =      -1.0846891502674134 [Eh]
	 SCS Correlation Energy    =      -1.1809525501199201 [Eh]
	 SCS Total Energy          =    -265.0701418126083695 [Eh]
	-----------------------------------------------------------

  Dipole Moment: [D]
     X:     1.8944      Y:     2.0223      Z:     0.0000     Total:     2.7710

*** Psi4 exiting successfully. Buy a developer a beer!
