                               Psi4 1.4a3.dev225

  ==> Input File <==

--------------------------------------------------------------------------
#psi4
#
memory 32 gb

molecule  {
0 1
  N        0.6709507     0.0829830    -0.0000087
  N       -0.0914470    -1.1353650    -0.0000170
  C       -0.2099680     1.1214940     0.0000230
  C        2.0462730    -0.0202480    -0.0000060
  C       -1.5131730     0.6485270     0.0000150
  C       -1.3848740    -0.7486420    -0.0000060
  H        0.1985450     2.1230060     0.0000470
  H        2.3968620    -0.5435580     0.8909570
  H        2.3968520    -0.5436990    -0.8908890
  H        2.4236260     1.0030860    -0.0000880
  H       -2.4195430     1.2372430     0.0000190
  H       -2.1602880    -1.5037500    -0.0000180
units angstrom
no_reorient  #important for SAPT in psi4, default
symmetry c1  #important for SAPT in psi4, default
}

set PROPERTIES_ORIGIN ["COM"]
properties('MP2/aug-cc-pvtz', properties = ['dipole'])
--------------------------------------------------------------------------

    Molecular point group: c1
  Charge       = 0
  Multiplicity = 1
  Basis Set: AUG-CC-PVTZ
    Blend: AUG-CC-PVTZ
  Basis Set: (AUG-CC-PVTZ AUX)
    Blend: AUG-CC-PVTZ-JKFIT

    Orbital Energies [Eh]
    ---------------------

    Doubly Occupied:

       1A    -15.635759     2A    -15.582914     3A    -11.284945
       4A    -11.267989     5A    -11.260603     6A    -11.220958
       7A     -1.347652     8A     -1.134205     9A     -1.047341
      10A     -0.947030    11A     -0.797742    12A     -0.777477
      13A     -0.711284    14A     -0.650352    15A     -0.618598
      16A     -0.600721    17A     -0.563061    18A     -0.537825
      19A     -0.533516    20A     -0.446952    21A     -0.360126
      22A     -0.334022

  @DF-RHF Final Energy:  -263.90469939483654

   => Energetics <=

    Nuclear Repulsion Energy =            225.2746724492826900
    One-Electron Energy =                -803.0365965450413341
    Two-Electron Energy =                 313.8572247009221314
    Total Energy =                       -263.9046993948365412
  Basis Set: (AUG-CC-PVTZ AUX)
    Blend: AUG-CC-PVTZ-RI
    Molecular point group: c1

    Geometry (in Angstrom), charge = 0, multiplicity = 1:

       Center              X                  Y                   Z               Mass
    ------------   -----------------  -----------------  -----------------  -----------------
         N            0.692495585298     0.094400174046    -0.000008460400    14.003074004430
         N           -0.069902114702    -1.123947825954    -0.000016760400    14.003074004430
         C           -0.188423114702     1.132911174046     0.000023239600    12.000000000000
         C            2.067817885298    -0.008830825954    -0.000005760400    12.000000000000
         C           -1.491628114702     0.659944174046     0.000015239600    12.000000000000
         C           -1.363329114702    -0.737224825954    -0.000005760400    12.000000000000
         H            0.220089885298     2.134423174046     0.000047239600     1.007825032230
         H            2.418406885298    -0.532140825954     0.890957239600     1.007825032230
         H            2.418396885298    -0.532281825954    -0.890888760400     1.007825032230
         H            2.445170885298     1.014503174046    -0.000087760400     1.007825032230
         H           -2.397998114702     1.248660174046     0.000019239600     1.007825032230
         H           -2.138743114702    -1.492332825954    -0.000017760400     1.007825032230

  Basis Set: AUG-CC-PVTZ
    Blend: AUG-CC-PVTZ
  Basis Set: (AUG-CC-PVTZ AUX)
    Blend: AUG-CC-PVTZ-JKFIT
	 Reference Energy          =    -263.9046993948365412 [Eh]
	 Singles Energy            =      -0.0000000000000000 [Eh]
	 Same-Spin Energy          =      -0.2885936075666145 [Eh]
	 Opposite-Spin Energy      =      -0.9035886702567887 [Eh]
	 Correlation Energy        =      -1.1921822778234032 [Eh]
	 Total Energy              =    -265.0968816726599471 [Eh]

	 ================> DF-SCS-MP2 Energies <==================
	-----------------------------------------------------------
	 SCS Same-Spin Scale       =       0.3333333333333333 [-]
	 SCS Opposite-Spin Scale   =       1.2000000000000000 [-]
	 SCS Same-Spin Energy      =      -0.0961978691888715 [Eh]
	 SCS Opposite-Spin Energy  =      -1.0843064043081463 [Eh]
	 SCS Correlation Energy    =      -1.1805042734970177 [Eh]
	 SCS Total Energy          =    -265.0852036683335768 [Eh]
	-----------------------------------------------------------

  Dipole Moment: [D]
     X:     1.1200      Y:     2.0189      Z:     0.0000     Total:     2.3087

*** Psi4 exiting successfully. Buy a developer a beer!
