                               Psi4 1.4a3.dev225

  ==> Input File <==

--------------------------------------------------------------------------
#psi4
#
memory 32 gb

molecule  {
0 1
  N        0.5963620     0.0240630    -0.0000100
  N       -0.0914470    -1.1353650    -0.0000170
  C       -0.1981260     1.1053767     0.0000225
  C        2.0462730    -0.0202480    -0.0000060
  C       -1.5131730     0.6485270     0.0000150
  C       -1.3848740    -0.7486420    -0.0000060
  H        0.1985450     2.1230060     0.0000470
  H        2.3968620    -0.5435580     0.8909570
  H        2.3968520    -0.5436990    -0.8908890
  H        2.4236260     1.0030860    -0.0000880
  H       -2.4195430     1.2372430     0.0000190
  H       -2.1602880    -1.5037500    -0.0000180
units angstrom
no_reorient  #important for SAPT in psi4, default
symmetry c1  #important for SAPT in psi4, default
}

set PROPERTIES_ORIGIN ["COM"]
properties('MP2/aug-cc-pvtz', properties = ['dipole'])
--------------------------------------------------------------------------

    Molecular point group: c1
  Charge       = 0
  Multiplicity = 1
  Basis Set: AUG-CC-PVTZ
    Blend: AUG-CC-PVTZ
  Basis Set: (AUG-CC-PVTZ AUX)
    Blend: AUG-CC-PVTZ-JKFIT

    Orbital Energies [Eh]
    ---------------------

    Doubly Occupied:

       1A    -15.642796     2A    -15.579942     3A    -11.275387
       4A    -11.275055     5A    -11.250961     6A    -11.218512
       7A     -1.376720     8A     -1.118282     9A     -1.054522
      10A     -0.947697    11A     -0.805181    12A     -0.771087
      13A     -0.714602    14A     -0.652386    15A     -0.612775
      16A     -0.583129    17A     -0.567649    18A     -0.546566
      19A     -0.544261    20A     -0.455426    21A     -0.351580
      22A     -0.338592

  @DF-RHF Final Energy:  -263.91882722838727

   => Energetics <=

    Nuclear Repulsion Energy =            226.5283642574454745
    One-Electron Energy =                -805.5281688926186234
    Two-Electron Energy =                 315.0809774067859053
    Total Energy =                       -263.9188272283872720
  Basis Set: (AUG-CC-PVTZ AUX)
    Blend: AUG-CC-PVTZ-RI
    Molecular point group: c1

    Geometry (in Angstrom), charge = 0, multiplicity = 1:

       Center              X                  Y                   Z               Mass
    ------------   -----------------  -----------------  -----------------  -----------------
         N            0.628904240739     0.047892486837    -0.000009465421    14.003074004430
         N           -0.058904759261    -1.111535513163    -0.000016465421    14.003074004430
         C           -0.165583759261     1.129206186837     0.000023034579    12.000000000000
         C            2.078815240739     0.003581486837    -0.000005465421    12.000000000000
         C           -1.480630759261     0.672356486837     0.000015534579    12.000000000000
         C           -1.352331759261    -0.724812513163    -0.000005465421    12.000000000000
         H            0.231087240739     2.146835486837     0.000047534579     1.007825032230
         H            2.429404240739    -0.519728513163     0.890957534579     1.007825032230
         H            2.429394240739    -0.519869513163    -0.890888465421     1.007825032230
         H            2.456168240739     1.026915486837    -0.000087465421     1.007825032230
         H           -2.387000759261     1.261072486837     0.000019534579     1.007825032230
         H           -2.127745759261    -1.479920513163    -0.000017465421     1.007825032230

  Basis Set: AUG-CC-PVTZ
    Blend: AUG-CC-PVTZ
  Basis Set: (AUG-CC-PVTZ AUX)
    Blend: AUG-CC-PVTZ-JKFIT
	 Reference Energy          =    -263.9188272283872720 [Eh]
	 Singles Energy            =      -0.0000000000000000 [Eh]
	 Same-Spin Energy          =      -0.2881574915123101 [Eh]
	 Opposite-Spin Energy      =      -0.9009143082809192 [Eh]
	 Correlation Energy        =      -1.1890717997932294 [Eh]
	 Total Energy              =    -265.1078990281804977 [Eh]

	 ================> DF-SCS-MP2 Energies <==================
	-----------------------------------------------------------
	 SCS Same-Spin Scale       =       0.3333333333333333 [-]
	 SCS Opposite-Spin Scale   =       1.2000000000000000 [-]
	 SCS Same-Spin Energy      =      -0.0960524971707700 [Eh]
	 SCS Opposite-Spin Energy  =      -1.0810971699371030 [Eh]
	 SCS Correlation Energy    =      -1.1771496671078732 [Eh]
	 SCS Total Energy          =    -265.0959768954951414 [Eh]
	-----------------------------------------------------------

  Dipole Moment: [D]
     X:     1.3751      Y:     2.0564      Z:     0.0000     Total:     2.4737

*** Psi4 exiting successfully. Buy a developer a beer!
