                               Psi4 1.4a3.dev225

  ==> Input File <==

--------------------------------------------------------------------------
#psi4
#
memory 32 gb

molecule  {
0 1
  N        0.5963620     0.0240630    -0.0000100
  N       -0.0914470    -1.1353650    -0.0000170
  C       -0.2099680     1.1214940     0.0000230
  C        2.0462730    -0.0202480    -0.0000060
  C       -1.5131730     0.6485270     0.0000150
  C       -1.3848740    -0.7486420    -0.0000060
  H        0.1985450     2.1230060     0.0000470
  H        2.3968620    -0.5435580     0.8909570
  H        2.4289817    -0.5916720    -0.9725362
  H        2.4236260     1.0030860    -0.0000880
  H       -2.4195430     1.2372430     0.0000190
  H       -2.1602880    -1.5037500    -0.0000180
units angstrom
no_reorient  #important for SAPT in psi4, default
symmetry c1  #important for SAPT in psi4, default
}

set PROPERTIES_ORIGIN ["COM"]
properties('MP2/aug-cc-pvtz', properties = ['dipole'])
--------------------------------------------------------------------------

    Molecular point group: c1
  Charge       = 0
  Multiplicity = 1
  Basis Set: AUG-CC-PVTZ
    Blend: AUG-CC-PVTZ
  Basis Set: (AUG-CC-PVTZ AUX)
    Blend: AUG-CC-PVTZ-JKFIT

    Orbital Energies [Eh]
    ---------------------

    Doubly Occupied:

       1A    -15.642826     2A    -15.582551     3A    -11.285473
       4A    -11.275968     5A    -11.251583     6A    -11.220259
       7A     -1.373268     8A     -1.115510     9A     -1.054970
      10A     -0.939853    11A     -0.804718    12A     -0.771262
      13A     -0.713632    14A     -0.644538    15A     -0.610103
      16A     -0.581732    17A     -0.569439    18A     -0.546215
      19A     -0.533135    20A     -0.456568    21A     -0.349052
      22A     -0.341169

  @DF-RHF Final Energy:  -263.91175580354820

   => Energetics <=

    Nuclear Repulsion Energy =            225.7997131704253491
    One-Electron Energy =                -804.0952916609223848
    Two-Electron Energy =                 314.3838226869488608
    Total Energy =                       -263.9117558035482034
  Basis Set: (AUG-CC-PVTZ AUX)
    Blend: AUG-CC-PVTZ-RI
    Molecular point group: c1

    Geometry (in Angstrom), charge = 0, multiplicity = 1:

       Center              X                  Y                   Z               Mass
    ------------   -----------------  -----------------  -----------------  -----------------
         N            0.630241458790     0.046124616849     0.000993301005    14.003074004430
         N           -0.057567541210    -1.113303383151     0.000986301005    14.003074004430
         C           -0.176088541210     1.143555616849     0.001026301005    12.000000000000
         C            2.080152458790     0.001813616849     0.000997301005    12.000000000000
         C           -1.479293541210     0.670588616849     0.001018301005    12.000000000000
         C           -1.350994541210    -0.726580383151     0.000997301005    12.000000000000
         H            0.232424458790     2.145067616849     0.001050301005     1.007825032230
         H            2.430741458790    -0.521496383151     0.891960301005     1.007825032230
         H            2.462861158790    -0.569610383151    -0.971532898995     1.007825032230
         H            2.457505458790     1.025147616849     0.000915301005     1.007825032230
         H           -2.385663541210     1.259304616849     0.001022301005     1.007825032230
         H           -2.126408541210    -1.481688383151     0.000985301005     1.007825032230

  Basis Set: AUG-CC-PVTZ
    Blend: AUG-CC-PVTZ
  Basis Set: (AUG-CC-PVTZ AUX)
    Blend: AUG-CC-PVTZ-JKFIT
	 Reference Energy          =    -263.9117558035482034 [Eh]
	 Singles Energy            =      -0.0000000000000000 [Eh]
	 Same-Spin Energy          =      -0.2883590166557337 [Eh]
	 Opposite-Spin Energy      =      -0.9021564284489416 [Eh]
	 Correlation Energy        =      -1.1905154451046753 [Eh]
	 Total Energy              =    -265.1022712486528690 [Eh]

	 ================> DF-SCS-MP2 Energies <==================
	-----------------------------------------------------------
	 SCS Same-Spin Scale       =       0.3333333333333333 [-]
	 SCS Opposite-Spin Scale   =       1.2000000000000000 [-]
	 SCS Same-Spin Energy      =      -0.0961196722185779 [Eh]
	 SCS Opposite-Spin Energy  =      -1.0825877141387299 [Eh]
	 SCS Correlation Energy    =      -1.1787073863573079 [Eh]
	 SCS Total Energy          =    -265.0904631899055062 [Eh]
	-----------------------------------------------------------

  Dipole Moment: [D]
     X:     1.2841      Y:     2.0664      Z:     0.0253     Total:     2.4330

*** Psi4 exiting successfully. Buy a developer a beer!
