                               Psi4 1.4a3.dev225

  ==> Input File <==

--------------------------------------------------------------------------
#psi4
#
memory 32 gb

molecule  {
0 1
  N        0.5963620     0.0240630    -0.0000100
  N       -0.0914470    -1.1353650    -0.0000170
  C       -0.2099680     1.1214940     0.0000230
  C        2.0462730    -0.0202480    -0.0000060
  C       -1.7011745     0.5802964     0.0000138
  C       -1.3848740    -0.7486420    -0.0000060
  H        0.1985450     2.1230060     0.0000470
  H        2.3968620    -0.5435580     0.8909570
  H        2.3968520    -0.5436990    -0.8908890
  H        2.4236260     1.0030860    -0.0000880
  H       -2.4195430     1.2372430     0.0000190
  H       -2.1602880    -1.5037500    -0.0000180
units angstrom
no_reorient  #important for SAPT in psi4, default
symmetry c1  #important for SAPT in psi4, default
}

set PROPERTIES_ORIGIN ["COM"]
properties('MP2/aug-cc-pvtz', properties = ['dipole'])
--------------------------------------------------------------------------

    Molecular point group: c1
  Charge       = 0
  Multiplicity = 1
  Basis Set: AUG-CC-PVTZ
    Blend: AUG-CC-PVTZ
  Basis Set: (AUG-CC-PVTZ AUX)
    Blend: AUG-CC-PVTZ-JKFIT

    Orbital Energies [Eh]
    ---------------------

    Doubly Occupied:

       1A    -15.660130     2A    -15.573100     3A    -11.294982
       4A    -11.280313     5A    -11.252974     6A    -11.228186
       7A     -1.371263     8A     -1.120508     9A     -1.033121
      10A     -0.959524    11A     -0.817642    12A     -0.767743
      13A     -0.715536    14A     -0.651893    15A     -0.646562
      16A     -0.592573    17A     -0.570236    18A     -0.543997
      19A     -0.496783    20A     -0.457963    21A     -0.362937
      22A     -0.318536

  @DF-RHF Final Energy:  -263.87214248568785

   => Energetics <=

    Nuclear Repulsion Energy =            223.8016045799688243
    One-Electron Energy =                -799.9144834278719145
    Two-Electron Energy =                 312.2407363622152161
    Total Energy =                       -263.8721424856878457
  Basis Set: (AUG-CC-PVTZ AUX)
    Blend: AUG-CC-PVTZ-RI
    Molecular point group: c1

    Geometry (in Angstrom), charge = 0, multiplicity = 1:

       Center              X                  Y                   Z               Mass
    ------------   -----------------  -----------------  -----------------  -----------------
         N            0.658130705706     0.055513888267    -0.000009363048    14.003074004430
         N           -0.029678294294    -1.103914111733    -0.000016363048    14.003074004430
         C           -0.148199294294     1.152944888267     0.000023636952    12.000000000000
         C            2.108041705706     0.011202888267    -0.000005363048    12.000000000000
         C           -1.639405794294     0.611747288267     0.000014436952    12.000000000000
         C           -1.323105294294    -0.717191111733    -0.000005363048    12.000000000000
         H            0.260313705706     2.154456888267     0.000047636952     1.007825032230
         H            2.458630705706    -0.512107111733     0.890957636952     1.007825032230
         H            2.458620705706    -0.512248111733    -0.890888363048     1.007825032230
         H            2.485394705706     1.034536888267    -0.000087363048     1.007825032230
         H           -2.357774294294     1.268693888267     0.000019636952     1.007825032230
         H           -2.098519294294    -1.472299111733    -0.000017363048     1.007825032230

  Basis Set: AUG-CC-PVTZ
    Blend: AUG-CC-PVTZ
  Basis Set: (AUG-CC-PVTZ AUX)
    Blend: AUG-CC-PVTZ-JKFIT
	 Reference Energy          =    -263.8721424856878457 [Eh]
	 Singles Energy            =      -0.0000000000000000 [Eh]
	 Same-Spin Energy          =      -0.2897993574459347 [Eh]
	 Opposite-Spin Energy      =      -0.9058577187708087 [Eh]
	 Correlation Energy        =      -1.1956570762167433 [Eh]
	 Total Energy              =    -265.0677995619045646 [Eh]

	 ================> DF-SCS-MP2 Energies <==================
	-----------------------------------------------------------
	 SCS Same-Spin Scale       =       0.3333333333333333 [-]
	 SCS Opposite-Spin Scale   =       1.2000000000000000 [-]
	 SCS Same-Spin Energy      =      -0.0965997858153115 [Eh]
	 SCS Opposite-Spin Energy  =      -1.0870292625249705 [Eh]
	 SCS Correlation Energy    =      -1.1836290483402820 [Eh]
	 SCS Total Energy          =    -265.0557715340281106 [Eh]
	-----------------------------------------------------------

  Dipole Moment: [D]
     X:     1.5330      Y:     2.0353      Z:     0.0000     Total:     2.5481

*** Psi4 exiting successfully. Buy a developer a beer!
