                               Psi4 1.4a3.dev225

  ==> Input File <==

--------------------------------------------------------------------------
#psi4
#
memory 32 gb

molecule  {
0 1
  N        0.5963620     0.0240630    -0.0000100
  N       -0.1314915    -1.1106545    -0.0000159
  C       -0.2099680     1.1214940     0.0000230
  C        2.0462730    -0.0202480    -0.0000060
  C       -1.5131730     0.6485270     0.0000150
  C       -1.3848740    -0.7486420    -0.0000060
  H        0.1985450     2.1230060     0.0000470
  H        2.3968620    -0.5435580     0.8909570
  H        2.3968520    -0.5436990    -0.8908890
  H        2.4236260     1.0030860    -0.0000880
  H       -2.4195430     1.2372430     0.0000190
  H       -2.1602880    -1.5037500    -0.0000180
units angstrom
no_reorient  #important for SAPT in psi4, default
symmetry c1  #important for SAPT in psi4, default
}

set PROPERTIES_ORIGIN ["COM"]
properties('MP2/aug-cc-pvtz', properties = ['dipole'])
--------------------------------------------------------------------------

    Molecular point group: c1
  Charge       = 0
  Multiplicity = 1
  Basis Set: AUG-CC-PVTZ
    Blend: AUG-CC-PVTZ
  Basis Set: (AUG-CC-PVTZ AUX)
    Blend: AUG-CC-PVTZ-JKFIT

    Orbital Energies [Eh]
    ---------------------

    Doubly Occupied:

       1A    -15.638458     2A    -15.576241     3A    -11.275448
       4A    -11.273831     5A    -11.245312     6A    -11.216469
       7A     -1.376861     8A     -1.127004     9A     -1.050738
      10A     -0.947141    11A     -0.808027    12A     -0.770291
      13A     -0.714632    14A     -0.650957    15A     -0.613426
      16A     -0.585170    17A     -0.570114    18A     -0.548490
      19A     -0.548113    20A     -0.448398    21A     -0.355554
      22A     -0.338337

  @DF-RHF Final Energy:  -263.92066449470138

   => Energetics <=

    Nuclear Repulsion Energy =            227.0103539322231541
    One-Electron Energy =                -806.5040116026707437
    Two-Electron Energy =                 315.5729931757462623
    Total Energy =                       -263.9206644947013842
  Basis Set: (AUG-CC-PVTZ AUX)
    Blend: AUG-CC-PVTZ-RI
    Molecular point group: c1

    Geometry (in Angstrom), charge = 0, multiplicity = 1:

       Center              X                  Y                   Z               Mass
    ------------   -----------------  -----------------  -----------------  -----------------
         N            0.637470036698     0.041318322400    -0.000009726269    14.003074004430
         N           -0.090383463302    -1.093399177600    -0.000015626269    14.003074004430
         C           -0.168859963302     1.138749322400     0.000023273731    12.000000000000
         C            2.087381036698    -0.002992677600    -0.000005726269    12.000000000000
         C           -1.472064963302     0.665782322400     0.000015273731    12.000000000000
         C           -1.343765963302    -0.731386677600    -0.000005726269    12.000000000000
         H            0.239653036698     2.140261322400     0.000047273731     1.007825032230
         H            2.437970036698    -0.526302677600     0.890957273731     1.007825032230
         H            2.437960036698    -0.526443677600    -0.890888726269     1.007825032230
         H            2.464734036698     1.020341322400    -0.000087726269     1.007825032230
         H           -2.378434963302     1.254498322400     0.000019273731     1.007825032230
         H           -2.119179963302    -1.486494677600    -0.000017726269     1.007825032230

  Basis Set: AUG-CC-PVTZ
    Blend: AUG-CC-PVTZ
  Basis Set: (AUG-CC-PVTZ AUX)
    Blend: AUG-CC-PVTZ-JKFIT
	 Reference Energy          =    -263.9206644947013842 [Eh]
	 Singles Energy            =      -0.0000000000000000 [Eh]
	 Same-Spin Energy          =      -0.2871238877808191 [Eh]
	 Opposite-Spin Energy      =      -0.8989114201220934 [Eh]
	 Correlation Energy        =      -1.1860353079029125 [Eh]
	 Total Energy              =    -265.1066998026042825 [Eh]

	 ================> DF-SCS-MP2 Energies <==================
	-----------------------------------------------------------
	 SCS Same-Spin Scale       =       0.3333333333333333 [-]
	 SCS Opposite-Spin Scale   =       1.2000000000000000 [-]
	 SCS Same-Spin Energy      =      -0.0957079625936064 [Eh]
	 SCS Opposite-Spin Energy  =      -1.0786937041465119 [Eh]
	 SCS Correlation Energy    =      -1.1744016667401183 [Eh]
	 SCS Total Energy          =    -265.0950661614414798 [Eh]
	-----------------------------------------------------------

  Dipole Moment: [D]
     X:     1.3961      Y:     1.9707      Z:     0.0000     Total:     2.4151

*** Psi4 exiting successfully. Buy a developer a beer!
