                               Psi4 1.4a3.dev225

  ==> Input File <==

--------------------------------------------------------------------------
#psi4
#
memory 32 gb

molecule  {
0 1
  N        0.5963620     0.0240630    -0.0000100
  N       -0.0914470    -1.1353650    -0.0000170
  C       -0.2099680     1.1214940     0.0000230
  C        2.0462730    -0.0202480    -0.0000060
  C       -1.5131730     0.6485270     0.0000150
  C       -1.3848740    -0.7486420    -0.0000060
  H        0.2363135     2.2155994     0.0000492
  H        2.3968620    -0.5435580     0.8909570
  H        2.3968520    -0.5436990    -0.8908890
  H        2.4236260     1.0030860    -0.0000880
  H       -2.4195430     1.2372430     0.0000190
  H       -2.1602880    -1.5037500    -0.0000180
units angstrom
no_reorient  #important for SAPT in psi4, default
symmetry c1  #important for SAPT in psi4, default
}

set PROPERTIES_ORIGIN ["COM"]
properties('MP2/aug-cc-pvtz', properties = ['dipole'])
--------------------------------------------------------------------------

    Molecular point group: c1
  Charge       = 0
  Multiplicity = 1
  Basis Set: AUG-CC-PVTZ
    Blend: AUG-CC-PVTZ
  Basis Set: (AUG-CC-PVTZ AUX)
    Blend: AUG-CC-PVTZ-JKFIT

    Orbital Energies [Eh]
    ---------------------

    Doubly Occupied:

       1A    -15.642441     2A    -15.582639     3A    -11.285761
       4A    -11.274249     5A    -11.251594     6A    -11.220351
       7A     -1.373229     8A     -1.116181     9A     -1.052777
      10A     -0.945609    11A     -0.802045    12A     -0.765411
      13A     -0.704210    14A     -0.650284    15A     -0.610327
      16A     -0.581706    17A     -0.562010    18A     -0.545453
      19A     -0.543278    20A     -0.456296    21A     -0.349584
      22A     -0.341185

  @DF-RHF Final Energy:  -263.91075099581599

   => Energetics <=

    Nuclear Repulsion Energy =            225.7461467700135529
    One-Electron Energy =                -804.0005542379709595
    Two-Electron Energy =                 314.3436564721414470
    Total Energy =                       -263.9107509958159881
  Basis Set: (AUG-CC-PVTZ AUX)
    Blend: AUG-CC-PVTZ-RI
    Molecular point group: c1

    Geometry (in Angstrom), charge = 0, multiplicity = 1:

       Center              X                  Y                   Z               Mass
    ------------   -----------------  -----------------  -----------------  -----------------
         N            0.630172199690     0.044398096587    -0.000009565566    14.003074004430
         N           -0.057636800310    -1.115029903413    -0.000016565566    14.003074004430
         C           -0.176157800310     1.141829096587     0.000023434434    12.000000000000
         C            2.080083199690     0.000087096587    -0.000005565566    12.000000000000
         C           -1.479362800310     0.668862096587     0.000015434434    12.000000000000
         C           -1.351063800310    -0.728306903413    -0.000005565566    12.000000000000
         H            0.270123699690     2.235934496587     0.000049634434     1.007825032230
         H            2.430672199690    -0.523222903413     0.890957434434     1.007825032230
         H            2.430662199690    -0.523363903413    -0.890888565566     1.007825032230
         H            2.457436199690     1.023421096587    -0.000087565566     1.007825032230
         H           -2.385732800310     1.257578096587     0.000019434434     1.007825032230
         H           -2.126477800310    -1.483414903413    -0.000017565566     1.007825032230

  Basis Set: AUG-CC-PVTZ
    Blend: AUG-CC-PVTZ
  Basis Set: (AUG-CC-PVTZ AUX)
    Blend: AUG-CC-PVTZ-JKFIT
	 Reference Energy          =    -263.9107509958159881 [Eh]
	 Singles Energy            =      -0.0000000000000000 [Eh]
	 Same-Spin Energy          =      -0.2885772442228347 [Eh]
	 Opposite-Spin Energy      =      -0.9023790547754238 [Eh]
	 Correlation Energy        =      -1.1909562989982585 [Eh]
	 Total Energy              =    -265.1017072948142186 [Eh]

	 ================> DF-SCS-MP2 Energies <==================
	-----------------------------------------------------------
	 SCS Same-Spin Scale       =       0.3333333333333333 [-]
	 SCS Opposite-Spin Scale   =       1.2000000000000000 [-]
	 SCS Same-Spin Energy      =      -0.0961924147409449 [Eh]
	 SCS Opposite-Spin Energy  =      -1.0828548657305086 [Eh]
	 SCS Correlation Energy    =      -1.1790472804714536 [Eh]
	 SCS Total Energy          =    -265.0897982762874676 [Eh]
	-----------------------------------------------------------

  Dipole Moment: [D]
     X:     1.3335      Y:     2.0496      Z:     0.0000     Total:     2.4452

*** Psi4 exiting successfully. Buy a developer a beer!
