                               Psi4 1.4a3.dev225

  ==> Input File <==

--------------------------------------------------------------------------
#psi4
#
memory 32 gb

molecule  {
0 1
  N        0.5963620     0.0240630    -0.0000100
  N       -0.0914470    -1.1353650    -0.0000170
  C       -0.2099680     1.1214940     0.0000230
  C        1.9463197    -0.0171933    -0.0000063
  C       -1.5131730     0.6485270     0.0000150
  C       -1.3848740    -0.7486420    -0.0000060
  H        0.1985450     2.1230060     0.0000470
  H        2.3968620    -0.5435580     0.8909570
  H        2.3968520    -0.5436990    -0.8908890
  H        2.4236260     1.0030860    -0.0000880
  H       -2.4195430     1.2372430     0.0000190
  H       -2.1602880    -1.5037500    -0.0000180
units angstrom
no_reorient  #important for SAPT in psi4, default
symmetry c1  #important for SAPT in psi4, default
}

set PROPERTIES_ORIGIN ["COM"]
properties('MP2/aug-cc-pvtz', properties = ['dipole'])
--------------------------------------------------------------------------

    Molecular point group: c1
  Charge       = 0
  Multiplicity = 1
  Basis Set: AUG-CC-PVTZ
    Blend: AUG-CC-PVTZ
  Basis Set: (AUG-CC-PVTZ AUX)
    Blend: AUG-CC-PVTZ-JKFIT

    Orbital Energies [Eh]
    ---------------------

    Doubly Occupied:

       1A    -15.642627     2A    -15.585151     3A    -11.279430
       4A    -11.273483     5A    -11.255501     6A    -11.223472
       7A     -1.387333     8A     -1.137220     9A     -1.060806
      10A     -0.940116    11A     -0.811301    12A     -0.778503
      13A     -0.723514    14A     -0.656275    15A     -0.613451
      16A     -0.600773    17A     -0.568425    18A     -0.529425
      19A     -0.526781    20A     -0.460318    21A     -0.350088
      22A     -0.343786

  @DF-RHF Final Energy:  -263.90773389620284

   => Energetics <=

    Nuclear Repulsion Energy =            228.0350097523821944
    One-Electron Energy =                -808.3899296510437580
    Two-Electron Energy =                 316.4471860024587500
    Total Energy =                       -263.9077338962028421
  Basis Set: (AUG-CC-PVTZ AUX)
    Blend: AUG-CC-PVTZ-RI
    Molecular point group: c1

    Geometry (in Angstrom), charge = 0, multiplicity = 1:

       Center              X                  Y                   Z               Mass
    ------------   -----------------  -----------------  -----------------  -----------------
         N            0.645253941474     0.045088643898    -0.000009494670    14.003074004430
         N           -0.042555058526    -1.114339356102    -0.000016494670    14.003074004430
         C           -0.161076058526     1.142519643898     0.000023505330    12.000000000000
         C            1.995211641474     0.003832343898    -0.000005794670    12.000000000000
         C           -1.464281058526     0.669552643898     0.000015505330    12.000000000000
         C           -1.335982058526    -0.727616356102    -0.000005494670    12.000000000000
         H            0.247436941474     2.144031643898     0.000047505330     1.007825032230
         H            2.445753941474    -0.522532356102     0.890957505330     1.007825032230
         H            2.445743941474    -0.522673356102    -0.890888494670     1.007825032230
         H            2.472517941474     1.024111643898    -0.000087494670     1.007825032230
         H           -2.370651058526     1.258268643898     0.000019505330     1.007825032230
         H           -2.111396058526    -1.482724356102    -0.000017494670     1.007825032230

  Basis Set: AUG-CC-PVTZ
    Blend: AUG-CC-PVTZ
  Basis Set: (AUG-CC-PVTZ AUX)
    Blend: AUG-CC-PVTZ-JKFIT
	 Reference Energy          =    -263.9077338962028421 [Eh]
	 Singles Energy            =      -0.0000000000000000 [Eh]
	 Same-Spin Energy          =      -0.2890263317661208 [Eh]
	 Opposite-Spin Energy      =      -0.9017829204939791 [Eh]
	 Correlation Energy        =      -1.1908092522600999 [Eh]
	 Total Energy              =    -265.0985431484629657 [Eh]

	 ================> DF-SCS-MP2 Energies <==================
	-----------------------------------------------------------
	 SCS Same-Spin Scale       =       0.3333333333333333 [-]
	 SCS Opposite-Spin Scale   =       1.2000000000000000 [-]
	 SCS Same-Spin Energy      =      -0.0963421105887069 [Eh]
	 SCS Opposite-Spin Energy  =      -1.0821395045927749 [Eh]
	 SCS Correlation Energy    =      -1.1784816151814819 [Eh]
	 SCS Total Energy          =    -265.0862155113842960 [Eh]
	-----------------------------------------------------------

  Dipole Moment: [D]
     X:     1.0177      Y:     2.0831      Z:     0.0000     Total:     2.3184

*** Psi4 exiting successfully. Buy a developer a beer!
