                               Psi4 1.4a3.dev225

  ==> Input File <==

--------------------------------------------------------------------------
#psi4
#
memory 32 gb

molecule  {
0 1
  N        0.5963620     0.0240630    -0.0000100
  N       -0.0914470    -1.1353650    -0.0000170
  C       -0.2099680     1.1214940     0.0000230
  C        2.0462730    -0.0202480    -0.0000060
  C       -1.5131730     0.6485270     0.0000150
  C       -1.3848740    -0.7486420    -0.0000060
  H        0.1985450     2.1230060     0.0000470
  H        2.3968620    -0.5435580     0.8909570
  H        2.3904261    -0.5341044    -0.8745596
  H        2.4236260     1.0030860    -0.0000880
  H       -2.4195430     1.2372430     0.0000190
  H       -2.1602880    -1.5037500    -0.0000180
units angstrom
no_reorient  #important for SAPT in psi4, default
symmetry c1  #important for SAPT in psi4, default
}

set PROPERTIES_ORIGIN ["COM"]
properties('MP2/aug-cc-pvtz', properties = ['dipole'])
--------------------------------------------------------------------------

    Molecular point group: c1
  Charge       = 0
  Multiplicity = 1
  Basis Set: AUG-CC-PVTZ
    Blend: AUG-CC-PVTZ
  Basis Set: (AUG-CC-PVTZ AUX)
    Blend: AUG-CC-PVTZ-JKFIT

    Orbital Energies [Eh]
    ---------------------

    Doubly Occupied:

       1A    -15.641583     2A    -15.582122     3A    -11.275030
       4A    -11.272133     5A    -11.250817     6A    -11.219499
       7A     -1.372635     8A     -1.116481     9A     -1.054763
      10A     -0.947017    11A     -0.804012    12A     -0.772736
      13A     -0.714616    14A     -0.651507    15A     -0.612994
      16A     -0.581438    17A     -0.569882    18A     -0.547212
      19A     -0.545293    20A     -0.456118    21A     -0.349123
      22A     -0.340688

  @DF-RHF Final Energy:  -263.91841570661086

   => Energetics <=

    Nuclear Repulsion Energy =            226.2921026493655745
    One-Electron Energy =                -805.0656394731272485
    Two-Electron Energy =                 314.8551211171508157
    Total Energy =                       -263.9184157066108583
  Basis Set: (AUG-CC-PVTZ AUX)
    Blend: AUG-CC-PVTZ-RI
    Molecular point group: c1

    Geometry (in Angstrom), charge = 0, multiplicity = 1:

       Center              X                  Y                   Z               Mass
    ------------   -----------------  -----------------  -----------------  -----------------
         N            0.630715021638     0.045417537292    -0.000210105962    14.003074004430
         N           -0.057093978362    -1.114010462708    -0.000217105962    14.003074004430
         C           -0.175614978362     1.142848537292    -0.000177105962    12.000000000000
         C            2.080626021638     0.001106537292    -0.000206105962    12.000000000000
         C           -1.478819978362     0.669881537292    -0.000185105962    12.000000000000
         C           -1.350520978362    -0.727287462708    -0.000206105962    12.000000000000
         H            0.232898021638     2.144360537292    -0.000153105962     1.007825032230
         H            2.431215021638    -0.522203462708     0.890756894038     1.007825032230
         H            2.424779121638    -0.512749862708    -0.874759705962     1.007825032230
         H            2.457979021638     1.024440537292    -0.000288105962     1.007825032230
         H           -2.385189978362     1.258597537292    -0.000181105962     1.007825032230
         H           -2.125934978362    -1.482395462708    -0.000218105962     1.007825032230

  Basis Set: AUG-CC-PVTZ
    Blend: AUG-CC-PVTZ
  Basis Set: (AUG-CC-PVTZ AUX)
    Blend: AUG-CC-PVTZ-JKFIT
	 Reference Energy          =    -263.9184157066108583 [Eh]
	 Singles Energy            =      -0.0000000000000000 [Eh]
	 Same-Spin Energy          =      -0.2883232476148526 [Eh]
	 Opposite-Spin Energy      =      -0.9013187418345251 [Eh]
	 Correlation Energy        =      -1.1896419894493777 [Eh]
	 Total Energy              =    -265.1080576960602571 [Eh]

	 ================> DF-SCS-MP2 Energies <==================
	-----------------------------------------------------------
	 SCS Same-Spin Scale       =       0.3333333333333333 [-]
	 SCS Opposite-Spin Scale   =       1.2000000000000000 [-]
	 SCS Same-Spin Energy      =      -0.0961077492049509 [Eh]
	 SCS Opposite-Spin Energy  =      -1.0815824902014302 [Eh]
	 SCS Correlation Energy    =      -1.1776902394063811 [Eh]
	 SCS Total Energy          =    -265.0961059460172464 [Eh]
	-----------------------------------------------------------

  Dipole Moment: [D]
     X:     1.3495      Y:     2.0563      Z:    -0.0037     Total:     2.4596

*** Psi4 exiting successfully. Buy a developer a beer!
