                               Psi4 1.4a3.dev225

  ==> Input File <==

--------------------------------------------------------------------------
#psi4
#
memory 32 gb

molecule  {
0 1
  N        0.5178449    -0.0295105    -0.0000112
  N       -0.0914470    -1.1353650    -0.0000170
  C       -0.2099680     1.1214940     0.0000230
  C        2.0462730    -0.0202480    -0.0000060
  C       -1.5131730     0.6485270     0.0000150
  C       -1.3848740    -0.7486420    -0.0000060
  H        0.1985450     2.1230060     0.0000470
  H        2.3968620    -0.5435580     0.8909570
  H        2.3968520    -0.5436990    -0.8908890
  H        2.4236260     1.0030860    -0.0000880
  H       -2.4195430     1.2372430     0.0000190
  H       -2.1602880    -1.5037500    -0.0000180
units angstrom
no_reorient  #important for SAPT in psi4, default
symmetry c1  #important for SAPT in psi4, default
}

set PROPERTIES_ORIGIN ["COM"]
properties('MP2/aug-cc-pvtz', properties = ['dipole'])
--------------------------------------------------------------------------

    Molecular point group: c1
  Charge       = 0
  Multiplicity = 1
  Basis Set: AUG-CC-PVTZ
    Blend: AUG-CC-PVTZ
  Basis Set: (AUG-CC-PVTZ AUX)
    Blend: AUG-CC-PVTZ-JKFIT

    Orbital Energies [Eh]
    ---------------------

    Doubly Occupied:

       1A    -15.648700     2A    -15.582264     3A    -11.280277
       4A    -11.265855     5A    -11.241044     6A    -11.218788
       7A     -1.409908     8A     -1.099564     9A     -1.066068
      10A     -0.943887    11A     -0.811155    12A     -0.767272
      13A     -0.717789    14A     -0.654803    15A     -0.608436
      16A     -0.585719    17A     -0.558246    18A     -0.557525
      19A     -0.544511    20A     -0.460157    21A     -0.350205
      22A     -0.335453

  @DF-RHF Final Energy:  -263.90737291048930

   => Energetics <=

    Nuclear Repulsion Energy =            227.3344462460453883
    One-Electron Energy =                -807.0683917279819752
    Two-Electron Energy =                 315.8265725714473433
    Total Energy =                       -263.9073729104893005
  Basis Set: (AUG-CC-PVTZ AUX)
    Blend: AUG-CC-PVTZ-RI
    Molecular point group: c1

    Geometry (in Angstrom), charge = 0, multiplicity = 1:

       Center              X                  Y                   Z               Mass
    ------------   -----------------  -----------------  -----------------  -----------------
         N            0.565518620100     0.001104667054    -0.000010533754    14.003074004430
         N           -0.043773279900    -1.104749832946    -0.000016333754    14.003074004430
         C           -0.162294279900     1.152109167054     0.000023666246    12.000000000000
         C            2.093946720100     0.010367167054    -0.000005333754    12.000000000000
         C           -1.465499279900     0.679142167054     0.000015666246    12.000000000000
         C           -1.337200279900    -0.718026832946    -0.000005333754    12.000000000000
         H            0.246218720100     2.153621167054     0.000047666246     1.007825032230
         H            2.444535720100    -0.512942832946     0.890957666246     1.007825032230
         H            2.444525720100    -0.513083832946    -0.890888333754     1.007825032230
         H            2.471299720100     1.033701167054    -0.000087333754     1.007825032230
         H           -2.371869279900     1.267858167054     0.000019666246     1.007825032230
         H           -2.112614279900    -1.473134832946    -0.000017333754     1.007825032230

  Basis Set: AUG-CC-PVTZ
    Blend: AUG-CC-PVTZ
  Basis Set: (AUG-CC-PVTZ AUX)
    Blend: AUG-CC-PVTZ-JKFIT
	 Reference Energy          =    -263.9073729104893005 [Eh]
	 Singles Energy            =      -0.0000000000000000 [Eh]
	 Same-Spin Energy          =      -0.2887172804809426 [Eh]
	 Opposite-Spin Energy      =      -0.9008155132307334 [Eh]
	 Correlation Energy        =      -1.1895327937116760 [Eh]
	 Total Energy              =    -265.0969057042009922 [Eh]

	 ================> DF-SCS-MP2 Energies <==================
	-----------------------------------------------------------
	 SCS Same-Spin Scale       =       0.3333333333333333 [-]
	 SCS Opposite-Spin Scale   =       1.2000000000000000 [-]
	 SCS Same-Spin Energy      =      -0.0962390934936475 [Eh]
	 SCS Opposite-Spin Energy  =      -1.0809786158768799 [Eh]
	 SCS Correlation Energy    =      -1.1772177093705274 [Eh]
	 SCS Total Energy          =    -265.0845906198598527 [Eh]
	-----------------------------------------------------------

  Dipole Moment: [D]
     X:     1.5297      Y:     2.0611      Z:     0.0000     Total:     2.5668

*** Psi4 exiting successfully. Buy a developer a beer!
