                               Psi4 1.4a3.dev225

  ==> Input File <==

--------------------------------------------------------------------------
#psi4
#
memory 32 gb

molecule  {
0 1
  N        0.5963620     0.0240630    -0.0000100
  N       -0.0914470    -1.1353650    -0.0000170
  C       -0.2099680     1.1214940     0.0000230
  C        2.0462730    -0.0202480    -0.0000060
  C       -1.5131730     0.6485270     0.0000150
  C       -1.3848740    -0.7486420    -0.0000060
  H        0.1985450     2.1230060     0.0000470
  H        2.3968620    -0.5435580     0.8909570
  H        2.3968520    -0.5436990    -0.8908890
  H        2.4236260     1.0030860    -0.0000880
  H       -2.3356807     1.1827718     0.0000186
  H       -2.1602880    -1.5037500    -0.0000180
units angstrom
no_reorient  #important for SAPT in psi4, default
symmetry c1  #important for SAPT in psi4, default
}

set PROPERTIES_ORIGIN ["COM"]
properties('MP2/aug-cc-pvtz', properties = ['dipole'])
--------------------------------------------------------------------------

    Molecular point group: c1
  Charge       = 0
  Multiplicity = 1
  Basis Set: AUG-CC-PVTZ
    Blend: AUG-CC-PVTZ
  Basis Set: (AUG-CC-PVTZ AUX)
    Blend: AUG-CC-PVTZ-JKFIT

    Orbital Energies [Eh]
    ---------------------

    Doubly Occupied:

       1A    -15.641344     2A    -15.581615     3A    -11.274578
       4A    -11.274157     5A    -11.250239     6A    -11.207954
       7A     -1.372169     8A     -1.116024     9A     -1.056812
      10A     -0.947609    11A     -0.812362    12A     -0.772057
      13A     -0.720345    14A     -0.649684    15A     -0.622848
      16A     -0.586103    17A     -0.570526    18A     -0.546766
      19A     -0.544799    20A     -0.456199    21A     -0.348711
      22A     -0.340432

  @DF-RHF Final Energy:  -263.91214111177334

   => Energetics <=

    Nuclear Repulsion Energy =            226.7174974515225756
    One-Electron Energy =                -805.8726092482578451
    Two-Electron Energy =                 315.2429706849619038
    Total Energy =                       -263.9121411117733373
  Basis Set: (AUG-CC-PVTZ AUX)
    Blend: AUG-CC-PVTZ-RI
    Molecular point group: c1

    Geometry (in Angstrom), charge = 0, multiplicity = 1:

       Center              X                  Y                   Z               Mass
    ------------   -----------------  -----------------  -----------------  -----------------
         N            0.629606048179     0.046204431613    -0.000009533631    14.003074004430
         N           -0.058202951821    -1.113223568387    -0.000016533631    14.003074004430
         C           -0.176723951821     1.143635431613     0.000023466369    12.000000000000
         C            2.079517048179     0.001893431613    -0.000005533631    12.000000000000
         C           -1.479928951821     0.670668431613     0.000015466369    12.000000000000
         C           -1.351629951821    -0.726500568387    -0.000005533631    12.000000000000
         H            0.231789048179     2.145147431613     0.000047466369     1.007825032230
         H            2.430106048179    -0.521416568387     0.890957466369     1.007825032230
         H            2.430096048179    -0.521557568387    -0.890888533631     1.007825032230
         H            2.456870048179     1.025227431613    -0.000087533631     1.007825032230
         H           -2.302436651821     1.204913231613     0.000019066369     1.007825032230
         H           -2.127043951821    -1.481608568387    -0.000017533631     1.007825032230

  Basis Set: AUG-CC-PVTZ
    Blend: AUG-CC-PVTZ
  Basis Set: (AUG-CC-PVTZ AUX)
    Blend: AUG-CC-PVTZ-JKFIT
	 Reference Energy          =    -263.9121411117733373 [Eh]
	 Singles Energy            =      -0.0000000000000000 [Eh]
	 Same-Spin Energy          =      -0.2882119729894144 [Eh]
	 Opposite-Spin Energy      =      -0.9010813072296139 [Eh]
	 Correlation Energy        =      -1.1892932802190281 [Eh]
	 Total Energy              =    -265.1014343919923704 [Eh]

	 ================> DF-SCS-MP2 Energies <==================
	-----------------------------------------------------------
	 SCS Same-Spin Scale       =       0.3333333333333333 [-]
	 SCS Opposite-Spin Scale   =       1.2000000000000000 [-]
	 SCS Same-Spin Energy      =      -0.0960706576631381 [Eh]
	 SCS Opposite-Spin Energy  =      -1.0812975686755366 [Eh]
	 SCS Correlation Energy    =      -1.1773682263386747 [Eh]
	 SCS Total Energy          =    -265.0895093381120091 [Eh]
	-----------------------------------------------------------

  Dipole Moment: [D]
     X:     1.3359      Y:     2.0631      Z:     0.0000     Total:     2.4579

*** Psi4 exiting successfully. Buy a developer a beer!
