                               Psi4 1.4a3.dev225

  ==> Input File <==

--------------------------------------------------------------------------
#psi4
#
memory 32 gb

molecule  {
0 1
  N        0.5963620     0.0240630    -0.0000100
  N       -0.0914470    -1.1353650    -0.0000170
  C       -0.2099680     1.1214940     0.0000230
  C        2.0462730    -0.0202480    -0.0000060
  C       -1.5131730     0.6485270     0.0000150
  C       -1.3848740    -0.7486420    -0.0000060
  H        0.1985450     2.1230060     0.0000470
  H        2.4289926    -0.5915180     0.9726115
  H        2.3968520    -0.5436990    -0.8908890
  H        2.4236260     1.0030860    -0.0000880
  H       -2.4195430     1.2372430     0.0000190
  H       -2.1602880    -1.5037500    -0.0000180
units angstrom
no_reorient  #important for SAPT in psi4, default
symmetry c1  #important for SAPT in psi4, default
}

set PROPERTIES_ORIGIN ["COM"]
properties('MP2/aug-cc-pvtz', properties = ['dipole'])
--------------------------------------------------------------------------

    Molecular point group: c1
  Charge       = 0
  Multiplicity = 1
  Basis Set: AUG-CC-PVTZ
    Blend: AUG-CC-PVTZ
  Basis Set: (AUG-CC-PVTZ AUX)
    Blend: AUG-CC-PVTZ-JKFIT

    Orbital Energies [Eh]
    ---------------------

    Doubly Occupied:

       1A    -15.642826     2A    -15.582551     3A    -11.285473
       4A    -11.275968     5A    -11.251583     6A    -11.220259
       7A     -1.373268     8A     -1.115510     9A     -1.054970
      10A     -0.939853    11A     -0.804718    12A     -0.771262
      13A     -0.713632    14A     -0.644536    15A     -0.610105
      16A     -0.581732    17A     -0.569440    18A     -0.546215
      19A     -0.533135    20A     -0.456568    21A     -0.349052
      22A     -0.341169

  @DF-RHF Final Energy:  -263.91175589247746

   => Energetics <=

    Nuclear Repulsion Energy =            225.7997125094968283
    One-Electron Energy =                -804.0952869640161680
    Two-Electron Energy =                 314.3838185620418244
    Total Energy =                       -263.9117558924774585
  Basis Set: (AUG-CC-PVTZ AUX)
    Blend: AUG-CC-PVTZ-RI
    Molecular point group: c1

    Geometry (in Angstrom), charge = 0, multiplicity = 1:

       Center              X                  Y                   Z               Mass
    ------------   -----------------  -----------------  -----------------  -----------------
         N            0.630241447736     0.046124457175    -0.001012467756    14.003074004430
         N           -0.057567552264    -1.113303542825    -0.001019467756    14.003074004430
         C           -0.176088552264     1.143555457175    -0.000979467756    12.000000000000
         C            2.080152447736     0.001813457175    -0.001008467756    12.000000000000
         C           -1.479293552264     0.670588457175    -0.000987467756    12.000000000000
         C           -1.350994552264    -0.726580542825    -0.001008467756    12.000000000000
         H            0.232424447736     2.145067457175    -0.000955467756     1.007825032230
         H            2.462872047736    -0.569456542825     0.971609032244     1.007825032230
         H            2.430731447736    -0.521637542825    -0.891891467756     1.007825032230
         H            2.457505447736     1.025147457175    -0.001090467756     1.007825032230
         H           -2.385663552264     1.259304457175    -0.000983467756     1.007825032230
         H           -2.126408552264    -1.481688542825    -0.001020467756     1.007825032230

  Basis Set: AUG-CC-PVTZ
    Blend: AUG-CC-PVTZ
  Basis Set: (AUG-CC-PVTZ AUX)
    Blend: AUG-CC-PVTZ-JKFIT
	 Reference Energy          =    -263.9117558924774585 [Eh]
	 Singles Energy            =      -0.0000000000000000 [Eh]
	 Same-Spin Energy          =      -0.2883589962306259 [Eh]
	 Opposite-Spin Energy      =      -0.9021564010665335 [Eh]
	 Correlation Energy        =      -1.1905153972971594 [Eh]
	 Total Energy              =    -265.1022712897745919 [Eh]

	 ================> DF-SCS-MP2 Energies <==================
	-----------------------------------------------------------
	 SCS Same-Spin Scale       =       0.3333333333333333 [-]
	 SCS Opposite-Spin Scale   =       1.2000000000000000 [-]
	 SCS Same-Spin Energy      =      -0.0961196654102086 [Eh]
	 SCS Opposite-Spin Energy  =      -1.0825876812798401 [Eh]
	 SCS Correlation Energy    =      -1.1787073466900486 [Eh]
	 SCS Total Energy          =    -265.0904632391674909 [Eh]
	-----------------------------------------------------------

  Dipole Moment: [D]
     X:     1.2841      Y:     2.0664      Z:    -0.0252     Total:     2.4330

*** Psi4 exiting successfully. Buy a developer a beer!
