                               Psi4 1.4a3.dev225

  ==> Input File <==

--------------------------------------------------------------------------
#psi4
#
memory 32 gb

molecule  {
0 1
  N        0.6341706     0.0528720    -0.0000094
  N       -0.0914470    -1.1353650    -0.0000170
  C       -0.2099680     1.1214940     0.0000230
  C        2.0462730    -0.0202480    -0.0000060
  C       -1.5131730     0.6485270     0.0000150
  C       -1.3848740    -0.7486420    -0.0000060
  H        0.1985450     2.1230060     0.0000470
  H        2.3968620    -0.5435580     0.8909570
  H        2.3968520    -0.5436990    -0.8908890
  H        2.4236260     1.0030860    -0.0000880
  H       -2.4195430     1.2372430     0.0000190
  H       -2.1602880    -1.5037500    -0.0000180
units angstrom
no_reorient  #important for SAPT in psi4, default
symmetry c1  #important for SAPT in psi4, default
}

set PROPERTIES_ORIGIN ["COM"]
properties('MP2/aug-cc-pvtz', properties = ['dipole'])
--------------------------------------------------------------------------

    Molecular point group: c1
  Charge       = 0
  Multiplicity = 1
  Basis Set: AUG-CC-PVTZ
    Blend: AUG-CC-PVTZ
  Basis Set: (AUG-CC-PVTZ AUX)
    Blend: AUG-CC-PVTZ-JKFIT

    Orbital Energies [Eh]
    ---------------------

    Doubly Occupied:

       1A    -15.638654     2A    -15.582484     3A    -11.280026
       4A    -11.271182     5A    -11.255849     6A    -11.220233
       7A     -1.358716     8A     -1.125240     9A     -1.050460
      10A     -0.946307    11A     -0.800829    12A     -0.774999
      13A     -0.712754    14A     -0.649710    15A     -0.615162
      16A     -0.591375    17A     -0.565220    18A     -0.543309
      19A     -0.539087    20A     -0.452082    21A     -0.354581
      22A     -0.337467

  @DF-RHF Final Energy:  -263.91433995343141

   => Energetics <=

    Nuclear Repulsion Energy =            225.7169138915699591
    One-Electron Energy =                -803.9310551707518471
    Two-Electron Energy =                 314.2998013257504226
    Total Energy =                       -263.9143399534314085
  Basis Set: (AUG-CC-PVTZ AUX)
    Blend: AUG-CC-PVTZ-RI
    Molecular point group: c1

    Geometry (in Angstrom), charge = 0, multiplicity = 1:

       Center              X                  Y                   Z               Mass
    ------------   -----------------  -----------------  -----------------  -----------------
         N            0.661992328872     0.069427877771    -0.000009040939    14.003074004430
         N           -0.063625271128    -1.118809122229    -0.000016640939    14.003074004430
         C           -0.182146271128     1.138049877771     0.000023359061    12.000000000000
         C            2.074094728872    -0.003692122229    -0.000005640939    12.000000000000
         C           -1.485351271128     0.665082877771     0.000015359061    12.000000000000
         C           -1.357052271128    -0.732086122229    -0.000005640939    12.000000000000
         H            0.226366728872     2.139561877771     0.000047359061     1.007825032230
         H            2.424683728872    -0.527002122229     0.890957359061     1.007825032230
         H            2.424673728872    -0.527143122229    -0.890888640939     1.007825032230
         H            2.451447728872     1.019641877771    -0.000087640939     1.007825032230
         H           -2.391721271128     1.253798877771     0.000019359061     1.007825032230
         H           -2.132466271128    -1.487194122229    -0.000017640939     1.007825032230

  Basis Set: AUG-CC-PVTZ
    Blend: AUG-CC-PVTZ
  Basis Set: (AUG-CC-PVTZ AUX)
    Blend: AUG-CC-PVTZ-JKFIT
	 Reference Energy          =    -263.9143399534314085 [Eh]
	 Singles Energy            =      -0.0000000000000000 [Eh]
	 Same-Spin Energy          =      -0.2883644963776000 [Eh]
	 Opposite-Spin Energy      =      -0.9023144960548566 [Eh]
	 Correlation Energy        =      -1.1906789924324566 [Eh]
	 Total Energy              =    -265.1050189458638897 [Eh]

	 ================> DF-SCS-MP2 Energies <==================
	-----------------------------------------------------------
	 SCS Same-Spin Scale       =       0.3333333333333333 [-]
	 SCS Opposite-Spin Scale   =       1.2000000000000000 [-]
	 SCS Same-Spin Energy      =      -0.0961214987925333 [Eh]
	 SCS Opposite-Spin Energy  =      -1.0827773952658279 [Eh]
	 SCS Correlation Energy    =      -1.1788988940583613 [Eh]
	 SCS Total Energy          =    -265.0932388474897721 [Eh]
	-----------------------------------------------------------

  Dipole Moment: [D]
     X:     1.2311      Y:     2.0415      Z:     0.0000     Total:     2.3840

*** Psi4 exiting successfully. Buy a developer a beer!
