                               Psi4 1.4a3.dev225

  ==> Input File <==

--------------------------------------------------------------------------
#psi4
#
memory 32 gb

molecule  {
0 1
  N        0.5963620     0.0240630    -0.0000100
  N       -0.0914470    -1.1353650    -0.0000170
  C       -0.2218100     1.1376113     0.0000235
  C        2.0462730    -0.0202480    -0.0000060
  C       -1.5131730     0.6485270     0.0000150
  C       -1.3848740    -0.7486420    -0.0000060
  H        0.1985450     2.1230060     0.0000470
  H        2.3968620    -0.5435580     0.8909570
  H        2.3968520    -0.5436990    -0.8908890
  H        2.4236260     1.0030860    -0.0000880
  H       -2.4195430     1.2372430     0.0000190
  H       -2.1602880    -1.5037500    -0.0000180
units angstrom
no_reorient  #important for SAPT in psi4, default
symmetry c1  #important for SAPT in psi4, default
}

set PROPERTIES_ORIGIN ["COM"]
properties('MP2/aug-cc-pvtz', properties = ['dipole'])
--------------------------------------------------------------------------

    Molecular point group: c1
  Charge       = 0
  Multiplicity = 1
  Basis Set: AUG-CC-PVTZ
    Blend: AUG-CC-PVTZ
  Basis Set: (AUG-CC-PVTZ AUX)
    Blend: AUG-CC-PVTZ-JKFIT

    Orbital Energies [Eh]
    ---------------------

    Doubly Occupied:

       1A    -15.640663     2A    -15.584382     3A    -11.275319
       4A    -11.273484     5A    -11.250889     6A    -11.220742
       7A     -1.368988     8A     -1.114303     9A     -1.055062
      10A     -0.943503    11A     -0.803301    12A     -0.773517
      13A     -0.714095    14A     -0.647872    15A     -0.612298
      16A     -0.581221    17A     -0.570827    18A     -0.545819
      19A     -0.543908    20A     -0.456849    21A     -0.347181
      22A     -0.342439

  @DF-RHF Final Energy:  -263.91701861687716

   => Energetics <=

    Nuclear Repulsion Energy =            225.8875286981350143
    One-Electron Energy =                -804.2757709597245821
    Two-Electron Energy =                 314.4712236447123814
    Total Energy =                       -263.9170186168771579
  Basis Set: (AUG-CC-PVTZ AUX)
    Blend: AUG-CC-PVTZ-RI
    Molecular point group: c1

    Geometry (in Angstrom), charge = 0, multiplicity = 1:

       Center              X                  Y                   Z               Mass
    ------------   -----------------  -----------------  -----------------  -----------------
         N            0.632367949072     0.043178280933    -0.000009611667    14.003074004430
         N           -0.055441050928    -1.116249719067    -0.000016611667    14.003074004430
         C           -0.185804050928     1.156726580933     0.000023888333    12.000000000000
         C            2.082278949072    -0.001132719067    -0.000005611667    12.000000000000
         C           -1.477167050928     0.667642280933     0.000015388333    12.000000000000
         C           -1.348868050928    -0.729526719067    -0.000005611667    12.000000000000
         H            0.234550949072     2.142121280933     0.000047388333     1.007825032230
         H            2.432867949072    -0.524442719067     0.890957388333     1.007825032230
         H            2.432857949072    -0.524583719067    -0.890888611667     1.007825032230
         H            2.459631949072     1.022201280933    -0.000087611667     1.007825032230
         H           -2.383537050928     1.256358280933     0.000019388333     1.007825032230
         H           -2.124282050928    -1.484634719067    -0.000017611667     1.007825032230

  Basis Set: AUG-CC-PVTZ
    Blend: AUG-CC-PVTZ
  Basis Set: (AUG-CC-PVTZ AUX)
    Blend: AUG-CC-PVTZ-JKFIT
	 Reference Energy          =    -263.9170186168771579 [Eh]
	 Singles Energy            =      -0.0000000000000000 [Eh]
	 Same-Spin Energy          =      -0.2884964300104254 [Eh]
	 Opposite-Spin Energy      =      -0.9019786993375482 [Eh]
	 Correlation Energy        =      -1.1904751293479734 [Eh]
	 Total Energy              =    -265.1074937462251455 [Eh]

	 ================> DF-SCS-MP2 Energies <==================
	-----------------------------------------------------------
	 SCS Same-Spin Scale       =       0.3333333333333333 [-]
	 SCS Opposite-Spin Scale   =       1.2000000000000000 [-]
	 SCS Same-Spin Energy      =      -0.0961654766701418 [Eh]
	 SCS Opposite-Spin Energy  =      -1.0823744392050578 [Eh]
	 SCS Correlation Energy    =      -1.1785399158751997 [Eh]
	 SCS Total Energy          =    -265.0955585327523636 [Eh]
	-----------------------------------------------------------

  Dipole Moment: [D]
     X:     1.3064      Y:     2.0590      Z:     0.0000     Total:     2.4385

*** Psi4 exiting successfully. Buy a developer a beer!
