                               Psi4 1.4a3.dev225

  ==> Input File <==

--------------------------------------------------------------------------
#psi4
#
memory 32 gb

molecule  {
0 1
  N        0.5963620     0.0240630    -0.0000100
  N       -0.0914470    -1.1353650    -0.0000170
  C       -0.2099680     1.1214940     0.0000230
  C        2.0462730    -0.0202480    -0.0000060
  C       -1.5131730     0.6485270     0.0000150
  C       -1.3848740    -0.7486420    -0.0000060
  H        0.1985450     2.1230060     0.0000470
  H        2.3968620    -0.5435580     0.8909570
  H        2.3968520    -0.5436990    -0.8908890
  H        2.4409248     1.0499982    -0.0000918
  H       -2.4195430     1.2372430     0.0000190
  H       -2.1602880    -1.5037500    -0.0000180
units angstrom
no_reorient  #important for SAPT in psi4, default
symmetry c1  #important for SAPT in psi4, default
}

set PROPERTIES_ORIGIN ["COM"]
properties('MP2/aug-cc-pvtz', properties = ['dipole'])
--------------------------------------------------------------------------

    Molecular point group: c1
  Charge       = 0
  Multiplicity = 1
  Basis Set: AUG-CC-PVTZ
    Blend: AUG-CC-PVTZ
  Basis Set: (AUG-CC-PVTZ AUX)
    Blend: AUG-CC-PVTZ-JKFIT

    Orbital Energies [Eh]
    ---------------------

    Doubly Occupied:

       1A    -15.642170     2A    -15.582505     3A    -11.280286
       4A    -11.275289     5A    -11.251214     6A    -11.219718
       7A     -1.372975     8A     -1.115434     9A     -1.054921
      10A     -0.942395    11A     -0.803731    12A     -0.771955
      13A     -0.713430    14A     -0.650579    15A     -0.608938
      16A     -0.581136    17A     -0.567998    18A     -0.545673
      19A     -0.541052    20A     -0.456480    21A     -0.349373
      22A     -0.340939

  @DF-RHF Final Energy:  -263.91620927086865

   => Energetics <=

    Nuclear Repulsion Energy =            225.9990700772261505
    One-Electron Energy =                -804.4941752222367768
    Two-Electron Energy =                 314.5788958741419492
    Total Energy =                       -263.9162092708686487
  Basis Set: (AUG-CC-PVTZ AUX)
    Blend: AUG-CC-PVTZ-RI
    Molecular point group: c1

    Geometry (in Angstrom), charge = 0, multiplicity = 1:

       Center              X                  Y                   Z               Mass
    ------------   -----------------  -----------------  -----------------  -----------------
         N            0.630423620739     0.044959180298    -0.000009491870    14.003074004430
         N           -0.057385379261    -1.114468819702    -0.000016491870    14.003074004430
         C           -0.175906379261     1.142390180298     0.000023508130    12.000000000000
         C            2.080334620739     0.000648180298    -0.000005491870    12.000000000000
         C           -1.479111379261     0.669423180298     0.000015508130    12.000000000000
         C           -1.350812379261    -0.727745819702    -0.000005491870    12.000000000000
         H            0.232606620739     2.143902180298     0.000047508130     1.007825032230
         H            2.430923620739    -0.522661819702     0.890957508130     1.007825032230
         H            2.430913620739    -0.522802819702    -0.890888491870     1.007825032230
         H            2.474986420739     1.070894380298    -0.000091291870     1.007825032230
         H           -2.385481379261     1.258139180298     0.000019508130     1.007825032230
         H           -2.126226379261    -1.482853819702    -0.000017491870     1.007825032230

  Basis Set: AUG-CC-PVTZ
    Blend: AUG-CC-PVTZ
  Basis Set: (AUG-CC-PVTZ AUX)
    Blend: AUG-CC-PVTZ-JKFIT
	 Reference Energy          =    -263.9162092708686487 [Eh]
	 Singles Energy            =      -0.0000000000000000 [Eh]
	 Same-Spin Energy          =      -0.2883439468564443 [Eh]
	 Opposite-Spin Energy      =      -0.9018028297296736 [Eh]
	 Correlation Energy        =      -1.1901467765861180 [Eh]
	 Total Energy              =    -265.1063560474547671 [Eh]

	 ================> DF-SCS-MP2 Energies <==================
	-----------------------------------------------------------
	 SCS Same-Spin Scale       =       0.3333333333333333 [-]
	 SCS Opposite-Spin Scale   =       1.2000000000000000 [-]
	 SCS Same-Spin Energy      =      -0.0961146489521481 [Eh]
	 SCS Opposite-Spin Energy  =      -1.0821633956756083 [Eh]
	 SCS Correlation Energy    =      -1.1782780446277563 [Eh]
	 SCS Total Energy          =    -265.0944873154963943 [Eh]
	-----------------------------------------------------------

  Dipole Moment: [D]
     X:     1.3250      Y:     2.0448      Z:     0.0000     Total:     2.4365

*** Psi4 exiting successfully. Buy a developer a beer!
