                               Psi4 1.4a3.dev225

  ==> Input File <==

--------------------------------------------------------------------------
#psi4
#
memory 32 gb

molecule  {
0 1
  N        0.5963620     0.0240630    -0.0000100
  N       -0.0914470    -1.1353650    -0.0000170
  C       -0.2099680     1.1214940     0.0000230
  C        2.0462730    -0.0202480    -0.0000060
  C       -1.5131730     0.6485270     0.0000150
  C       -1.3848740    -0.7486420    -0.0000060
  H        0.1607765     2.0304126     0.0000448
  H        2.3968620    -0.5435580     0.8909570
  H        2.3968520    -0.5436990    -0.8908890
  H        2.4236260     1.0030860    -0.0000880
  H       -2.4195430     1.2372430     0.0000190
  H       -2.1602880    -1.5037500    -0.0000180
units angstrom
no_reorient  #important for SAPT in psi4, default
symmetry c1  #important for SAPT in psi4, default
}

set PROPERTIES_ORIGIN ["COM"]
properties('MP2/aug-cc-pvtz', properties = ['dipole'])
--------------------------------------------------------------------------

    Molecular point group: c1
  Charge       = 0
  Multiplicity = 1
  Basis Set: AUG-CC-PVTZ
    Blend: AUG-CC-PVTZ
  Basis Set: (AUG-CC-PVTZ AUX)
    Blend: AUG-CC-PVTZ-JKFIT

    Orbital Energies [Eh]
    ---------------------

    Doubly Occupied:

       1A    -15.641315     2A    -15.581919     3A    -11.274631
       4A    -11.263829     5A    -11.250408     6A    -11.219111
       7A     -1.372404     8A     -1.116590     9A     -1.058054
      10A     -0.945752    11A     -0.810440    12A     -0.781717
      13A     -0.723154    14A     -0.649954    15A     -0.615108
      16A     -0.581750    17A     -0.575535    18A     -0.546329
      19A     -0.545064    20A     -0.456164    21A     -0.348764
      22A     -0.340546

  @DF-RHF Final Energy:  -263.91221096603869

   => Energetics <=

    Nuclear Repulsion Energy =            226.7253641076401038
    One-Electron Energy =                -805.8780750105693187
    Two-Electron Energy =                 315.2404999368905578
    Total Energy =                       -263.9122109660386855
  Basis Set: (AUG-CC-PVTZ AUX)
    Blend: AUG-CC-PVTZ-RI
    Molecular point group: c1

    Geometry (in Angstrom), charge = 0, multiplicity = 1:

       Center              X                  Y                   Z               Mass
    ------------   -----------------  -----------------  -----------------  -----------------
         N            0.631099990122     0.046672671183    -0.000009511522    14.003074004430
         N           -0.056709009878    -1.112755328817    -0.000016511522    14.003074004430
         C           -0.175230009878     1.144103671183     0.000023488478    12.000000000000
         C            2.081010990122     0.002361671183    -0.000005511522    12.000000000000
         C           -1.478435009878     0.671136671183     0.000015488478    12.000000000000
         C           -1.350136009878    -0.726032328817    -0.000005511522    12.000000000000
         H            0.195514490122     2.053022271183     0.000045288478     1.007825032230
         H            2.431599990122    -0.520948328817     0.890957488478     1.007825032230
         H            2.431589990122    -0.521089328817    -0.890888511522     1.007825032230
         H            2.458363990122     1.025695671183    -0.000087511522     1.007825032230
         H           -2.384805009878     1.259852671183     0.000019488478     1.007825032230
         H           -2.125550009878    -1.481140328817    -0.000017511522     1.007825032230

  Basis Set: AUG-CC-PVTZ
    Blend: AUG-CC-PVTZ
  Basis Set: (AUG-CC-PVTZ AUX)
    Blend: AUG-CC-PVTZ-JKFIT
	 Reference Energy          =    -263.9122109660386855 [Eh]
	 Singles Energy            =      -0.0000000000000000 [Eh]
	 Same-Spin Energy          =      -0.2881657797171276 [Eh]
	 Opposite-Spin Energy      =      -0.9009407218036536 [Eh]
	 Correlation Energy        =      -1.1891065015207811 [Eh]
	 Total Energy              =    -265.1013174675594541 [Eh]

	 ================> DF-SCS-MP2 Energies <==================
	-----------------------------------------------------------
	 SCS Same-Spin Scale       =       0.3333333333333333 [-]
	 SCS Opposite-Spin Scale   =       1.2000000000000000 [-]
	 SCS Same-Spin Energy      =      -0.0960552599057092 [Eh]
	 SCS Opposite-Spin Energy  =      -1.0811288661643843 [Eh]
	 SCS Correlation Energy    =      -1.1771841260700935 [Eh]
	 SCS Total Energy          =    -265.0893950921087594 [Eh]
	-----------------------------------------------------------

  Dipole Moment: [D]
     X:     1.3442      Y:     2.0547      Z:     0.0000     Total:     2.4553

*** Psi4 exiting successfully. Buy a developer a beer!
