                               Psi4 1.4a3.dev225

  ==> Input File <==

--------------------------------------------------------------------------
#psi4
#
memory 32 gb

molecule  {
0 1
  N        0.5963620     0.0240630    -0.0000100
  N       -0.0914470    -1.1353650    -0.0000170
  C       -0.2099680     1.1214940     0.0000230
  C        2.0462730    -0.0202480    -0.0000060
  C       -1.5131730     0.6485270     0.0000150
  C       -1.3848740    -0.7486420    -0.0000060
  H        0.1985450     2.1230060     0.0000470
  H        2.3968620    -0.5435580     0.8909570
  H        2.3647223    -0.4957260    -0.8092418
  H        2.4236260     1.0030860    -0.0000880
  H       -2.4195430     1.2372430     0.0000190
  H       -2.1602880    -1.5037500    -0.0000180
units angstrom
no_reorient  #important for SAPT in psi4, default
symmetry c1  #important for SAPT in psi4, default
}

set PROPERTIES_ORIGIN ["COM"]
properties('MP2/aug-cc-pvtz', properties = ['dipole'])
--------------------------------------------------------------------------

    Molecular point group: c1
  Charge       = 0
  Multiplicity = 1
  Basis Set: AUG-CC-PVTZ
    Blend: AUG-CC-PVTZ
  Basis Set: (AUG-CC-PVTZ AUX)
    Blend: AUG-CC-PVTZ-JKFIT

    Orbital Energies [Eh]
    ---------------------

    Doubly Occupied:

       1A    -15.640984     2A    -15.581965     3A    -11.274571
       4A    -11.262765     5A    -11.250457     6A    -11.219147
       7A     -1.372423     8A     -1.117945     9A     -1.054925
      10A     -0.953887    11A     -0.803694    12A     -0.774512
      13A     -0.716074    14A     -0.658246    15A     -0.615016
      16A     -0.581698    17A     -0.570732    18A     -0.553382
      19A     -0.544915    20A     -0.455928    21A     -0.349239
      22A     -0.340475

  @DF-RHF Final Energy:  -263.91224664341979

   => Energetics <=

    Nuclear Repulsion Energy =            226.6642099259556460
    One-Electron Energy =                -805.7669537533919311
    Two-Electron Energy =                 315.1904971840164649
    Total Energy =                       -263.9122466434197918
  Basis Set: (AUG-CC-PVTZ AUX)
    Blend: AUG-CC-PVTZ-RI
    Molecular point group: c1

    Geometry (in Angstrom), charge = 0, multiplicity = 1:

       Center              X                  Y                   Z               Mass
    ------------   -----------------  -----------------  -----------------  -----------------
         N            0.631030731021     0.044946150921    -0.001012378093    14.003074004430
         N           -0.056778268979    -1.114481849079    -0.001019378093    14.003074004430
         C           -0.175299268979     1.142377150921    -0.000979378093    12.000000000000
         C            2.080941731021     0.000635150921    -0.001008378093    12.000000000000
         C           -1.478504268979     0.669410150921    -0.000987378093    12.000000000000
         C           -1.350205268979    -0.727758849079    -0.001008378093    12.000000000000
         H            0.233213731021     2.143889150921    -0.000955378093     1.007825032230
         H            2.431530731021    -0.522674849079     0.889954621907     1.007825032230
         H            2.399391031021    -0.474842849079    -0.810244178093     1.007825032230
         H            2.458294731021     1.023969150921    -0.001090378093     1.007825032230
         H           -2.384874268979     1.258126150921    -0.000983378093     1.007825032230
         H           -2.125619268979    -1.482866849079    -0.001020378093     1.007825032230

  Basis Set: AUG-CC-PVTZ
    Blend: AUG-CC-PVTZ
  Basis Set: (AUG-CC-PVTZ AUX)
    Blend: AUG-CC-PVTZ-JKFIT
	 Reference Energy          =    -263.9122466434197918 [Eh]
	 Singles Energy            =      -0.0000000000000000 [Eh]
	 Same-Spin Energy          =      -0.2883308909963934 [Eh]
	 Opposite-Spin Energy      =      -0.9009576869756887 [Eh]
	 Correlation Energy        =      -1.1892885779720821 [Eh]
	 Total Energy              =    -265.1015352213918845 [Eh]

	 ================> DF-SCS-MP2 Energies <==================
	-----------------------------------------------------------
	 SCS Same-Spin Scale       =       0.3333333333333333 [-]
	 SCS Opposite-Spin Scale   =       1.2000000000000000 [-]
	 SCS Same-Spin Energy      =      -0.0961102969987978 [Eh]
	 SCS Opposite-Spin Energy  =      -1.0811492243708263 [Eh]
	 SCS Correlation Energy    =      -1.1772595213696240 [Eh]
	 SCS Total Energy          =    -265.0895061647894408 [Eh]
	-----------------------------------------------------------

  Dipole Moment: [D]
     X:     1.3802      Y:     2.0542      Z:    -0.0141     Total:     2.4749

*** Psi4 exiting successfully. Buy a developer a beer!
