                               Psi4 1.4a3.dev225

  ==> Input File <==

--------------------------------------------------------------------------
#psi4
#
memory 32 gb

molecule  {
0 1
  N        0.5963620     0.0240630    -0.0000100
  N       -0.0914470    -1.1353650    -0.0000170
  C       -0.2099680     1.1214940     0.0000230
  C        2.0462730    -0.0202480    -0.0000060
  C       -1.5131730     0.6485270     0.0000150
  C       -1.3848740    -0.7486420    -0.0000060
  H        0.1985450     2.1230060     0.0000470
  H        2.3968620    -0.5435580     0.8909570
  H        2.3968520    -0.5436990    -0.8908890
  H        2.4236260     1.0030860    -0.0000880
  H       -2.3776118     1.2100074     0.0000188
  H       -2.1602880    -1.5037500    -0.0000180
units angstrom
no_reorient  #important for SAPT in psi4, default
symmetry c1  #important for SAPT in psi4, default
}

set PROPERTIES_ORIGIN ["COM"]
properties('MP2/aug-cc-pvtz', properties = ['dipole'])
--------------------------------------------------------------------------

    Molecular point group: c1
  Charge       = 0
  Multiplicity = 1
  Basis Set: AUG-CC-PVTZ
    Blend: AUG-CC-PVTZ
  Basis Set: (AUG-CC-PVTZ AUX)
    Blend: AUG-CC-PVTZ-JKFIT

    Orbital Energies [Eh]
    ---------------------

    Doubly Occupied:

       1A    -15.641531     2A    -15.581877     3A    -11.274835
       4A    -11.274279     5A    -11.250549     6A    -11.213835
       7A     -1.372421     8A     -1.116092     9A     -1.055638
      10A     -0.946463    11A     -0.807802    12A     -0.772206
      13A     -0.717201    14A     -0.649858    15A     -0.617325
      16A     -0.584054    17A     -0.570292    18A     -0.546273
      19A     -0.544983    20A     -0.456189    21A     -0.348883
      22A     -0.340561

  @DF-RHF Final Energy:  -263.91749902411789

   => Energetics <=

    Nuclear Repulsion Energy =            226.4524350753906106
    One-Electron Energy =                -805.3735798856899919
    Two-Electron Energy =                 315.0036457861815506
    Total Energy =                       -263.9174990241178875
  Basis Set: (AUG-CC-PVTZ AUX)
    Blend: AUG-CC-PVTZ-RI
    Molecular point group: c1

    Geometry (in Angstrom), charge = 0, multiplicity = 1:

       Center              X                  Y                   Z               Mass
    ------------   -----------------  -----------------  -----------------  -----------------
         N            0.630121070928     0.045869907749    -0.000009536087    14.003074004430
         N           -0.057687929072    -1.113558092251    -0.000016536087    14.003074004430
         C           -0.176208929072     1.143300907749     0.000023463913    12.000000000000
         C            2.080032070928     0.001558907749    -0.000005536087    12.000000000000
         C           -1.479413929072     0.670333907749     0.000015463913    12.000000000000
         C           -1.351114929072    -0.726835092251    -0.000005536087    12.000000000000
         H            0.232304070928     2.144812907749     0.000047463913     1.007825032230
         H            2.430621070928    -0.521751092251     0.890957463913     1.007825032230
         H            2.430611070928    -0.521892092251    -0.890888536087     1.007825032230
         H            2.457385070928     1.024892907749    -0.000087536087     1.007825032230
         H           -2.343852729072     1.231814307749     0.000019263913     1.007825032230
         H           -2.126528929072    -1.481943092251    -0.000017536087     1.007825032230

  Basis Set: AUG-CC-PVTZ
    Blend: AUG-CC-PVTZ
  Basis Set: (AUG-CC-PVTZ AUX)
    Blend: AUG-CC-PVTZ-JKFIT
	 Reference Energy          =    -263.9174990241178875 [Eh]
	 Singles Energy            =      -0.0000000000000000 [Eh]
	 Same-Spin Energy          =      -0.2882595938384891 [Eh]
	 Opposite-Spin Energy      =      -0.9012057489436976 [Eh]
	 Correlation Energy        =      -1.1894653427821869 [Eh]
	 Total Energy              =    -265.1069643669000584 [Eh]

	 ================> DF-SCS-MP2 Energies <==================
	-----------------------------------------------------------
	 SCS Same-Spin Scale       =       0.3333333333333333 [-]
	 SCS Opposite-Spin Scale   =       1.2000000000000000 [-]
	 SCS Same-Spin Energy      =      -0.0960865312794964 [Eh]
	 SCS Opposite-Spin Energy  =      -1.0814468987324370 [Eh]
	 SCS Correlation Energy    =      -1.1775334300119333 [Eh]
	 SCS Total Energy          =    -265.0950324541298073 [Eh]
	-----------------------------------------------------------

  Dipole Moment: [D]
     X:     1.3368      Y:     2.0610      Z:     0.0000     Total:     2.4566

*** Psi4 exiting successfully. Buy a developer a beer!
