                               Psi4 1.4a3.dev225

  ==> Input File <==

--------------------------------------------------------------------------
#psi4
#
memory 32 gb

molecule  {
0 1
  N        0.5963620     0.0240630    -0.0000100
  N       -0.0914470    -1.1353650    -0.0000170
  C       -0.2099680     1.1214940     0.0000230
  C        2.0462730    -0.0202480    -0.0000060
  C       -1.5131730     0.6485270     0.0000150
  C       -1.3848740    -0.7486420    -0.0000060
  H        0.2060987     2.1415247     0.0000474
  H        2.3968620    -0.5435580     0.8909570
  H        2.3968520    -0.5436990    -0.8908890
  H        2.4236260     1.0030860    -0.0000880
  H       -2.4195430     1.2372430     0.0000190
  H       -2.1602880    -1.5037500    -0.0000180
units angstrom
no_reorient  #important for SAPT in psi4, default
symmetry c1  #important for SAPT in psi4, default
}

set PROPERTIES_ORIGIN ["COM"]
properties('MP2/aug-cc-pvtz', properties = ['dipole'])
--------------------------------------------------------------------------

    Molecular point group: c1
  Charge       = 0
  Multiplicity = 1
  Basis Set: AUG-CC-PVTZ
    Blend: AUG-CC-PVTZ
  Basis Set: (AUG-CC-PVTZ AUX)
    Blend: AUG-CC-PVTZ-JKFIT

    Orbital Energies [Eh]
    ---------------------

    Doubly Occupied:

       1A    -15.641879     2A    -15.582253     3A    -11.277357
       4A    -11.274390     5A    -11.251047     6A    -11.219736
       7A     -1.372801     8A     -1.116196     9A     -1.054273
      10A     -0.945569    11A     -0.803491    12A     -0.770738
      13A     -0.712367    14A     -0.650102    15A     -0.612006
      16A     -0.581456    17A     -0.568280    18A     -0.545245
      19A     -0.545192    20A     -0.456195    21A     -0.349188
      22A     -0.340823

  @DF-RHF Final Energy:  -263.91772742565814

   => Energetics <=

    Nuclear Repulsion Energy =            226.1087798285660710
    One-Electron Energy =                -804.7118434828105364
    Two-Electron Energy =                 314.6853362285863227
    Total Energy =                       -263.9177274256581427
  Basis Set: (AUG-CC-PVTZ AUX)
    Blend: AUG-CC-PVTZ-RI
    Molecular point group: c1

    Geometry (in Angstrom), charge = 0, multiplicity = 1:

       Center              X                  Y                   Z               Mass
    ------------   -----------------  -----------------  -----------------  -----------------
         N            0.630543315863     0.045307926180    -0.000009543457    14.003074004430
         N           -0.057265684137    -1.114120073820    -0.000016543457    14.003074004430
         C           -0.175786684137     1.142738926180     0.000023456543    12.000000000000
         C            2.080454315863     0.000996926180    -0.000005543457    12.000000000000
         C           -1.478991684137     0.669771926180     0.000015456543    12.000000000000
         C           -1.350692684137    -0.727397073820    -0.000005543457    12.000000000000
         H            0.240280015863     2.162769626180     0.000047856543     1.007825032230
         H            2.431043315863    -0.522313073820     0.890957456543     1.007825032230
         H            2.431033315863    -0.522454073820    -0.890888543457     1.007825032230
         H            2.457807315863     1.024330926180    -0.000087543457     1.007825032230
         H           -2.385361684137     1.258487926180     0.000019456543     1.007825032230
         H           -2.126106684137    -1.482505073820    -0.000017543457     1.007825032230

  Basis Set: AUG-CC-PVTZ
    Blend: AUG-CC-PVTZ
  Basis Set: (AUG-CC-PVTZ AUX)
    Blend: AUG-CC-PVTZ-JKFIT
	 Reference Energy          =    -263.9177274256581427 [Eh]
	 Singles Energy            =      -0.0000000000000000 [Eh]
	 Same-Spin Energy          =      -0.2883705470564749 [Eh]
	 Opposite-Spin Energy      =      -0.9015933647285352 [Eh]
	 Correlation Energy        =      -1.1899639117850103 [Eh]
	 Total Energy              =    -265.1076913374431570 [Eh]

	 ================> DF-SCS-MP2 Energies <==================
	-----------------------------------------------------------
	 SCS Same-Spin Scale       =       0.3333333333333333 [-]
	 SCS Opposite-Spin Scale   =       1.2000000000000000 [-]
	 SCS Same-Spin Energy      =      -0.0961235156854916 [Eh]
	 SCS Opposite-Spin Energy  =      -1.0819120376742422 [Eh]
	 SCS Correlation Energy    =      -1.1780355533597338 [Eh]
	 SCS Total Energy          =    -265.0957629790178771 [Eh]
	-----------------------------------------------------------

  Dipole Moment: [D]
     X:     1.3392      Y:     2.0567      Z:     0.0000     Total:     2.4542

*** Psi4 exiting successfully. Buy a developer a beer!
