                               Psi4 1.4a3.dev225

  ==> Input File <==

--------------------------------------------------------------------------
#psi4
#
memory 32 gb

molecule  {
0 1
  N        0.5963620     0.0240630    -0.0000100
  N       -0.0914470    -1.1353650    -0.0000170
  C       -0.1507578     1.0409077     0.0000206
  C        2.0462730    -0.0202480    -0.0000060
  C       -1.5131730     0.6485270     0.0000150
  C       -1.3848740    -0.7486420    -0.0000060
  H        0.1985450     2.1230060     0.0000470
  H        2.3968620    -0.5435580     0.8909570
  H        2.3968520    -0.5436990    -0.8908890
  H        2.4236260     1.0030860    -0.0000880
  H       -2.4195430     1.2372430     0.0000190
  H       -2.1602880    -1.5037500    -0.0000180
units angstrom
no_reorient  #important for SAPT in psi4, default
symmetry c1  #important for SAPT in psi4, default
}

set PROPERTIES_ORIGIN ["COM"]
properties('MP2/aug-cc-pvtz', properties = ['dipole'])
--------------------------------------------------------------------------

    Molecular point group: c1
  Charge       = 0
  Multiplicity = 1
  Basis Set: AUG-CC-PVTZ
    Blend: AUG-CC-PVTZ
  Basis Set: (AUG-CC-PVTZ AUX)
    Blend: AUG-CC-PVTZ-JKFIT

    Orbital Energies [Eh]
    ---------------------

    Doubly Occupied:

       1A    -15.646202     2A    -15.570808     3A    -11.279365
       4A    -11.274876     5A    -11.251129     6A    -11.214532
       7A     -1.395886     8A     -1.127854     9A     -1.054387
      10A     -0.956166    11A     -0.810888    12A     -0.765047
      13A     -0.715257    14A     -0.663152    15A     -0.614573
      16A     -0.592716    17A     -0.562928    18A     -0.552731
      19A     -0.529726    20A     -0.451774    21A     -0.362954
      22A     -0.329313

  @DF-RHF Final Energy:  -263.90960138323697

   => Energetics <=

    Nuclear Repulsion Energy =            227.8900239511407904
    One-Electron Energy =                -808.1547233562112069
    Two-Electron Energy =                 316.3550980218333848
    Total Energy =                       -263.9096013832369749
  Basis Set: (AUG-CC-PVTZ AUX)
    Blend: AUG-CC-PVTZ-RI
    Molecular point group: c1

    Geometry (in Angstrom), charge = 0, multiplicity = 1:

       Center              X                  Y                   Z               Mass
    ------------   -----------------  -----------------  -----------------  -----------------
         N            0.621976794824     0.057320869396    -0.000009187552    14.003074004430
         N           -0.065832205176    -1.102107130604    -0.000016187552    14.003074004430
         C           -0.125143005176     1.074165569396     0.000021412448    12.000000000000
         C            2.071887794824     0.013009869396    -0.000005187552    12.000000000000
         C           -1.487558205176     0.681784869396     0.000015812448    12.000000000000
         C           -1.359259205176    -0.715384130604    -0.000005187552    12.000000000000
         H            0.224159794824     2.156263869396     0.000047812448     1.007825032230
         H            2.422476794824    -0.510300130604     0.890957812448     1.007825032230
         H            2.422466794824    -0.510441130604    -0.890888187552     1.007825032230
         H            2.449240794824     1.036343869396    -0.000087187552     1.007825032230
         H           -2.393928205176     1.270500869396     0.000019812448     1.007825032230
         H           -2.134673205176    -1.470492130604    -0.000017187552     1.007825032230

  Basis Set: AUG-CC-PVTZ
    Blend: AUG-CC-PVTZ
  Basis Set: (AUG-CC-PVTZ AUX)
    Blend: AUG-CC-PVTZ-JKFIT
	 Reference Energy          =    -263.9096013832369749 [Eh]
	 Singles Energy            =      -0.0000000000000000 [Eh]
	 Same-Spin Energy          =      -0.2874691903144225 [Eh]
	 Opposite-Spin Energy      =      -0.8990023158057683 [Eh]
	 Correlation Energy        =      -1.1864715061201907 [Eh]
	 Total Energy              =    -265.0960728893571741 [Eh]

	 ================> DF-SCS-MP2 Energies <==================
	-----------------------------------------------------------
	 SCS Same-Spin Scale       =       0.3333333333333333 [-]
	 SCS Opposite-Spin Scale   =       1.2000000000000000 [-]
	 SCS Same-Spin Energy      =      -0.0958230634381408 [Eh]
	 SCS Opposite-Spin Energy  =      -1.0788027789669219 [Eh]
	 SCS Correlation Energy    =      -1.1746258424050626 [Eh]
	 SCS Total Energy          =    -265.0842272256420529 [Eh]
	-----------------------------------------------------------

  Dipole Moment: [D]
     X:     1.5262      Y:     2.0583      Z:     0.0000     Total:     2.5624

*** Psi4 exiting successfully. Buy a developer a beer!
