                               Psi4 1.4a3.dev225

  ==> Input File <==

--------------------------------------------------------------------------
#psi4
#
memory 32 gb

molecule  {
0 1
  N        0.5963620     0.0240630    -0.0000100
  N       -0.0914470    -1.1353650    -0.0000170
  C       -0.2099680     1.1214940     0.0000230
  C        2.0462730    -0.0202480    -0.0000060
  C       -1.5131730     0.6485270     0.0000150
  C       -1.3848740    -0.7486420    -0.0000060
  H        0.1985450     2.1230060     0.0000470
  H        2.3968620    -0.5435580     0.8909570
  H        2.3968520    -0.5436990    -0.8908890
  H        2.4236260     1.0030860    -0.0000880
  H       -2.4195430     1.2372430     0.0000190
  H       -2.0170030    -1.3642172    -0.0000158
units angstrom
no_reorient  #important for SAPT in psi4, default
symmetry c1  #important for SAPT in psi4, default
}

set PROPERTIES_ORIGIN ["COM"]
properties('MP2/aug-cc-pvtz', properties = ['dipole'])
--------------------------------------------------------------------------

    Molecular point group: c1
  Charge       = 0
  Multiplicity = 1
  Basis Set: AUG-CC-PVTZ
    Blend: AUG-CC-PVTZ
  Basis Set: (AUG-CC-PVTZ AUX)
    Blend: AUG-CC-PVTZ-JKFIT

    Orbital Energies [Eh]
    ---------------------

    Doubly Occupied:

       1A    -15.641209     2A    -15.581639     3A    -11.274203
       4A    -11.274014     5A    -11.227789     6A    -11.218404
       7A     -1.371925     8A     -1.119933     9A     -1.053758
      10A     -0.954488    11A     -0.824551    12A     -0.781120
      13A     -0.722666    14A     -0.649502    15A     -0.624553
      16A     -0.587087    17A     -0.572234    18A     -0.553476
      19A     -0.544631    20A     -0.456578    21A     -0.348900
      22A     -0.339887

  @DF-RHF Final Energy:  -263.88214441986838

   => Energetics <=

    Nuclear Repulsion Energy =            227.3303221782741446
    One-Electron Energy =                -806.9798343986548161
    Two-Electron Energy =                 315.7673678005122611
    Total Energy =                       -263.8821444198683821
  Basis Set: (AUG-CC-PVTZ AUX)
    Blend: AUG-CC-PVTZ-RI
    Molecular point group: c1

    Geometry (in Angstrom), charge = 0, multiplicity = 1:

       Center              X                  Y                   Z               Mass
    ------------   -----------------  -----------------  -----------------  -----------------
         N            0.628876183179     0.043821558914    -0.000009565566    14.003074004430
         N           -0.058932816821    -1.115606441086    -0.000016565566    14.003074004430
         C           -0.177453816821     1.141252558914     0.000023434434    12.000000000000
         C            2.078787183179    -0.000489441086    -0.000005565566    12.000000000000
         C           -1.480658816821     0.668285558914     0.000015434434    12.000000000000
         C           -1.352359816821    -0.728883441086    -0.000005565566    12.000000000000
         H            0.231059183179     2.142764558914     0.000047434434     1.007825032230
         H            2.429376183179    -0.523799441086     0.890957434434     1.007825032230
         H            2.429366183179    -0.523940441086    -0.890888565566     1.007825032230
         H            2.456140183179     1.022844558914    -0.000087565566     1.007825032230
         H           -2.387028816821     1.257001558914     0.000019434434     1.007825032230
         H           -1.984488816821    -1.344458641086    -0.000015365566     1.007825032230

  Basis Set: AUG-CC-PVTZ
    Blend: AUG-CC-PVTZ
  Basis Set: (AUG-CC-PVTZ AUX)
    Blend: AUG-CC-PVTZ-JKFIT
	 Reference Energy          =    -263.8821444198683821 [Eh]
	 Singles Energy            =      -0.0000000000000000 [Eh]
	 Same-Spin Energy          =      -0.2882277753092780 [Eh]
	 Opposite-Spin Energy      =      -0.9011734596346149 [Eh]
	 Correlation Energy        =      -1.1894012349438929 [Eh]
	 Total Energy              =    -265.0715456548122688 [Eh]

	 ================> DF-SCS-MP2 Energies <==================
	-----------------------------------------------------------
	 SCS Same-Spin Scale       =       0.3333333333333333 [-]
	 SCS Opposite-Spin Scale   =       1.2000000000000000 [-]
	 SCS Same-Spin Energy      =      -0.0960759251030927 [Eh]
	 SCS Opposite-Spin Energy  =      -1.0814081515615379 [Eh]
	 SCS Correlation Energy    =      -1.1774840766646306 [Eh]
	 SCS Total Energy          =    -265.0596284965330369 [Eh]
	-----------------------------------------------------------

  Dipole Moment: [D]
     X:     1.3326      Y:     2.0613      Z:     0.0000     Total:     2.4546

*** Psi4 exiting successfully. Buy a developer a beer!
