                               Psi4 1.4a3.dev225

  ==> Input File <==

--------------------------------------------------------------------------
#psi4
#
memory 32 gb

molecule  {
0 1
  N        0.5963620     0.0240630    -0.0000100
  N       -0.0914470    -1.1353650    -0.0000170
  C       -0.2099680     1.1214940     0.0000230
  C        2.0462730    -0.0202480    -0.0000060
  C       -1.5131730     0.6485270     0.0000150
  C       -1.3848740    -0.7486420    -0.0000060
  H        0.1985450     2.1230060     0.0000470
  H        2.3968620    -0.5435580     0.8909570
  H        2.4129169    -0.5676855    -0.9317126
  H        2.4236260     1.0030860    -0.0000880
  H       -2.4195430     1.2372430     0.0000190
  H       -2.1602880    -1.5037500    -0.0000180
units angstrom
no_reorient  #important for SAPT in psi4, default
symmetry c1  #important for SAPT in psi4, default
}

set PROPERTIES_ORIGIN ["COM"]
properties('MP2/aug-cc-pvtz', properties = ['dipole'])
--------------------------------------------------------------------------

    Molecular point group: c1
  Charge       = 0
  Multiplicity = 1
  Basis Set: AUG-CC-PVTZ
    Blend: AUG-CC-PVTZ
  Basis Set: (AUG-CC-PVTZ AUX)
    Blend: AUG-CC-PVTZ-JKFIT

    Orbital Energies [Eh]
    ---------------------

    Doubly Occupied:

       1A    -15.642257     2A    -15.582343     3A    -11.280048
       4A    -11.275540     5A    -11.251229     6A    -11.219907
       7A     -1.372958     8A     -1.115763     9A     -1.054823
      10A     -0.942423    11A     -0.804389    12A     -0.771723
      13A     -0.713890    14A     -0.646956    15A     -0.611240
      16A     -0.581516    17A     -0.569502    18A     -0.545785
      19A     -0.539648    20A     -0.456355    21A     -0.349069
      22A     -0.340945

  @DF-RHF Final Energy:  -263.91624805728100

   => Energetics <=

    Nuclear Repulsion Energy =            225.9964183383786747
    One-Electron Energy =                -804.4887168532317219
    Two-Electron Energy =                 314.5760504575720233
    Total Energy =                       -263.9162480572809955
  Basis Set: (AUG-CC-PVTZ AUX)
    Blend: AUG-CC-PVTZ-RI
    Molecular point group: c1

    Geometry (in Angstrom), charge = 0, multiplicity = 1:

       Center              X                  Y                   Z               Mass
    ------------   -----------------  -----------------  -----------------  -----------------
         N            0.630438776234     0.045830000367     0.000491881230    14.003074004430
         N           -0.057370223766    -1.113597999633     0.000484881230    14.003074004430
         C           -0.175891223766     1.143261000367     0.000524881230    12.000000000000
         C            2.080349776234     0.001519000367     0.000495881230    12.000000000000
         C           -1.479096223766     0.670294000367     0.000516881230    12.000000000000
         C           -1.350797223766    -0.726874999633     0.000495881230    12.000000000000
         H            0.232621776234     2.144773000367     0.000548881230     1.007825032230
         H            2.430938776234    -0.521790999633     0.891458881230     1.007825032230
         H            2.446993676234    -0.545918499633    -0.931210718770     1.007825032230
         H            2.457702776234     1.024853000367     0.000413881230     1.007825032230
         H           -2.385466223766     1.259010000367     0.000520881230     1.007825032230
         H           -2.126211223766    -1.481982999633     0.000483881230     1.007825032230

  Basis Set: AUG-CC-PVTZ
    Blend: AUG-CC-PVTZ
  Basis Set: (AUG-CC-PVTZ AUX)
    Blend: AUG-CC-PVTZ-JKFIT
	 Reference Energy          =    -263.9162480572809955 [Eh]
	 Singles Energy            =      -0.0000000000000000 [Eh]
	 Same-Spin Energy          =      -0.2883401703541950 [Eh]
	 Opposite-Spin Energy      =      -0.9017730870342395 [Eh]
	 Correlation Energy        =      -1.1901132573884345 [Eh]
	 Total Energy              =    -265.1063613146694138 [Eh]

	 ================> DF-SCS-MP2 Energies <==================
	-----------------------------------------------------------
	 SCS Same-Spin Scale       =       0.3333333333333333 [-]
	 SCS Opposite-Spin Scale   =       1.2000000000000000 [-]
	 SCS Same-Spin Energy      =      -0.0961133901180650 [Eh]
	 SCS Opposite-Spin Energy  =      -1.0821277044410873 [Eh]
	 SCS Correlation Energy    =      -1.1782410945591524 [Eh]
	 SCS Total Energy          =    -265.0944891518401505 [Eh]
	-----------------------------------------------------------

  Dipole Moment: [D]
     X:     1.3143      Y:     2.0612      Z:     0.0113     Total:     2.4445

*** Psi4 exiting successfully. Buy a developer a beer!
