                               Psi4 1.4a3.dev225

  ==> Input File <==

--------------------------------------------------------------------------
#psi4
#
memory 32 gb

molecule  {
0 1
  N        0.5963620     0.0240630    -0.0000100
  N       -0.0914470    -1.1353650    -0.0000170
  C       -0.2099680     1.1214940     0.0000230
  C        2.0462730    -0.0202480    -0.0000060
  C       -1.5131730     0.6485270     0.0000150
  C       -1.3848740    -0.7486420    -0.0000060
  H        0.1985450     2.1230060     0.0000470
  H        2.3968620    -0.5435580     0.8909570
  H        2.4150488    -0.5119848    -0.9015483
  H        2.4236260     1.0030860    -0.0000880
  H       -2.4195430     1.2372430     0.0000190
  H       -2.1602880    -1.5037500    -0.0000180
units angstrom
no_reorient  #important for SAPT in psi4, default
symmetry c1  #important for SAPT in psi4, default
}

set PROPERTIES_ORIGIN ["COM"]
properties('MP2/aug-cc-pvtz', properties = ['dipole'])
--------------------------------------------------------------------------

    Molecular point group: c1
  Charge       = 0
  Multiplicity = 1
  Basis Set: AUG-CC-PVTZ
    Blend: AUG-CC-PVTZ
  Basis Set: (AUG-CC-PVTZ AUX)
    Blend: AUG-CC-PVTZ-JKFIT

    Orbital Energies [Eh]
    ---------------------

    Doubly Occupied:

       1A    -15.641964     2A    -15.582241     3A    -11.275253
       4A    -11.274419     5A    -11.250945     6A    -11.219709
       7A     -1.372738     8A     -1.116179     9A     -1.054752
      10A     -0.945728    11A     -0.804111    12A     -0.772626
      13A     -0.714815    14A     -0.650693    15A     -0.611106
      16A     -0.581933    17A     -0.569151    18A     -0.546699
      19A     -0.543973    20A     -0.456177    21A     -0.349387
      22A     -0.340826

  @DF-RHF Final Energy:  -263.91829298062009

   => Energetics <=

    Nuclear Repulsion Energy =            226.1759071929947424
    One-Electron Energy =                -804.8375507741891397
    Two-Electron Energy =                 314.7433506005743311
    Total Energy =                       -263.9182929806200946
  Basis Set: (AUG-CC-PVTZ AUX)
    Blend: AUG-CC-PVTZ-RI
    Molecular point group: c1

    Geometry (in Angstrom), charge = 0, multiplicity = 1:

       Center              X                  Y                   Z               Mass
    ------------   -----------------  -----------------  -----------------  -----------------
         N            0.630412590968     0.045145851188     0.000121385329    14.003074004430
         N           -0.057396409032    -1.114282148812     0.000114385329    14.003074004430
         C           -0.175917409032     1.142576851188     0.000154385329    12.000000000000
         C            2.080323590968     0.000834851188     0.000125385329    12.000000000000
         C           -1.479122409032     0.669609851188     0.000146385329    12.000000000000
         C           -1.350823409032    -0.727559148812     0.000125385329    12.000000000000
         H            0.232595590968     2.144088851188     0.000178385329     1.007825032230
         H            2.430912590968    -0.522475148812     0.891088385329     1.007825032230
         H            2.449099390968    -0.490901948812    -0.901416914671     1.007825032230
         H            2.457676590968     1.024168851188     0.000043385329     1.007825032230
         H           -2.385492409032     1.258325851188     0.000150385329     1.007825032230
         H           -2.126237409032    -1.482667148812     0.000113385329     1.007825032230

  Basis Set: AUG-CC-PVTZ
    Blend: AUG-CC-PVTZ
  Basis Set: (AUG-CC-PVTZ AUX)
    Blend: AUG-CC-PVTZ-JKFIT
	 Reference Energy          =    -263.9182929806200946 [Eh]
	 Singles Energy            =      -0.0000000000000000 [Eh]
	 Same-Spin Energy          =      -0.2883123184652803 [Eh]
	 Opposite-Spin Energy      =      -0.9014303477787579 [Eh]
	 Correlation Energy        =      -1.1897426662440380 [Eh]
	 Total Energy              =    -265.1080356468641526 [Eh]

	 ================> DF-SCS-MP2 Energies <==================
	-----------------------------------------------------------
	 SCS Same-Spin Scale       =       0.3333333333333333 [-]
	 SCS Opposite-Spin Scale   =       1.2000000000000000 [-]
	 SCS Same-Spin Energy      =      -0.0961041061550934 [Eh]
	 SCS Opposite-Spin Energy  =      -1.0817164173345093 [Eh]
	 SCS Correlation Energy    =      -1.1778205234896026 [Eh]
	 SCS Total Energy          =    -265.0961135041097236 [Eh]
	-----------------------------------------------------------

  Dipole Moment: [D]
     X:     1.3398      Y:     2.0681      Z:    -0.0073     Total:     2.4642

*** Psi4 exiting successfully. Buy a developer a beer!
