                               Psi4 1.4a3.dev225

  ==> Input File <==

--------------------------------------------------------------------------
#psi4
#
memory 32 gb

molecule  {
0 1
  N        0.5963620     0.0240630    -0.0000100
  N       -0.0914470    -1.1353650    -0.0000170
  C       -0.2099680     1.1214940     0.0000230
  C        1.8463663    -0.0141386    -0.0000066
  C       -1.5131730     0.6485270     0.0000150
  C       -1.3848740    -0.7486420    -0.0000060
  H        0.1985450     2.1230060     0.0000470
  H        2.3968620    -0.5435580     0.8909570
  H        2.3968520    -0.5436990    -0.8908890
  H        2.4236260     1.0030860    -0.0000880
  H       -2.4195430     1.2372430     0.0000190
  H       -2.1602880    -1.5037500    -0.0000180
units angstrom
no_reorient  #important for SAPT in psi4, default
symmetry c1  #important for SAPT in psi4, default
}

set PROPERTIES_ORIGIN ["COM"]
properties('MP2/aug-cc-pvtz', properties = ['dipole'])
--------------------------------------------------------------------------

    Molecular point group: c1
  Charge       = 0
  Multiplicity = 1
  Basis Set: AUG-CC-PVTZ
    Blend: AUG-CC-PVTZ
  Basis Set: (AUG-CC-PVTZ AUX)
    Blend: AUG-CC-PVTZ-JKFIT

    Orbital Energies [Eh]
    ---------------------

    Doubly Occupied:

       1A    -15.641732     2A    -15.588349     3A    -11.284183
       4A    -11.275412     5A    -11.261025     6A    -11.228138
       7A     -1.407863     8A     -1.163079     9A     -1.067836
      10A     -0.937637    11A     -0.820114    12A     -0.782882
      13A     -0.731787    14A     -0.668467    15A     -0.624269
      16A     -0.611568    17A     -0.570964    18A     -0.508319
      19A     -0.504928    20A     -0.464202    21A     -0.351572
      22A     -0.343395

  @DF-RHF Final Energy:  -263.86820263131995

   => Energetics <=

    Nuclear Repulsion Energy =            230.0721758719105594
    One-Electron Energy =                -812.2053161659576972
    Two-Electron Energy =                 318.2649376627272204
    Total Energy =                       -263.8682026313199458
  Basis Set: (AUG-CC-PVTZ AUX)
    Blend: AUG-CC-PVTZ-RI
    Molecular point group: c1

    Geometry (in Angstrom), charge = 0, multiplicity = 1:

       Center              X                  Y                   Z               Mass
    ------------   -----------------  -----------------  -----------------  -----------------
         N            0.659871802668     0.044641903912    -0.000009450796    14.003074004430
         N           -0.027937197332    -1.114786096088    -0.000016450796    14.003074004430
         C           -0.146458197332     1.142072903912     0.000023549204    12.000000000000
         C            1.909876102668     0.006440303912    -0.000006050796    12.000000000000
         C           -1.449663197332     0.669105903912     0.000015549204    12.000000000000
         C           -1.321364197332    -0.728063096088    -0.000005450796    12.000000000000
         H            0.262054802668     2.143584903912     0.000047549204     1.007825032230
         H            2.460371802668    -0.522979096088     0.890957549204     1.007825032230
         H            2.460361802668    -0.523120096088    -0.890888450796     1.007825032230
         H            2.487135802668     1.023664903912    -0.000087450796     1.007825032230
         H           -2.356033197332     1.257821903912     0.000019549204     1.007825032230
         H           -2.096778197332    -1.483171096088    -0.000017450796     1.007825032230

  Basis Set: AUG-CC-PVTZ
    Blend: AUG-CC-PVTZ
  Basis Set: (AUG-CC-PVTZ AUX)
    Blend: AUG-CC-PVTZ-JKFIT
	 Reference Energy          =    -263.8682026313199458 [Eh]
	 Singles Energy            =      -0.0000000000000000 [Eh]
	 Same-Spin Energy          =      -0.2905135676746572 [Eh]
	 Opposite-Spin Energy      =      -0.9034857861197789 [Eh]
	 Correlation Energy        =      -1.1939993537944362 [Eh]
	 Total Energy              =    -265.0622019851143705 [Eh]

	 ================> DF-SCS-MP2 Energies <==================
	-----------------------------------------------------------
	 SCS Same-Spin Scale       =       0.3333333333333333 [-]
	 SCS Opposite-Spin Scale   =       1.2000000000000000 [-]
	 SCS Same-Spin Energy      =      -0.0968378558915524 [Eh]
	 SCS Opposite-Spin Energy  =      -1.0841829433437347 [Eh]
	 SCS Correlation Energy    =      -1.1810207992352870 [Eh]
	 SCS Total Energy          =    -265.0492234305552302 [Eh]
	-----------------------------------------------------------

  Dipole Moment: [D]
     X:     0.6405      Y:     2.1185      Z:     0.0000     Total:     2.2132

*** Psi4 exiting successfully. Buy a developer a beer!
