                               Psi4 1.4a3.dev225

  ==> Input File <==

--------------------------------------------------------------------------
#psi4
#
memory 32 gb

molecule  {
0 1
  N        0.5963620     0.0240630    -0.0000100
  N       -0.0914470    -1.1353650    -0.0000170
  C       -0.2099680     1.1214940     0.0000230
  C        2.0462730    -0.0202480    -0.0000060
  C       -1.5131730     0.6485270     0.0000150
  C       -1.3848740    -0.7486420    -0.0000060
  H        0.1985450     2.1230060     0.0000470
  H        2.3968620    -0.5435580     0.8909570
  H        2.3968520    -0.5436990    -0.8908890
  H        2.4167065     0.9843211    -0.0000865
  H       -2.4195430     1.2372430     0.0000190
  H       -2.1602880    -1.5037500    -0.0000180
units angstrom
no_reorient  #important for SAPT in psi4, default
symmetry c1  #important for SAPT in psi4, default
}

set PROPERTIES_ORIGIN ["COM"]
properties('MP2/aug-cc-pvtz', properties = ['dipole'])
--------------------------------------------------------------------------

    Molecular point group: c1
  Charge       = 0
  Multiplicity = 1
  Basis Set: AUG-CC-PVTZ
    Blend: AUG-CC-PVTZ
  Basis Set: (AUG-CC-PVTZ AUX)
    Blend: AUG-CC-PVTZ-JKFIT

    Orbital Energies [Eh]
    ---------------------

    Doubly Occupied:

       1A    -15.641611     2A    -15.582056     3A    -11.275124
       4A    -11.272041     5A    -11.250819     6A    -11.219567
       7A     -1.372625     8A     -1.116620     9A     -1.054710
      10A     -0.947030    11A     -0.804292    12A     -0.772611
      13A     -0.714802    14A     -0.649885    15A     -0.614166
      16A     -0.581617    17A     -0.570433    18A     -0.546863
      19A     -0.545039    20A     -0.456068    21A     -0.349006
      22A     -0.340689

  @DF-RHF Final Energy:  -263.91842307590889

   => Energetics <=

    Nuclear Repulsion Energy =            226.2910304592923296
    One-Electron Energy =                -805.0635623171641555
    Two-Electron Energy =                 314.8541087819629638
    Total Energy =                       -263.9184230759088905
  Basis Set: (AUG-CC-PVTZ AUX)
    Blend: AUG-CC-PVTZ-RI
    Molecular point group: c1

    Geometry (in Angstrom), charge = 0, multiplicity = 1:

       Center              X                  Y                   Z               Mass
    ------------   -----------------  -----------------  -----------------  -----------------
         N            0.630721084327     0.045765865565    -0.000009556968    14.003074004430
         N           -0.057087915673    -1.113662134435    -0.000016556968    14.003074004430
         C           -0.175608915673     1.143196865565     0.000023443032    12.000000000000
         C            2.080632084327     0.001454865565    -0.000005556968    12.000000000000
         C           -1.478813915673     0.670229865565     0.000015443032    12.000000000000
         C           -1.350514915673    -0.726939134435    -0.000005556968    12.000000000000
         H            0.232904084327     2.144708865565     0.000047443032     1.007825032230
         H            2.431221084327    -0.521855134435     0.890957443032     1.007825032230
         H            2.431211084327    -0.521996134435    -0.890888556968     1.007825032230
         H            2.451065584327     1.006023965565    -0.000086056968     1.007825032230
         H           -2.385183915673     1.258945865565     0.000019443032     1.007825032230
         H           -2.125928915673    -1.482047134435    -0.000017556968     1.007825032230

  Basis Set: AUG-CC-PVTZ
    Blend: AUG-CC-PVTZ
  Basis Set: (AUG-CC-PVTZ AUX)
    Blend: AUG-CC-PVTZ-JKFIT
	 Reference Energy          =    -263.9184230759088905 [Eh]
	 Singles Energy            =      -0.0000000000000000 [Eh]
	 Same-Spin Energy          =      -0.2883213562876863 [Eh]
	 Opposite-Spin Energy      =      -0.9013080541145581 [Eh]
	 Correlation Energy        =      -1.1896294104022442 [Eh]
	 Total Energy              =    -265.1080524863111236 [Eh]

	 ================> DF-SCS-MP2 Energies <==================
	-----------------------------------------------------------
	 SCS Same-Spin Scale       =       0.3333333333333333 [-]
	 SCS Opposite-Spin Scale   =       1.2000000000000000 [-]
	 SCS Same-Spin Energy      =      -0.0961071187625621 [Eh]
	 SCS Opposite-Spin Energy  =      -1.0815696649374695 [Eh]
	 SCS Correlation Energy    =      -1.1776767837000317 [Eh]
	 SCS Total Energy          =    -265.0960998596088984 [Eh]
	-----------------------------------------------------------

  Dipole Moment: [D]
     X:     1.3458      Y:     2.0619      Z:     0.0000     Total:     2.4622

*** Psi4 exiting successfully. Buy a developer a beer!
