                               Psi4 1.3.2 release

  ==> Input File <==

--------------------------------------------------------------------------
#psi4
#
memory 32 gb

molecule  {
0 1
  N        0.5479400     1.1907050     0.2959170
  C       -0.7486070     0.6692540     0.1554050
  C        1.7310100     0.4560470     0.0875670
  C       -3.4043000    -0.2987570    -0.0204040
  C       -1.1184250    -0.5206800     0.8026630
  C       -1.7211190     1.3742660    -0.5666580
  C       -2.4232850    -0.9959770     0.6985600
  C       -3.0306900     0.9005340    -0.6374610
  C        2.9509580     1.0658110     0.4223950
  C        1.7399610    -0.8480750    -0.4298540
  C       -4.8245050    -0.7978720    -0.0796260
  C        4.1550680     0.3942430     0.2262330
  C        2.9515180    -1.5184900    -0.6042170
  C        4.1638000    -0.9089480    -0.2775300
  H        0.6327655     2.1792954     0.2066535
  H       -0.3846330    -1.0553430     1.4003190
  H       -1.4458780     2.2938080    -1.0816330
  H       -2.6884880    -1.9242290     1.2030750
  H       -3.7690390     1.4656370    -1.2045950
  H        2.9440570     2.0709610     0.8408760
  H        0.8089320    -1.3225020    -0.7243660
  H       -5.3342430    -0.4266360    -0.9733710
  H       -4.8571770    -1.8911150    -0.1016080
  H       -5.3999470    -0.4674270     0.7922980
  H        5.0892700     0.8861500     0.4875790
  H        2.9428240    -2.5277610    -1.0100830
  H        5.1022700    -1.4382830    -0.4191710
units angstrom
no_reorient  #important for SAPT in psi4, default
symmetry c1  #important for SAPT in psi4, default
}

set PROPERTIES_ORIGIN ["COM"]
properties('MP2/aug-cc-pvtz', properties = ['dipole'])
--------------------------------------------------------------------------

    Molecular point group: c1
  Charge       = 0
  Multiplicity = 1
  Basis Set: AUG-CC-PVTZ
    Blend: AUG-CC-PVTZ
  Basis Set: (AUG-CC-PVTZ AUX)
    Blend: AUG-CC-PVTZ-JKFIT

    Orbital Energies [Eh]
    ---------------------

    Doubly Occupied:

       1A    -15.575224     2A    -11.283494     3A    -11.277179
       4A    -11.237461     5A    -11.237052     6A    -11.236744
       7A    -11.234853     8A    -11.234390     9A    -11.232856
      10A    -11.230679    11A    -11.227611    12A    -11.224836
      13A    -11.223637    14A    -11.222741    15A     -1.258497
      16A     -1.151812    17A     -1.128163    18A     -1.040892
      19A     -1.015844    20A     -1.010252    21A     -0.989650
      22A     -0.922229    23A     -0.842844    24A     -0.829336
      25A     -0.816861    26A     -0.786382    27A     -0.713111
      28A     -0.707864    29A     -0.668004    30A     -0.640659
      31A     -0.636753    32A     -0.618305    33A     -0.598694
      34A     -0.586593    35A     -0.585046    36A     -0.582072
      37A     -0.573744    38A     -0.547613    39A     -0.529603
      40A     -0.513034    41A     -0.501185    42A     -0.494416
      43A     -0.489048    44A     -0.486430    45A     -0.441131
      46A     -0.340163    47A     -0.335429    48A     -0.330554
      49A     -0.274769

  @DF-RHF Final Energy:  -554.49117187414254

   => Energetics <=

    Nuclear Repulsion Energy =            787.3656768725129496
    One-Electron Energy =               -2312.3822135154073294
    Two-Electron Energy =                 970.5253647687518423
    Total Energy =                       -554.4911718741425375
  Basis Set: (AUG-CC-PVTZ AUX)
    Blend: AUG-CC-PVTZ-RI
    Molecular point group: c1

    Geometry (in Angstrom), charge = 0, multiplicity = 1:

       Center              X                  Y                   Z               Mass
    ------------   -----------------  -----------------  -----------------  -----------------
         N            0.513422039422     1.178933186450     0.291110860965    14.003074004430
         C           -0.783124960578     0.657482186450     0.150598860965    12.000000000000
         C            1.696492039422     0.444275186450     0.082760860965    12.000000000000
         C           -3.438817960578    -0.310528813550    -0.025210139035    12.000000000000
         C           -1.152942960578    -0.532451813550     0.797856860965    12.000000000000
         C           -1.755636960578     1.362494186450    -0.571464139035    12.000000000000
         C           -2.457802960578    -1.007748813550     0.693753860965    12.000000000000
         C           -3.065207960578     0.888762186450    -0.642267139035    12.000000000000
         C            2.916440039422     1.054039186450     0.417588860965    12.000000000000
         C            1.705443039422    -0.859846813550    -0.434660139035    12.000000000000
         C           -4.859022960578    -0.809643813550    -0.084432139035    12.000000000000
         C            4.120550039422     0.382471186450     0.221426860965    12.000000000000
         C            2.917000039422    -1.530261813550    -0.609023139035    12.000000000000
         C            4.129282039422    -0.920719813550    -0.282336139035    12.000000000000
         H            0.598247539422     2.167523586450     0.201847360965     1.007825032230
         H           -0.419150960578    -1.067114813550     1.395512860965     1.007825032230
         H           -1.480395960578     2.282036186450    -1.086439139035     1.007825032230
         H           -2.723005960578    -1.936000813550     1.198268860965     1.007825032230
         H           -3.803556960578     1.453865186450    -1.209401139035     1.007825032230
         H            2.909539039422     2.059189186450     0.836069860965     1.007825032230
         H            0.774414039422    -1.334273813550    -0.729172139035     1.007825032230
         H           -5.368760960578    -0.438407813550    -0.978177139035     1.007825032230
         H           -4.891694960578    -1.902886813550    -0.106414139035     1.007825032230
         H           -5.434464960578    -0.479198813550     0.787491860965     1.007825032230
         H            5.054752039422     0.874378186450     0.482772860965     1.007825032230
         H            2.908306039422    -2.539532813550    -1.014889139035     1.007825032230
         H            5.067752039422    -1.450054813550    -0.423977139035     1.007825032230

  Basis Set: AUG-CC-PVTZ
    Blend: AUG-CC-PVTZ
  Basis Set: (AUG-CC-PVTZ AUX)
    Blend: AUG-CC-PVTZ-JKFIT
	 Reference Energy          =    -554.4911718741425375 [Eh]
	 Singles Energy            =      -0.0000000000000000 [Eh]
	 Same-Spin Energy          =      -0.6237830492023068 [Eh]
	 Opposite-Spin Energy      =      -1.9522702485961789 [Eh]
	 Correlation Energy        =      -2.5760532977984858 [Eh]
	 Total Energy              =    -557.0672251719410042 [Eh]

	 ================> DF-SCS-MP2 Energies <==================
	-----------------------------------------------------------
	 SCS Same-Spin Scale       =       0.3333333333333333 [-]
	 SCS Opposite-Spin Scale   =       1.2000000000000000 [-]
	 SCS Same-Spin Energy      =      -0.2079276830674356 [Eh]
	 SCS Opposite-Spin Energy  =      -2.3427242983154146 [Eh]
	 SCS Correlation Energy    =      -2.5506519813828503 [Eh]
	 SCS Total Energy          =    -557.0418238555254220 [Eh]
	-----------------------------------------------------------

  Dipole Moment: [D]
     X:    -0.7887      Y:     0.6498      Z:    -0.1573     Total:     1.0339

*** Psi4 exiting successfully. Buy a developer a beer!
