                               Psi4 1.3.2 release

  ==> Input File <==

--------------------------------------------------------------------------
#psi4
#
memory 32 gb

molecule  {
0 1
  N        0.5479400     1.1907050     0.2959170
  C       -0.7486070     0.6692540     0.1554050
  C        1.7310100     0.4560470     0.0875670
  C       -3.4043000    -0.2987570    -0.0204040
  C       -1.1184250    -0.5206800     0.8026630
  C       -1.7211190     1.3742660    -0.5666580
  C       -2.4232850    -0.9959770     0.6985600
  C       -3.0306900     0.9005340    -0.6374610
  C        2.9509580     1.0658110     0.4223950
  C        1.7399610    -0.8480750    -0.4298540
  C       -4.8245050    -0.7978720    -0.0796260
  C        4.1550680     0.3942430     0.2262330
  C        2.9515180    -1.5184900    -0.6042170
  C        4.1638000    -0.9089480    -0.2775300
  H        0.6297105     2.1755465     0.1067705
  H       -0.3846330    -1.0553430     1.4003190
  H       -1.4458780     2.2938080    -1.0816330
  H       -2.6884880    -1.9242290     1.2030750
  H       -3.7690390     1.4656370    -1.2045950
  H        2.9440570     2.0709610     0.8408760
  H        0.8089320    -1.3225020    -0.7243660
  H       -5.3342430    -0.4266360    -0.9733710
  H       -4.8571770    -1.8911150    -0.1016080
  H       -5.3999470    -0.4674270     0.7922980
  H        5.0892700     0.8861500     0.4875790
  H        2.9428240    -2.5277610    -1.0100830
  H        5.1022700    -1.4382830    -0.4191710
units angstrom
no_reorient  #important for SAPT in psi4, default
symmetry c1  #important for SAPT in psi4, default
}

set PROPERTIES_ORIGIN ["COM"]
properties('MP2/aug-cc-pvtz', properties = ['dipole'])
--------------------------------------------------------------------------

    Molecular point group: c1
  Charge       = 0
  Multiplicity = 1
  Basis Set: AUG-CC-PVTZ
    Blend: AUG-CC-PVTZ
  Basis Set: (AUG-CC-PVTZ AUX)
    Blend: AUG-CC-PVTZ-JKFIT

    Orbital Energies [Eh]
    ---------------------

    Doubly Occupied:

       1A    -15.576418     2A    -11.282941     3A    -11.277345
       4A    -11.237750     5A    -11.237038     6A    -11.236462
       7A    -11.234860     8A    -11.234303     9A    -11.232683
      10A    -11.230243    11A    -11.228279    12A    -11.225651
      13A    -11.223878    14A    -11.223312    15A     -1.258519
      16A     -1.151861    17A     -1.128284    18A     -1.040789
      19A     -1.015880    20A     -1.010573    21A     -0.989622
      22A     -0.921740    23A     -0.842847    24A     -0.829592
      25A     -0.816802    26A     -0.785728    27A     -0.713208
      28A     -0.705698    29A     -0.668435    30A     -0.640424
      31A     -0.635725    32A     -0.618841    33A     -0.598032
      34A     -0.587447    35A     -0.585139    36A     -0.582283
      37A     -0.573464    38A     -0.546315    39A     -0.530305
      40A     -0.513242    41A     -0.501262    42A     -0.494687
      43A     -0.489517    44A     -0.486148    45A     -0.441667
      46A     -0.340250    47A     -0.335634    48A     -0.330828
      49A     -0.275383

  @DF-RHF Final Energy:  -554.49114725754134

   => Energetics <=

    Nuclear Repulsion Energy =            787.3600845007396174
    One-Electron Energy =               -2312.3677888716401867
    Two-Electron Energy =                 970.5165571133593403
    Total Energy =                       -554.4911472575413427
  Basis Set: (AUG-CC-PVTZ AUX)
    Blend: AUG-CC-PVTZ-RI
    Molecular point group: c1

    Geometry (in Angstrom), charge = 0, multiplicity = 1:

       Center              X                  Y                   Z               Mass
    ------------   -----------------  -----------------  -----------------  -----------------
         N            0.513438854412     1.178953820728     0.291660625843    14.003074004430
         C           -0.783108145588     0.657502820728     0.151148625843    12.000000000000
         C            1.696508854412     0.444295820728     0.083310625843    12.000000000000
         C           -3.438801145588    -0.310508179272    -0.024660374157    12.000000000000
         C           -1.152926145588    -0.532431179272     0.798406625843    12.000000000000
         C           -1.755620145588     1.362514820728    -0.570914374157    12.000000000000
         C           -2.457786145588    -1.007728179272     0.694303625843    12.000000000000
         C           -3.065191145588     0.888782820728    -0.641717374157    12.000000000000
         C            2.916456854412     1.054059820728     0.418138625843    12.000000000000
         C            1.705459854412    -0.859826179272    -0.434110374157    12.000000000000
         C           -4.859006145588    -0.809623179272    -0.083882374157    12.000000000000
         C            4.120566854412     0.382491820728     0.221976625843    12.000000000000
         C            2.917016854412    -1.530241179272    -0.608473374157    12.000000000000
         C            4.129298854412    -0.920699179272    -0.281786374157    12.000000000000
         H            0.595209354412     2.163795320728     0.102514125843     1.007825032230
         H           -0.419134145588    -1.067094179272     1.396062625843     1.007825032230
         H           -1.480379145588     2.282056820728    -1.085889374157     1.007825032230
         H           -2.722989145588    -1.935980179272     1.198818625843     1.007825032230
         H           -3.803540145588     1.453885820728    -1.208851374157     1.007825032230
         H            2.909555854412     2.059209820728     0.836619625843     1.007825032230
         H            0.774430854412    -1.334253179272    -0.728622374157     1.007825032230
         H           -5.368744145588    -0.438387179272    -0.977627374157     1.007825032230
         H           -4.891678145588    -1.902866179272    -0.105864374157     1.007825032230
         H           -5.434448145588    -0.479178179272     0.788041625843     1.007825032230
         H            5.054768854412     0.874398820728     0.483322625843     1.007825032230
         H            2.908322854412    -2.539512179272    -1.014339374157     1.007825032230
         H            5.067768854412    -1.450034179272    -0.423427374157     1.007825032230

  Basis Set: AUG-CC-PVTZ
    Blend: AUG-CC-PVTZ
  Basis Set: (AUG-CC-PVTZ AUX)
    Blend: AUG-CC-PVTZ-JKFIT
	 Reference Energy          =    -554.4911472575413427 [Eh]
	 Singles Energy            =      -0.0000000000000000 [Eh]
	 Same-Spin Energy          =      -0.6238549492787678 [Eh]
	 Opposite-Spin Energy      =      -1.9524740049606408 [Eh]
	 Correlation Energy        =      -2.5763289542394086 [Eh]
	 Total Energy              =    -557.0674762117807859 [Eh]

	 ================> DF-SCS-MP2 Energies <==================
	-----------------------------------------------------------
	 SCS Same-Spin Scale       =       0.3333333333333333 [-]
	 SCS Opposite-Spin Scale   =       1.2000000000000000 [-]
	 SCS Same-Spin Energy      =      -0.2079516497595893 [Eh]
	 SCS Opposite-Spin Energy  =      -2.3429688059527689 [Eh]
	 SCS Correlation Energy    =      -2.5509204557123581 [Eh]
	 SCS Total Energy          =    -557.0420677132536866 [Eh]
	-----------------------------------------------------------

  Dipole Moment: [D]
     X:    -0.6836      Y:     0.6044      Z:    -0.2810     Total:     0.9548

*** Psi4 exiting successfully. Buy a developer a beer!
