                               Psi4 1.3.2 release

  ==> Input File <==

--------------------------------------------------------------------------
#psi4
#
memory 32 gb

molecule  {
0 1
  N        0.5479400     1.1907050     0.2959170
  C       -0.7486070     0.6692540     0.1554050
  C        1.7310100     0.4560470     0.0875670
  C       -3.4043000    -0.2987570    -0.0204040
  C       -1.1184250    -0.5206800     0.8026630
  C       -1.7211190     1.3742660    -0.5666580
  C       -2.4232850    -0.9959770     0.6985600
  C       -3.0306900     0.9005340    -0.6374610
  C        2.9509580     1.0658110     0.4223950
  C        1.7399610    -0.8480750    -0.4298540
  C       -4.8245050    -0.7978720    -0.0796260
  C        4.1550680     0.3942430     0.2262330
  C        2.9515180    -1.5184900    -0.6042170
  C        4.1638000    -0.9089480    -0.2775300
  H        0.6358204     2.1830444     0.3065365
  H       -0.3846330    -1.0553430     1.4003190
  H       -1.4458780     2.2938080    -1.0816330
  H       -2.6884880    -1.9242290     1.2030750
  H       -3.7690390     1.4656370    -1.2045950
  H        2.9440570     2.0709610     0.8408760
  H        0.8089320    -1.3225020    -0.7243660
  H       -5.3342430    -0.4266360    -0.9733710
  H       -4.8571770    -1.8911150    -0.1016080
  H       -5.3999470    -0.4674270     0.7922980
  H        5.0892700     0.8861500     0.4875790
  H        2.9428240    -2.5277610    -1.0100830
  H        5.1022700    -1.4382830    -0.4191710
units angstrom
no_reorient  #important for SAPT in psi4, default
symmetry c1  #important for SAPT in psi4, default
}

set PROPERTIES_ORIGIN ["COM"]
properties('MP2/aug-cc-pvtz', properties = ['dipole'])
--------------------------------------------------------------------------

    Molecular point group: c1
  Charge       = 0
  Multiplicity = 1
  Basis Set: AUG-CC-PVTZ
    Blend: AUG-CC-PVTZ
  Basis Set: (AUG-CC-PVTZ AUX)
    Blend: AUG-CC-PVTZ-JKFIT

    Orbital Energies [Eh]
    ---------------------

    Doubly Occupied:

       1A    -15.574836     2A    -11.283913     3A    -11.276877
       4A    -11.237766     5A    -11.237144     6A    -11.236428
       7A    -11.234840     8A    -11.234448     9A    -11.233053
      10A    -11.231148    11A    -11.226927    12A    -11.224038
      13A    -11.224002    14A    -11.221649    15A     -1.257584
      16A     -1.151769    17A     -1.127829    18A     -1.040945
      19A     -1.015798    20A     -1.009906    21A     -0.989388
      22A     -0.922446    23A     -0.842519    24A     -0.829064
      25A     -0.816875    26A     -0.786534    27A     -0.712865
      28A     -0.708406    29A     -0.667460    30A     -0.641042
      31A     -0.637611    32A     -0.617732    33A     -0.599062
      34A     -0.585553    35A     -0.584981    36A     -0.581749
      37A     -0.574048    38A     -0.548635    39A     -0.528797
      40A     -0.512803    41A     -0.501096    42A     -0.494157
      43A     -0.488621    44A     -0.486535    45A     -0.440440
      46A     -0.340081    47A     -0.335196    48A     -0.330259
      49A     -0.274402

  @DF-RHF Final Energy:  -554.49085378127018

   => Energetics <=

    Nuclear Repulsion Energy =            787.3194519632538686
    One-Electron Energy =               -2312.3020920417197885
    Two-Electron Energy =                 970.4917862971957447
    Total Energy =                       -554.4908537812701752
  Basis Set: (AUG-CC-PVTZ AUX)
    Blend: AUG-CC-PVTZ-RI
    Molecular point group: c1

    Geometry (in Angstrom), charge = 0, multiplicity = 1:

       Center              X                  Y                   Z               Mass
    ------------   -----------------  -----------------  -----------------  -----------------
         N            0.513405224982     1.178912551622     0.290561096087    14.003074004430
         C           -0.783141775018     0.657461551622     0.150049096087    12.000000000000
         C            1.696475224982     0.444254551622     0.082211096087    12.000000000000
         C           -3.438834775018    -0.310549448378    -0.025759903913    12.000000000000
         C           -1.152959775018    -0.532472448378     0.797307096087    12.000000000000
         C           -1.755653775018     1.362473551622    -0.572013903913    12.000000000000
         C           -2.457819775018    -1.007769448378     0.693204096087    12.000000000000
         C           -3.065224775018     0.888741551622    -0.642816903913    12.000000000000
         C            2.916423224982     1.054018551622     0.417039096087    12.000000000000
         C            1.705426224982    -0.859867448378    -0.435209903913    12.000000000000
         C           -4.859039775018    -0.809664448378    -0.084981903913    12.000000000000
         C            4.120533224982     0.382450551622     0.220877096087    12.000000000000
         C            2.916983224982    -1.530282448378    -0.609572903913    12.000000000000
         C            4.129265224982    -0.920740448378    -0.282885903913    12.000000000000
         H            0.601285624982     2.171251951622     0.301180596087     1.007825032230
         H           -0.419167775018    -1.067135448378     1.394963096087     1.007825032230
         H           -1.480412775018     2.282015551622    -1.086988903913     1.007825032230
         H           -2.723022775018    -1.936021448378     1.197719096087     1.007825032230
         H           -3.803573775018     1.453844551622    -1.209950903913     1.007825032230
         H            2.909522224982     2.059168551622     0.835520096087     1.007825032230
         H            0.774397224982    -1.334294448378    -0.729721903913     1.007825032230
         H           -5.368777775018    -0.438428448378    -0.978726903913     1.007825032230
         H           -4.891711775018    -1.902907448378    -0.106963903913     1.007825032230
         H           -5.434481775018    -0.479219448378     0.786942096087     1.007825032230
         H            5.054735224982     0.874357551622     0.482223096087     1.007825032230
         H            2.908289224982    -2.539553448378    -1.015438903913     1.007825032230
         H            5.067735224982    -1.450075448378    -0.424526903913     1.007825032230

  Basis Set: AUG-CC-PVTZ
    Blend: AUG-CC-PVTZ
  Basis Set: (AUG-CC-PVTZ AUX)
    Blend: AUG-CC-PVTZ-JKFIT
	 Reference Energy          =    -554.4908537812701752 [Eh]
	 Singles Energy            =      -0.0000000000000000 [Eh]
	 Same-Spin Energy          =      -0.6237834506439186 [Eh]
	 Opposite-Spin Energy      =      -1.9522849131157747 [Eh]
	 Correlation Energy        =      -2.5760683637596933 [Eh]
	 Total Energy              =    -557.0669221450298210 [Eh]

	 ================> DF-SCS-MP2 Energies <==================
	-----------------------------------------------------------
	 SCS Same-Spin Scale       =       0.3333333333333333 [-]
	 SCS Opposite-Spin Scale   =       1.2000000000000000 [-]
	 SCS Same-Spin Energy      =      -0.2079278168813062 [Eh]
	 SCS Opposite-Spin Energy  =      -2.3427418957389294 [Eh]
	 SCS Correlation Energy    =      -2.5506697126202358 [Eh]
	 SCS Total Energy          =    -557.0415234938903950 [Eh]
	-----------------------------------------------------------

  Dipole Moment: [D]
     X:    -0.8974      Y:     0.6838      Z:    -0.0302     Total:     1.1286

*** Psi4 exiting successfully. Buy a developer a beer!
