                               Psi4 1.3.2 release

  ==> Input File <==

--------------------------------------------------------------------------
#psi4
#
memory 32 gb

molecule  {
0 1
  N        0.5479400     1.1907050     0.2959170
  C       -0.7486070     0.6692540     0.1554050
  C        1.7310100     0.4560470     0.0875670
  C       -3.4043000    -0.2987570    -0.0204040
  C       -1.1184250    -0.5206800     0.8026630
  C       -1.7211190     1.3742660    -0.5666580
  C       -2.4232850    -0.9959770     0.6985600
  C       -3.0306900     0.9005340    -0.6374610
  C        2.9509580     1.0658110     0.4223950
  C        1.7399610    -0.8480750    -0.4298540
  C       -4.8245050    -0.7978720    -0.0796260
  C        4.1550680     0.3942430     0.2262330
  C        2.9515180    -1.5184900    -0.6042170
  C        4.1638000    -0.9089480    -0.2775300
  H        0.6312380     2.1774210     0.1567120
  H       -0.3846330    -1.0553430     1.4003190
  H       -1.4458780     2.2938080    -1.0816330
  H       -2.6884880    -1.9242290     1.2030750
  H       -3.7690390     1.4656370    -1.2045950
  H        2.9440570     2.0709610     0.8408760
  H        0.8089320    -1.3225020    -0.7243660
  H       -5.3342430    -0.4266360    -0.9733710
  H       -4.8571770    -1.8911150    -0.1016080
  H       -5.3999470    -0.4674270     0.7922980
  H        5.0892700     0.8861500     0.4875790
  H        2.9428240    -2.5277610    -1.0100830
  H        5.1022700    -1.4382830    -0.4191710
units angstrom
no_reorient  #important for SAPT in psi4, default
symmetry c1  #important for SAPT in psi4, default
}

set PROPERTIES_ORIGIN ["COM"]
properties('MP2/aug-cc-pvtz', properties = ['dipole'])
--------------------------------------------------------------------------

    Molecular point group: c1
  Charge       = 0
  Multiplicity = 1
  Basis Set: AUG-CC-PVTZ
    Blend: AUG-CC-PVTZ
  Basis Set: (AUG-CC-PVTZ AUX)
    Blend: AUG-CC-PVTZ-JKFIT

    Orbital Energies [Eh]
    ---------------------

    Doubly Occupied:

       1A    -15.575721     2A    -11.283231     3A    -11.277278
       4A    -11.237610     5A    -11.236894     6A    -11.236738
       7A    -11.234857     8A    -11.234350     9A    -11.232765
      10A    -11.230454    11A    -11.227950    12A    -11.225244
      13A    -11.223469    14A    -11.223308    15A     -1.258618
      16A     -1.151835    17A     -1.128250    18A     -1.040846
      19A     -1.015863    20A     -1.010417    21A     -0.989671
      22A     -0.922015    23A     -0.842884    24A     -0.829467
      25A     -0.816835    26A     -0.786112    27A     -0.713169
      28A     -0.706985    29A     -0.668236    30A     -0.640526
      31A     -0.636253    32A     -0.618582    33A     -0.598402
      34A     -0.587051    35A     -0.585089    36A     -0.582190
      37A     -0.573600    38A     -0.546998    39A     -0.529967
      40A     -0.513142    41A     -0.501225    42A     -0.494551
      43A     -0.489285    44A     -0.486304    45A     -0.441418
      46A     -0.340206    47A     -0.335536    48A     -0.330694
      49A     -0.275048

  @DF-RHF Final Energy:  -554.49122475145646

   => Energetics <=

    Nuclear Repulsion Energy =            787.3692529157485751
    One-Electron Energy =               -2312.3866826912449142
    Two-Electron Energy =                 970.5262050240398821
    Total Energy =                       -554.4912247514564569
  Basis Set: (AUG-CC-PVTZ AUX)
    Blend: AUG-CC-PVTZ-RI
    Molecular point group: c1

    Geometry (in Angstrom), charge = 0, multiplicity = 1:

       Center              X                  Y                   Z               Mass
    ------------   -----------------  -----------------  -----------------  -----------------
         N            0.513430446917     1.178943503314     0.291385743404    14.003074004430
         C           -0.783116553083     0.657492503314     0.150873743404    12.000000000000
         C            1.696500446917     0.444285503314     0.083035743404    12.000000000000
         C           -3.438809553083    -0.310518496686    -0.024935256596    12.000000000000
         C           -1.152934553083    -0.532441496686     0.798131743404    12.000000000000
         C           -1.755628553083     1.362504503314    -0.571189256596    12.000000000000
         C           -2.457794553083    -1.007738496686     0.694028743404    12.000000000000
         C           -3.065199553083     0.888772503314    -0.641992256596    12.000000000000
         C            2.916448446917     1.054049503314     0.417863743404    12.000000000000
         C            1.705451446917    -0.859836496686    -0.434385256596    12.000000000000
         C           -4.859014553083    -0.809633496686    -0.084157256596    12.000000000000
         C            4.120558446917     0.382481503314     0.221701743404    12.000000000000
         C            2.917008446917    -1.530251496686    -0.608748256596    12.000000000000
         C            4.129290446917    -0.920709496686    -0.282061256596    12.000000000000
         H            0.596728446917     2.165659503314     0.152180743404     1.007825032230
         H           -0.419142553083    -1.067104496686     1.395787743404     1.007825032230
         H           -1.480387553083     2.282046503314    -1.086164256596     1.007825032230
         H           -2.722997553083    -1.935990496686     1.198543743404     1.007825032230
         H           -3.803548553083     1.453875503314    -1.209126256596     1.007825032230
         H            2.909547446917     2.059199503314     0.836344743404     1.007825032230
         H            0.774422446917    -1.334263496686    -0.728897256596     1.007825032230
         H           -5.368752553083    -0.438397496686    -0.977902256596     1.007825032230
         H           -4.891686553083    -1.902876496686    -0.106139256596     1.007825032230
         H           -5.434456553083    -0.479188496686     0.787766743404     1.007825032230
         H            5.054760446917     0.874388503314     0.483047743404     1.007825032230
         H            2.908314446917    -2.539522496686    -1.014614256596     1.007825032230
         H            5.067760446917    -1.450044496686    -0.423702256596     1.007825032230

  Basis Set: AUG-CC-PVTZ
    Blend: AUG-CC-PVTZ
  Basis Set: (AUG-CC-PVTZ AUX)
    Blend: AUG-CC-PVTZ-JKFIT
	 Reference Energy          =    -554.4912247514564569 [Eh]
	 Singles Energy            =      -0.0000000000000000 [Eh]
	 Same-Spin Energy          =      -0.6238097242852133 [Eh]
	 Opposite-Spin Energy      =      -1.9523436740650566 [Eh]
	 Correlation Energy        =      -2.5761533983502698 [Eh]
	 Total Energy              =    -557.0673781498067001 [Eh]

	 ================> DF-SCS-MP2 Energies <==================
	-----------------------------------------------------------
	 SCS Same-Spin Scale       =       0.3333333333333333 [-]
	 SCS Opposite-Spin Scale   =       1.2000000000000000 [-]
	 SCS Same-Spin Energy      =      -0.2079365747617378 [Eh]
	 SCS Opposite-Spin Energy  =      -2.3428124088780677 [Eh]
	 SCS Correlation Energy    =      -2.5507489836398056 [Eh]
	 SCS Total Energy          =    -557.0419737350962350 [Eh]
	-----------------------------------------------------------

  Dipole Moment: [D]
     X:    -0.7354      Y:     0.6284      Z:    -0.2197     Total:     0.9920

*** Psi4 exiting successfully. Buy a developer a beer!
