                               Psi4 1.3.2 release

  ==> Input File <==

--------------------------------------------------------------------------
#psi4
#
memory 32 gb

molecule  {
0 1
  N        0.5479400     1.1907050     0.2959170
  C       -0.7486070     0.6692540     0.1554050
  C        1.7310100     0.4560470     0.0875670
  C       -3.4043000    -0.2987570    -0.0204040
  C       -1.1184250    -0.5206800     0.8026630
  C       -1.7211190     1.3742660    -0.5666580
  C       -2.4232850    -0.9959770     0.6985600
  C       -3.0306900     0.9005340    -0.6374610
  C        2.9509580     1.0658110     0.4223950
  C        1.7399610    -0.8480750    -0.4298540
  C       -4.8245050    -0.7978720    -0.0796260
  C        4.1550680     0.3942430     0.2262330
  C        2.9515180    -1.5184900    -0.6042170
  C        4.1638000    -0.9089480    -0.2775300
  H        0.6342929     2.1811699     0.2565950
  H       -0.3846330    -1.0553430     1.4003190
  H       -1.4458780     2.2938080    -1.0816330
  H       -2.6884880    -1.9242290     1.2030750
  H       -3.7690390     1.4656370    -1.2045950
  H        2.9440570     2.0709610     0.8408760
  H        0.8089320    -1.3225020    -0.7243660
  H       -5.3342430    -0.4266360    -0.9733710
  H       -4.8571770    -1.8911150    -0.1016080
  H       -5.3999470    -0.4674270     0.7922980
  H        5.0892700     0.8861500     0.4875790
  H        2.9428240    -2.5277610    -1.0100830
  H        5.1022700    -1.4382830    -0.4191710
units angstrom
no_reorient  #important for SAPT in psi4, default
symmetry c1  #important for SAPT in psi4, default
}

set PROPERTIES_ORIGIN ["COM"]
properties('MP2/aug-cc-pvtz', properties = ['dipole'])
--------------------------------------------------------------------------

    Molecular point group: c1
  Charge       = 0
  Multiplicity = 1
  Basis Set: AUG-CC-PVTZ
    Blend: AUG-CC-PVTZ
  Basis Set: (AUG-CC-PVTZ AUX)
    Blend: AUG-CC-PVTZ-JKFIT

    Orbital Energies [Eh]
    ---------------------

    Doubly Occupied:

       1A    -15.574929     2A    -11.283722     3A    -11.277046
       4A    -11.237397     5A    -11.237305     6A    -11.236588
       7A    -11.234847     8A    -11.234423     9A    -11.232953
      10A    -11.230911    11A    -11.227269    12A    -11.224432
      13A    -11.223816    14A    -11.222186    15A     -1.258151
      16A     -1.151790    17A     -1.128022    18A     -1.040926
      19A     -1.015822    20A     -1.010081    21A     -0.989556
      22A     -0.922375    23A     -0.842723    24A     -0.829201
      25A     -0.816876    26A     -0.786526    27A     -0.713016
      28A     -0.708335    29A     -0.667744    30A     -0.640831
      31A     -0.637210    32A     -0.618020    33A     -0.598913
      34A     -0.586088    35A     -0.585012    36A     -0.581927
      37A     -0.573894    38A     -0.548159    39A     -0.529214
      40A     -0.512920    41A     -0.501143    42A     -0.494284
      43A     -0.488820    44A     -0.486513    45A     -0.440804
      46A     -0.340122    47A     -0.335316    48A     -0.330408
      49A     -0.274553

  @DF-RHF Final Energy:  -554.49104097152167

   => Energetics <=

    Nuclear Repulsion Energy =            787.3490918430908323
    One-Electron Energy =               -2312.3540264795651638
    Two-Electron Energy =                 970.5138936649527750
    Total Energy =                       -554.4910409715216701
  Basis Set: (AUG-CC-PVTZ AUX)
    Blend: AUG-CC-PVTZ-RI
    Molecular point group: c1

    Geometry (in Angstrom), charge = 0, multiplicity = 1:

       Center              X                  Y                   Z               Mass
    ------------   -----------------  -----------------  -----------------  -----------------
         N            0.513413632477     1.178922869036     0.290835978526    14.003074004430
         C           -0.783133367523     0.657471869036     0.150323978526    12.000000000000
         C            1.696483632477     0.444264869036     0.082485978526    12.000000000000
         C           -3.438826367523    -0.310539130964    -0.025485021474    12.000000000000
         C           -1.152951367523    -0.532462130964     0.797581978526    12.000000000000
         C           -1.755645367523     1.362483869036    -0.571739021474    12.000000000000
         C           -2.457811367523    -1.007759130964     0.693478978526    12.000000000000
         C           -3.065216367523     0.888751869036    -0.642542021474    12.000000000000
         C            2.916431632477     1.054028869036     0.417313978526    12.000000000000
         C            1.705434632477    -0.859857130964    -0.434935021474    12.000000000000
         C           -4.859031367523    -0.809654130964    -0.084707021474    12.000000000000
         C            4.120541632477     0.382460869036     0.221151978526    12.000000000000
         C            2.916991632477    -1.530272130964    -0.609298021474    12.000000000000
         C            4.129273632477    -0.920730130964    -0.282611021474    12.000000000000
         H            0.599766532477     2.169387769036     0.251513978526     1.007825032230
         H           -0.419159367523    -1.067125130964     1.395237978526     1.007825032230
         H           -1.480404367523     2.282025869036    -1.086714021474     1.007825032230
         H           -2.723014367523    -1.936011130964     1.197993978526     1.007825032230
         H           -3.803565367523     1.453854869036    -1.209676021474     1.007825032230
         H            2.909530632477     2.059178869036     0.835794978526     1.007825032230
         H            0.774405632477    -1.334284130964    -0.729447021474     1.007825032230
         H           -5.368769367523    -0.438418130964    -0.978452021474     1.007825032230
         H           -4.891703367523    -1.902897130964    -0.106689021474     1.007825032230
         H           -5.434473367523    -0.479209130964     0.787216978526     1.007825032230
         H            5.054743632477     0.874367869036     0.482497978526     1.007825032230
         H            2.908297632477    -2.539543130964    -1.015164021474     1.007825032230
         H            5.067743632477    -1.450065130964    -0.424252021474     1.007825032230

  Basis Set: AUG-CC-PVTZ
    Blend: AUG-CC-PVTZ
  Basis Set: (AUG-CC-PVTZ AUX)
    Blend: AUG-CC-PVTZ-JKFIT
	 Reference Energy          =    -554.4910409715216701 [Eh]
	 Singles Energy            =      -0.0000000000000000 [Eh]
	 Same-Spin Energy          =      -0.6237744411258492 [Eh]
	 Opposite-Spin Energy      =      -1.9522514312890462 [Eh]
	 Correlation Energy        =      -2.5760258724148954 [Eh]
	 Total Energy              =    -557.0670668439365727 [Eh]

	 ================> DF-SCS-MP2 Energies <==================
	-----------------------------------------------------------
	 SCS Same-Spin Scale       =       0.3333333333333333 [-]
	 SCS Opposite-Spin Scale   =       1.2000000000000000 [-]
	 SCS Same-Spin Energy      =      -0.2079248137086164 [Eh]
	 SCS Opposite-Spin Energy  =      -2.3427017175468552 [Eh]
	 SCS Correlation Energy    =      -2.5506265312554715 [Eh]
	 SCS Total Energy          =    -557.0416675027771589 [Eh]
	-----------------------------------------------------------

  Dipole Moment: [D]
     X:    -0.8429      Y:     0.6683      Z:    -0.0940     Total:     1.0798

*** Psi4 exiting successfully. Buy a developer a beer!
