                               Psi4 1.3.2 release

  ==> Input File <==

--------------------------------------------------------------------------
#psi4
#
memory 32 gb

molecule  {
0 1
  O        1.2581485    -0.5404891    -0.0429971
  C       -0.0526320    -0.2163280    -0.0000090
  C        2.2283480     0.5091050    -0.0000050
  C       -0.5417410     1.0945740     0.0000030
  C       -0.9442280    -1.2979990     0.0000050
  C        3.5986500    -0.1324730     0.0000120
  C       -1.9250240     1.3079840    -0.0000030
  C       -2.3159710    -1.0695280    -0.0000020
  C       -2.8161410     0.2373500     0.0000110
  H        2.0858520     1.1373040    -0.8891130
  H        2.0858350     1.1373010     0.8891040
  H        0.1282520     1.9474600    -0.0000130
  H       -0.5338010    -2.3041010    -0.0000080
  H        4.3764260     0.6364270     0.0000070
  H        3.7225630    -0.7572470     0.8867960
  H        3.7225780    -0.7572730    -0.8867510
  H       -2.3006170     2.3287260     0.0000070
  H       -2.9984970    -1.9161460     0.0000120
  H       -3.8880810     0.4155830     0.0000010
units angstrom
no_reorient  #important for SAPT in psi4, default
symmetry c1  #important for SAPT in psi4, default
}

set PROPERTIES_ORIGIN ["COM"]
properties('MP2/aug-cc-pvtz', properties = ['dipole'])
--------------------------------------------------------------------------

    Molecular point group: c1
  Charge       = 0
  Multiplicity = 1
  Basis Set: AUG-CC-PVTZ
    Blend: AUG-CC-PVTZ
  Basis Set: (AUG-CC-PVTZ AUX)
    Blend: AUG-CC-PVTZ-JKFIT

    Orbital Energies [Eh]
    ---------------------

    Doubly Occupied:

       1A    -20.581480     2A    -11.298810     3A    -11.289311
       4A    -11.238939     5A    -11.237689     6A    -11.229198
       7A    -11.224934     8A    -11.224382     9A    -11.223262
      10A     -1.410901    11A     -1.143093    12A     -1.046269
      13A     -1.013908    14A     -0.984765    15A     -0.872096
      16A     -0.823944    17A     -0.799345    18A     -0.723058
      19A     -0.671025    20A     -0.665519    21A     -0.649926
      22A     -0.613359    23A     -0.585294    24A     -0.564360
      25A     -0.559945    26A     -0.547652    27A     -0.513740
      28A     -0.507653    29A     -0.501713    30A     -0.476766
      31A     -0.462036    32A     -0.337835    33A     -0.308260

  @DF-RHF Final Energy:  -383.75723230861178

   => Energetics <=

    Nuclear Repulsion Energy =            419.2757564604315803
    One-Electron Energy =               -1351.4050424657252734
    Two-Electron Energy =                 548.3720536966818599
    Total Energy =                       -383.7572323086118331
  Basis Set: (AUG-CC-PVTZ AUX)
    Blend: AUG-CC-PVTZ-RI
    Molecular point group: c1

    Geometry (in Angstrom), charge = 0, multiplicity = 1:

       Center              X                  Y                   Z               Mass
    ------------   -----------------  -----------------  -----------------  -----------------
         O            1.312626451562    -0.527626276448    -0.037364833358    15.994914619570
         C            0.001845951562    -0.203465176448     0.005623266642    12.000000000000
         C            2.282825951562     0.521967823552     0.005627266642    12.000000000000
         C           -0.487263048438     1.107436823552     0.005635266642    12.000000000000
         C           -0.889750048438    -1.285136176448     0.005637266642    12.000000000000
         C            3.653127951562    -0.119610176448     0.005644266642    12.000000000000
         C           -1.870546048438     1.320846823552     0.005629266642    12.000000000000
         C           -2.261493048438    -1.056665176448     0.005630266642    12.000000000000
         C           -2.761663048438     0.250212823552     0.005643266642    12.000000000000
         H            2.140329951562     1.150166823552    -0.883480733358     1.007825032230
         H            2.140312951562     1.150163823552     0.894736266642     1.007825032230
         H            0.182729951562     1.960322823552     0.005619266642     1.007825032230
         H           -0.479323048438    -2.291238176448     0.005624266642     1.007825032230
         H            4.430903951562     0.649289823552     0.005639266642     1.007825032230
         H            3.777040951562    -0.744384176448     0.892428266642     1.007825032230
         H            3.777055951562    -0.744410176448    -0.881118733358     1.007825032230
         H           -2.246139048438     2.341588823552     0.005639266642     1.007825032230
         H           -2.944019048438    -1.903283176448     0.005644266642     1.007825032230
         H           -3.833603048438     0.428445823552     0.005633266642     1.007825032230

  Basis Set: AUG-CC-PVTZ
    Blend: AUG-CC-PVTZ
  Basis Set: (AUG-CC-PVTZ AUX)
    Blend: AUG-CC-PVTZ-JKFIT
	 Reference Energy          =    -383.7572323086117763 [Eh]
	 Singles Energy            =      -0.0000000000000000 [Eh]
	 Same-Spin Energy          =      -0.4084084579698124 [Eh]
	 Opposite-Spin Energy      =      -1.3137561121805637 [Eh]
	 Correlation Energy        =      -1.7221645701503761 [Eh]
	 Total Energy              =    -385.4793968787621452 [Eh]

	 ================> DF-SCS-MP2 Energies <==================
	-----------------------------------------------------------
	 SCS Same-Spin Scale       =       0.3333333333333333 [-]
	 SCS Opposite-Spin Scale   =       1.2000000000000000 [-]
	 SCS Same-Spin Energy      =      -0.1361361526566041 [Eh]
	 SCS Opposite-Spin Energy  =      -1.5765073346166762 [Eh]
	 SCS Correlation Energy    =      -1.7126434872732803 [Eh]
	 SCS Total Energy          =    -385.4698757958850592 [Eh]
	-----------------------------------------------------------

  Dipole Moment: [D]
     X:     1.0538      Y:     1.0001      Z:     0.0478     Total:     1.4536

*** Psi4 exiting successfully. Buy a developer a beer!
