                               Psi4 1.4a3.dev225

  ==> Input File <==

--------------------------------------------------------------------------
#psi4
#
memory 32 gb

molecule  {
0 1
  O        1.2764910    -0.5580180    -0.0000140
  C       -0.0526320    -0.2163280    -0.0000090
  C        2.2616307     0.5464181    -0.0000047
  C       -0.5417410     1.0945740     0.0000030
  C       -0.9442280    -1.2979990     0.0000050
  C        3.5986500    -0.1324730     0.0000120
  C       -1.9250240     1.3079840    -0.0000030
  C       -2.3159710    -1.0695280    -0.0000020
  C       -2.8161410     0.2373500     0.0000110
  H        2.0858520     1.1373040    -0.8891130
  H        2.0858350     1.1373010     0.8891040
  H        0.1282520     1.9474600    -0.0000130
  H       -0.5338010    -2.3041010    -0.0000080
  H        4.3764260     0.6364270     0.0000070
  H        3.7225630    -0.7572470     0.8867960
  H        3.7225780    -0.7572730    -0.8867510
  H       -2.3006170     2.3287260     0.0000070
  H       -2.9984970    -1.9161460     0.0000120
  H       -3.8880810     0.4155830     0.0000010
units angstrom
no_reorient  #important for SAPT in psi4, default
symmetry c1  #important for SAPT in psi4, default
}

set PROPERTIES_ORIGIN ["COM"]
properties('MP2/aug-cc-pvtz', properties = ['dipole'])
--------------------------------------------------------------------------

    Molecular point group: c1
  Charge       = 0
  Multiplicity = 1
  Basis Set: AUG-CC-PVTZ
    Blend: AUG-CC-PVTZ
  Basis Set: (AUG-CC-PVTZ AUX)
    Blend: AUG-CC-PVTZ-JKFIT

    Orbital Energies [Eh]
    ---------------------

    Doubly Occupied:

       1A    -20.576600     2A    -11.297448     3A    -11.288862
       4A    -11.238657     5A    -11.237014     6A    -11.229506
       7A    -11.224243     8A    -11.224168     9A    -11.223337
      10A     -1.387649    11A     -1.141781    12A     -1.046374
      13A     -1.013286    14A     -0.985091    15A     -0.868784
      16A     -0.821244    17A     -0.800931    18A     -0.715555
      19A     -0.669004    20A     -0.661622    21A     -0.644369
      22A     -0.612451    23A     -0.584913    24A     -0.560382
      25A     -0.559476    26A     -0.540035    27A     -0.518361
      28A     -0.505771    29A     -0.505461    30A     -0.476972
      31A     -0.464530    32A     -0.337360    33A     -0.308237

  @DF-RHF Final Energy:  -383.75363810075146

   => Energetics <=

    Nuclear Repulsion Energy =            418.0219904648489546
    One-Electron Energy =               -1349.0123124909723629
    Two-Electron Energy =                 547.2366839253719490
    Total Energy =                       -383.7536381007514592
  Basis Set: (AUG-CC-PVTZ AUX)
    Blend: AUG-CC-PVTZ-RI
    Molecular point group: c1

    Geometry (in Angstrom), charge = 0, multiplicity = 1:

       Center              X                  Y                   Z               Mass
    ------------   -----------------  -----------------  -----------------  -----------------
         O            1.325293837611    -0.546526353653    -0.000013721477    15.994914619570
         C           -0.003829162389    -0.204836353653    -0.000008721477    12.000000000000
         C            2.310433537611     0.557909746347    -0.000004421477    12.000000000000
         C           -0.492938162389     1.106065646347     0.000003278523    12.000000000000
         C           -0.895425162389    -1.286507353653     0.000005278523    12.000000000000
         C            3.647452837611    -0.120981353653     0.000012278523    12.000000000000
         C           -1.876221162389     1.319475646347    -0.000002721477    12.000000000000
         C           -2.267168162389    -1.058036353653    -0.000001721477    12.000000000000
         C           -2.767338162389     0.248841646347     0.000011278523    12.000000000000
         H            2.134654837611     1.148795646347    -0.889112721477     1.007825032230
         H            2.134637837611     1.148792646347     0.889104278523     1.007825032230
         H            0.177054837611     1.958951646347    -0.000012721477     1.007825032230
         H           -0.484998162389    -2.292609353653    -0.000007721477     1.007825032230
         H            4.425228837611     0.647918646347     0.000007278523     1.007825032230
         H            3.771365837611    -0.745755353653     0.886796278523     1.007825032230
         H            3.771380837611    -0.745781353653    -0.886750721477     1.007825032230
         H           -2.251814162389     2.340217646347     0.000007278523     1.007825032230
         H           -2.949694162389    -1.904654353653     0.000012278523     1.007825032230
         H           -3.839278162389     0.427074646347     0.000001278523     1.007825032230

  Basis Set: AUG-CC-PVTZ
    Blend: AUG-CC-PVTZ
  Basis Set: (AUG-CC-PVTZ AUX)
    Blend: AUG-CC-PVTZ-JKFIT
	 Reference Energy          =    -383.7536381007514592 [Eh]
	 Singles Energy            =      -0.0000000000000000 [Eh]
	 Same-Spin Energy          =      -0.4087608250664849 [Eh]
	 Opposite-Spin Energy      =      -1.3152579971775706 [Eh]
	 Correlation Energy        =      -1.7240188222440556 [Eh]
	 Total Energy              =    -385.4776569229954930 [Eh]

	 ================> DF-SCS-MP2 Energies <==================
	-----------------------------------------------------------
	 SCS Same-Spin Scale       =       0.3333333333333333 [-]
	 SCS Opposite-Spin Scale   =       1.2000000000000000 [-]
	 SCS Same-Spin Energy      =      -0.1362536083554950 [Eh]
	 SCS Opposite-Spin Energy  =      -1.5783095966130847 [Eh]
	 SCS Correlation Energy    =      -1.7145632049685797 [Eh]
	 SCS Total Energy          =    -385.4682013057200152 [Eh]
	-----------------------------------------------------------

  Dipole Moment: [D]
     X:     1.1129      Y:     1.1205      Z:     0.0000     Total:     1.5793

*** Psi4 exiting successfully. Buy a developer a beer!
