                               Psi4 1.3.2 release

  ==> Input File <==

--------------------------------------------------------------------------
#psi4
#
memory 32 gb

molecule  {
0 1
  O        1.2764910    -0.5580180    -0.0000140
  C        0.0442188    -0.2412263    -0.0000094
  C        2.2283480     0.5091050    -0.0000050
  C       -0.5417410     1.0945740     0.0000030
  C       -0.9442280    -1.2979990     0.0000050
  C        3.5986500    -0.1324730     0.0000120
  C       -1.9250240     1.3079840    -0.0000030
  C       -2.3159710    -1.0695280    -0.0000020
  C       -2.8161410     0.2373500     0.0000110
  H        2.0858520     1.1373040    -0.8891130
  H        2.0858350     1.1373010     0.8891040
  H        0.1282520     1.9474600    -0.0000130
  H       -0.5338010    -2.3041010    -0.0000080
  H        4.3764260     0.6364270     0.0000070
  H        3.7225630    -0.7572470     0.8867960
  H        3.7225780    -0.7572730    -0.8867510
  H       -2.3006170     2.3287260     0.0000070
  H       -2.9984970    -1.9161460     0.0000120
  H       -3.8880810     0.4155830     0.0000010
units angstrom
no_reorient  #important for SAPT in psi4, default
symmetry c1  #important for SAPT in psi4, default
}

set PROPERTIES_ORIGIN ["COM"]
properties('MP2/aug-cc-pvtz', properties = ['dipole'])
--------------------------------------------------------------------------

    Molecular point group: c1
  Charge       = 0
  Multiplicity = 1
  Basis Set: AUG-CC-PVTZ
    Blend: AUG-CC-PVTZ
  Basis Set: (AUG-CC-PVTZ AUX)
    Blend: AUG-CC-PVTZ-JKFIT

    Orbital Energies [Eh]
    ---------------------

    Doubly Occupied:

       1A    -20.599921     2A    -11.309475     3A    -11.298855
       4A    -11.236069     5A    -11.234566     6A    -11.230127
       7A    -11.228856     8A    -11.223362     9A    -11.218561
      10A     -1.457016    11A     -1.130107    12A     -1.057769
      13A     -1.004638    14A     -0.977443    15A     -0.883096
      16A     -0.820019    17A     -0.799218    18A     -0.731726
      19A     -0.688065    20A     -0.669051    21A     -0.658179
      22A     -0.609491    23A     -0.577131    24A     -0.575326
      25A     -0.563567    26A     -0.552246    27A     -0.521007
      28A     -0.511426    29A     -0.504151    30A     -0.466119
      31A     -0.461271    32A     -0.333162    33A     -0.294202

  @DF-RHF Final Energy:  -383.74447966428352

   => Energetics <=

    Nuclear Repulsion Energy =            418.9400474413421875
    One-Electron Energy =               -1350.5186154179225468
    Two-Electron Energy =                 547.8340883122968989
    Total Energy =                       -383.7444796642835172
  Basis Set: (AUG-CC-PVTZ AUX)
    Blend: AUG-CC-PVTZ-RI
    Molecular point group: c1

    Geometry (in Angstrom), charge = 0, multiplicity = 1:

       Center              X                  Y                   Z               Mass
    ------------   -----------------  -----------------  -----------------  -----------------
         O            1.319044985127    -0.540410867090    -0.000013652666    15.994914619570
         C            0.086772785127    -0.223619167090    -0.000009052666    12.000000000000
         C            2.270901985127     0.526712132910    -0.000004652666    12.000000000000
         C           -0.499187014873     1.112181132910     0.000003347334    12.000000000000
         C           -0.901674014873    -1.280391867090     0.000005347334    12.000000000000
         C            3.641203985127    -0.114865867090     0.000012347334    12.000000000000
         C           -1.882470014873     1.325591132910    -0.000002652666    12.000000000000
         C           -2.273417014873    -1.051920867090    -0.000001652666    12.000000000000
         C           -2.773587014873     0.254957132910     0.000011347334    12.000000000000
         H            2.128405985127     1.154911132910    -0.889112652666     1.007825032230
         H            2.128388985127     1.154908132910     0.889104347334     1.007825032230
         H            0.170805985127     1.965067132910    -0.000012652666     1.007825032230
         H           -0.491247014873    -2.286493867090    -0.000007652666     1.007825032230
         H            4.418979985127     0.654034132910     0.000007347334     1.007825032230
         H            3.765116985127    -0.739639867090     0.886796347334     1.007825032230
         H            3.765131985127    -0.739665867090    -0.886750652666     1.007825032230
         H           -2.258063014873     2.346333132910     0.000007347334     1.007825032230
         H           -2.955943014873    -1.898538867090     0.000012347334     1.007825032230
         H           -3.845527014873     0.433190132910     0.000001347334     1.007825032230

  Basis Set: AUG-CC-PVTZ
    Blend: AUG-CC-PVTZ
  Basis Set: (AUG-CC-PVTZ AUX)
    Blend: AUG-CC-PVTZ-JKFIT
	 Reference Energy          =    -383.7444796642835172 [Eh]
	 Singles Energy            =      -0.0000000000000000 [Eh]
	 Same-Spin Energy          =      -0.4088620545629225 [Eh]
	 Opposite-Spin Energy      =      -1.3144100223449460 [Eh]
	 Correlation Energy        =      -1.7232720769078684 [Eh]
	 Total Energy              =    -385.4677517411913641 [Eh]

	 ================> DF-SCS-MP2 Energies <==================
	-----------------------------------------------------------
	 SCS Same-Spin Scale       =       0.3333333333333333 [-]
	 SCS Opposite-Spin Scale   =       1.2000000000000000 [-]
	 SCS Same-Spin Energy      =      -0.1362873515209742 [Eh]
	 SCS Opposite-Spin Energy  =      -1.5772920268139352 [Eh]
	 SCS Correlation Energy    =      -1.7135793783349094 [Eh]
	 SCS Total Energy          =    -385.4580590426184017 [Eh]
	-----------------------------------------------------------

  Dipole Moment: [D]
     X:     1.7553      Y:     0.9687      Z:    -0.0000     Total:     2.0049

*** Psi4 exiting successfully. Buy a developer a beer!
