                               Psi4 1.3.2 release

  ==> Input File <==

--------------------------------------------------------------------------
#psi4
#
memory 32 gb

molecule  {
0 1
  O        1.3166314    -0.5891556     0.0858998
  C       -0.0526320    -0.2163280    -0.0000090
  C        2.2283480     0.5091050    -0.0000050
  C       -0.5417410     1.0945740     0.0000030
  C       -0.9442280    -1.2979990     0.0000050
  C        3.5986500    -0.1324730     0.0000120
  C       -1.9250240     1.3079840    -0.0000030
  C       -2.3159710    -1.0695280    -0.0000020
  C       -2.8161410     0.2373500     0.0000110
  H        2.0858520     1.1373040    -0.8891130
  H        2.0858350     1.1373010     0.8891040
  H        0.1282520     1.9474600    -0.0000130
  H       -0.5338010    -2.3041010    -0.0000080
  H        4.3764260     0.6364270     0.0000070
  H        3.7225630    -0.7572470     0.8867960
  H        3.7225780    -0.7572730    -0.8867510
  H       -2.3006170     2.3287260     0.0000070
  H       -2.9984970    -1.9161460     0.0000120
  H       -3.8880810     0.4155830     0.0000010
units angstrom
no_reorient  #important for SAPT in psi4, default
symmetry c1  #important for SAPT in psi4, default
}

set PROPERTIES_ORIGIN ["COM"]
properties('MP2/aug-cc-pvtz', properties = ['dipole'])
--------------------------------------------------------------------------

    Molecular point group: c1
  Charge       = 0
  Multiplicity = 1
  Basis Set: AUG-CC-PVTZ
    Blend: AUG-CC-PVTZ
  Basis Set: (AUG-CC-PVTZ AUX)
    Blend: AUG-CC-PVTZ-JKFIT

    Orbital Energies [Eh]
    ---------------------

    Doubly Occupied:

       1A    -20.581246     2A    -11.302127     3A    -11.283524
       4A    -11.242086     5A    -11.240161     6A    -11.236221
       7A    -11.230119     8A    -11.229954     9A    -11.217844
      10A     -1.386658    11A     -1.147051    12A     -1.038338
      13A     -1.017140    14A     -0.986955    15A     -0.863802
      16A     -0.822425    17A     -0.803219    18A     -0.717957
      19A     -0.664659    20A     -0.662075    21A     -0.645230
      22A     -0.615592    23A     -0.588565    24A     -0.560783
      25A     -0.553513    26A     -0.541421    27A     -0.515813
      28A     -0.502080    29A     -0.498140    30A     -0.483987
      31A     -0.460156    32A     -0.340654    33A     -0.316816

  @DF-RHF Final Energy:  -383.75072068777121

   => Energetics <=

    Nuclear Repulsion Energy =            417.6804918272255804
    One-Electron Energy =               -1348.2698043888854045
    Two-Electron Energy =                 546.8385918738887312
    Total Energy =                       -383.7507206877711496
  Basis Set: (AUG-CC-PVTZ AUX)
    Blend: AUG-CC-PVTZ-RI
    Molecular point group: c1

    Geometry (in Angstrom), charge = 0, multiplicity = 1:

       Center              X                  Y                   Z               Mass
    ------------   -----------------  -----------------  -----------------  -----------------
         O            1.363446496317    -0.569916137383     0.074643056586    15.994914619570
         C           -0.005816903683    -0.197088537383    -0.011265743414    12.000000000000
         C            2.275163096317     0.528344462617    -0.011261743414    12.000000000000
         C           -0.494925903683     1.113813462617    -0.011253743414    12.000000000000
         C           -0.897412903683    -1.278759537383    -0.011251743414    12.000000000000
         C            3.645465096317    -0.113233537383    -0.011244743414    12.000000000000
         C           -1.878208903683     1.327223462617    -0.011259743414    12.000000000000
         C           -2.269155903683    -1.050288537383    -0.011258743414    12.000000000000
         C           -2.769325903683     0.256589462617    -0.011245743414    12.000000000000
         H            2.132667096317     1.156543462617    -0.900369743414     1.007825032230
         H            2.132650096317     1.156540462617     0.877847256586     1.007825032230
         H            0.175067096317     1.966699462617    -0.011269743414     1.007825032230
         H           -0.486985903683    -2.284861537383    -0.011264743414     1.007825032230
         H            4.423241096317     0.655666462617    -0.011249743414     1.007825032230
         H            3.769378096317    -0.738007537383     0.875539256586     1.007825032230
         H            3.769393096317    -0.738033537383    -0.898007743414     1.007825032230
         H           -2.253801903683     2.347965462617    -0.011249743414     1.007825032230
         H           -2.951681903683    -1.896906537383    -0.011244743414     1.007825032230
         H           -3.841265903683     0.434822462617    -0.011255743414     1.007825032230

  Basis Set: AUG-CC-PVTZ
    Blend: AUG-CC-PVTZ
  Basis Set: (AUG-CC-PVTZ AUX)
    Blend: AUG-CC-PVTZ-JKFIT
	 Reference Energy          =    -383.7507206877712065 [Eh]
	 Singles Energy            =      -0.0000000000000000 [Eh]
	 Same-Spin Energy          =      -0.4090240344763438 [Eh]
	 Opposite-Spin Energy      =      -1.3162113752740949 [Eh]
	 Correlation Energy        =      -1.7252354097504388 [Eh]
	 Total Energy              =    -385.4759560975216459 [Eh]

	 ================> DF-SCS-MP2 Energies <==================
	-----------------------------------------------------------
	 SCS Same-Spin Scale       =       0.3333333333333333 [-]
	 SCS Opposite-Spin Scale   =       1.2000000000000000 [-]
	 SCS Same-Spin Energy      =      -0.1363413448254479 [Eh]
	 SCS Opposite-Spin Energy  =      -1.5794536503289138 [Eh]
	 SCS Correlation Energy    =      -1.7157949951543618 [Eh]
	 SCS Total Energy          =    -385.4665156829255466 [Eh]
	-----------------------------------------------------------

  Dipole Moment: [D]
     X:     0.5024      Y:     1.0865      Z:    -0.1016     Total:     1.2014

*** Psi4 exiting successfully. Buy a developer a beer!
