                               Psi4 1.3.2 release

  ==> Input File <==

--------------------------------------------------------------------------
#psi4
#
memory 32 gb

molecule  {
0 1
  O        1.2764910    -0.5580180    -0.0000140
  C       -0.1494828    -0.1914297    -0.0000086
  C        2.2283480     0.5091050    -0.0000050
  C       -0.5417410     1.0945740     0.0000030
  C       -0.9442280    -1.2979990     0.0000050
  C        3.5986500    -0.1324730     0.0000120
  C       -1.9250240     1.3079840    -0.0000030
  C       -2.3159710    -1.0695280    -0.0000020
  C       -2.8161410     0.2373500     0.0000110
  H        2.0858520     1.1373040    -0.8891130
  H        2.0858350     1.1373010     0.8891040
  H        0.1282520     1.9474600    -0.0000130
  H       -0.5338010    -2.3041010    -0.0000080
  H        4.3764260     0.6364270     0.0000070
  H        3.7225630    -0.7572470     0.8867960
  H        3.7225780    -0.7572730    -0.8867510
  H       -2.3006170     2.3287260     0.0000070
  H       -2.9984970    -1.9161460     0.0000120
  H       -3.8880810     0.4155830     0.0000010
units angstrom
no_reorient  #important for SAPT in psi4, default
symmetry c1  #important for SAPT in psi4, default
}

set PROPERTIES_ORIGIN ["COM"]
properties('MP2/aug-cc-pvtz', properties = ['dipole'])
--------------------------------------------------------------------------

    Molecular point group: c1
  Charge       = 0
  Multiplicity = 1
  Basis Set: AUG-CC-PVTZ
    Blend: AUG-CC-PVTZ
  Basis Set: (AUG-CC-PVTZ AUX)
    Blend: AUG-CC-PVTZ-JKFIT

    Orbital Energies [Eh]
    ---------------------

    Doubly Occupied:

       1A    -20.565043     2A    -11.293268     3A    -11.277629
       4A    -11.243920     5A    -11.242332     6A    -11.231919
       7A    -11.231685     8A    -11.229166     9A    -11.215286
      10A     -1.361827    11A     -1.159739    12A     -1.035332
      13A     -1.026360    14A     -0.989037    15A     -0.861188
      16A     -0.827474    17A     -0.801675    18A     -0.717897
      19A     -0.655282    20A     -0.654174    21A     -0.647822
      22A     -0.615741    23A     -0.598351    24A     -0.553358
      25A     -0.550630    26A     -0.540290    27A     -0.515688
      28A     -0.504859    29A     -0.500825    30A     -0.474881
      31A     -0.451605    32A     -0.344819    33A     -0.325050

  @DF-RHF Final Energy:  -383.74391673829030

   => Energetics <=

    Nuclear Repulsion Energy =            418.8508745779518563
    One-Electron Energy =               -1350.7012737403758820
    Two-Electron Energy =                 548.1064824241337874
    Total Energy =                       -383.7439167382902951
  Basis Set: (AUG-CC-PVTZ AUX)
    Blend: AUG-CC-PVTZ-RI
    Molecular point group: c1

    Geometry (in Angstrom), charge = 0, multiplicity = 1:

       Center              X                  Y                   Z               Mass
    ------------   -----------------  -----------------  -----------------  -----------------
         O            1.338086182274    -0.545305957671    -0.000013731307    15.994914619570
         C           -0.087887617726    -0.178717657671    -0.000008331307    12.000000000000
         C            2.289943182274     0.521817042329    -0.000004731307    12.000000000000
         C           -0.480145817726     1.107286042329     0.000003268693    12.000000000000
         C           -0.882632817726    -1.285286957671     0.000005268693    12.000000000000
         C            3.660245182274    -0.119760957671     0.000012268693    12.000000000000
         C           -1.863428817726     1.320696042329    -0.000002731307    12.000000000000
         C           -2.254375817726    -1.056815957671    -0.000001731307    12.000000000000
         C           -2.754545817726     0.250062042329     0.000011268693    12.000000000000
         H            2.147447182274     1.150016042329    -0.889112731307     1.007825032230
         H            2.147430182274     1.150013042329     0.889104268693     1.007825032230
         H            0.189847182274     1.960172042329    -0.000012731307     1.007825032230
         H           -0.472205817726    -2.291388957671    -0.000007731307     1.007825032230
         H            4.438021182274     0.649139042329     0.000007268693     1.007825032230
         H            3.784158182274    -0.744534957671     0.886796268693     1.007825032230
         H            3.784173182274    -0.744560957671    -0.886750731307     1.007825032230
         H           -2.239021817726     2.341438042329     0.000007268693     1.007825032230
         H           -2.936901817726    -1.903433957671     0.000012268693     1.007825032230
         H           -3.826485817726     0.428295042329     0.000001268693     1.007825032230

  Basis Set: AUG-CC-PVTZ
    Blend: AUG-CC-PVTZ
  Basis Set: (AUG-CC-PVTZ AUX)
    Blend: AUG-CC-PVTZ-JKFIT
	 Reference Energy          =    -383.7439167382902951 [Eh]
	 Singles Energy            =      -0.0000000000000000 [Eh]
	 Same-Spin Energy          =      -0.4089996233071594 [Eh]
	 Opposite-Spin Energy      =      -1.3158695023848634 [Eh]
	 Correlation Energy        =      -1.7248691256920230 [Eh]
	 Total Energy              =    -385.4687858639823048 [Eh]

	 ================> DF-SCS-MP2 Energies <==================
	-----------------------------------------------------------
	 SCS Same-Spin Scale       =       0.3333333333333333 [-]
	 SCS Opposite-Spin Scale   =       1.2000000000000000 [-]
	 SCS Same-Spin Energy      =      -0.1363332077690531 [Eh]
	 SCS Opposite-Spin Energy  =      -1.5790434028618361 [Eh]
	 SCS Correlation Energy    =      -1.7153766106308892 [Eh]
	 SCS Total Energy          =    -385.4592933489211646 [Eh]
	-----------------------------------------------------------

  Dipole Moment: [D]
     X:     0.1289      Y:     1.0814      Z:     0.0000     Total:     1.0890

*** Psi4 exiting successfully. Buy a developer a beer!
