                               Psi4 1.3.2 release

  ==> Input File <==

--------------------------------------------------------------------------
#psi4
#
memory 32 gb

molecule  {
0 1
  O        1.2250304    -0.5016180    -0.1287537
  C       -0.0526320    -0.2163280    -0.0000090
  C        2.2283480     0.5091050    -0.0000050
  C       -0.5417410     1.0945740     0.0000030
  C       -0.9442280    -1.2979990     0.0000050
  C        3.5986500    -0.1324730     0.0000120
  C       -1.9250240     1.3079840    -0.0000030
  C       -2.3159710    -1.0695280    -0.0000020
  C       -2.8161410     0.2373500     0.0000110
  H        2.0858520     1.1373040    -0.8891130
  H        2.0858350     1.1373010     0.8891040
  H        0.1282520     1.9474600    -0.0000130
  H       -0.5338010    -2.3041010    -0.0000080
  H        4.3764260     0.6364270     0.0000070
  H        3.7225630    -0.7572470     0.8867960
  H        3.7225780    -0.7572730    -0.8867510
  H       -2.3006170     2.3287260     0.0000070
  H       -2.9984970    -1.9161460     0.0000120
  H       -3.8880810     0.4155830     0.0000010
units angstrom
no_reorient  #important for SAPT in psi4, default
symmetry c1  #important for SAPT in psi4, default
}

set PROPERTIES_ORIGIN ["COM"]
properties('MP2/aug-cc-pvtz', properties = ['dipole'])
--------------------------------------------------------------------------

    Molecular point group: c1
  Charge       = 0
  Multiplicity = 1
  Basis Set: AUG-CC-PVTZ
    Blend: AUG-CC-PVTZ
  Basis Set: (AUG-CC-PVTZ AUX)
    Blend: AUG-CC-PVTZ-JKFIT

    Orbital Energies [Eh]
    ---------------------

    Doubly Occupied:

       1A    -20.581067     2A    -11.296864     3A    -11.292536
       4A    -11.237112     5A    -11.236395     6A    -11.226341
       7A    -11.225064     8A    -11.222264     9A    -11.221432
      10A     -1.424906    11A     -1.140958    12A     -1.050697
      13A     -1.012180    14A     -0.983439    15A     -0.877312
      16A     -0.825234    17A     -0.797152    18A     -0.725880
      19A     -0.675113    20A     -0.665969    21A     -0.652688
      22A     -0.612107    23A     -0.583587    24A     -0.570858
      25A     -0.559446    26A     -0.552204    27A     -0.513827
      28A     -0.510005    29A     -0.501439    30A     -0.473850
      31A     -0.459019    32A     -0.336230    33A     -0.303688

  @DF-RHF Final Energy:  -383.75425793137128

   => Energetics <=

    Nuclear Repulsion Energy =            420.1461353810273067
    One-Electron Energy =               -1353.1070596799397663
    Two-Electron Energy =                 549.2066663675411746
    Total Energy =                       -383.7542579313712849
  Basis Set: (AUG-CC-PVTZ AUX)
    Blend: AUG-CC-PVTZ-RI
    Molecular point group: c1

    Geometry (in Angstrom), charge = 0, multiplicity = 1:

       Center              X                  Y                   Z               Mass
    ------------   -----------------  -----------------  -----------------  -----------------
         O            1.283847726085    -0.493848350906    -0.111884979419    15.994914619570
         C            0.006185326085    -0.208558350906     0.016859720581    12.000000000000
         C            2.287165326085     0.516874649094     0.016863720581    12.000000000000
         C           -0.482923673915     1.102343649094     0.016871720581    12.000000000000
         C           -0.885410673915    -1.290229350906     0.016873720581    12.000000000000
         C            3.657467326085    -0.124703350906     0.016880720581    12.000000000000
         C           -1.866206673915     1.315753649094     0.016865720581    12.000000000000
         C           -2.257153673915    -1.061758350906     0.016866720581    12.000000000000
         C           -2.757323673915     0.245119649094     0.016879720581    12.000000000000
         H            2.144669326085     1.145073649094    -0.872244279419     1.007825032230
         H            2.144652326085     1.145070649094     0.905972720581     1.007825032230
         H            0.187069326085     1.955229649094     0.016855720581     1.007825032230
         H           -0.474983673915    -2.296331350906     0.016860720581     1.007825032230
         H            4.435243326085     0.644196649094     0.016875720581     1.007825032230
         H            3.781380326085    -0.749477350906     0.903664720581     1.007825032230
         H            3.781395326085    -0.749503350906    -0.869882279419     1.007825032230
         H           -2.241799673915     2.336495649094     0.016875720581     1.007825032230
         H           -2.939679673915    -1.908376350906     0.016880720581     1.007825032230
         H           -3.829263673915     0.423352649094     0.016869720581     1.007825032230

  Basis Set: AUG-CC-PVTZ
    Blend: AUG-CC-PVTZ
  Basis Set: (AUG-CC-PVTZ AUX)
    Blend: AUG-CC-PVTZ-JKFIT
	 Reference Energy          =    -383.7542579313712849 [Eh]
	 Singles Energy            =      -0.0000000000000000 [Eh]
	 Same-Spin Energy          =      -0.4082489971865015 [Eh]
	 Opposite-Spin Energy      =      -1.3127906665171587 [Eh]
	 Correlation Energy        =      -1.7210396637036602 [Eh]
	 Total Energy              =    -385.4752975950749487 [Eh]

	 ================> DF-SCS-MP2 Energies <==================
	-----------------------------------------------------------
	 SCS Same-Spin Scale       =       0.3333333333333333 [-]
	 SCS Opposite-Spin Scale   =       1.2000000000000000 [-]
	 SCS Same-Spin Energy      =      -0.1360829990621672 [Eh]
	 SCS Opposite-Spin Energy  =      -1.5753487998205904 [Eh]
	 SCS Correlation Energy    =      -1.7114317988827576 [Eh]
	 SCS Total Energy          =    -385.4656897302540415 [Eh]
	-----------------------------------------------------------

  Dipole Moment: [D]
     X:     1.3484      Y:     0.9418      Z:     0.1376     Total:     1.6505

*** Psi4 exiting successfully. Buy a developer a beer!
