                               Psi4 1.4a3.dev225

  ==> Input File <==

--------------------------------------------------------------------------
#psi4
#
memory 32 gb

molecule  {
0 1
  O        1.2764910    -0.5580180    -0.0000140
  C       -0.0526320    -0.2163280    -0.0000090
  C        2.2150349     0.4941798    -0.0000051
  C       -0.5417410     1.0945740     0.0000030
  C       -0.9442280    -1.2979990     0.0000050
  C        3.5986500    -0.1324730     0.0000120
  C       -1.9250240     1.3079840    -0.0000030
  C       -2.3159710    -1.0695280    -0.0000020
  C       -2.8161410     0.2373500     0.0000110
  H        2.0858520     1.1373040    -0.8891130
  H        2.0858350     1.1373010     0.8891040
  H        0.1282520     1.9474600    -0.0000130
  H       -0.5338010    -2.3041010    -0.0000080
  H        4.3764260     0.6364270     0.0000070
  H        3.7225630    -0.7572470     0.8867960
  H        3.7225780    -0.7572730    -0.8867510
  H       -2.3006170     2.3287260     0.0000070
  H       -2.9984970    -1.9161460     0.0000120
  H       -3.8880810     0.4155830     0.0000010
units angstrom
no_reorient  #important for SAPT in psi4, default
symmetry c1  #important for SAPT in psi4, default
}

set PROPERTIES_ORIGIN ["COM"]
properties('MP2/aug-cc-pvtz', properties = ['dipole'])
--------------------------------------------------------------------------

    Molecular point group: c1
  Charge       = 0
  Multiplicity = 1
  Basis Set: AUG-CC-PVTZ
    Blend: AUG-CC-PVTZ
  Basis Set: (AUG-CC-PVTZ AUX)
    Blend: AUG-CC-PVTZ-JKFIT

    Orbital Energies [Eh]
    ---------------------

    Doubly Occupied:

       1A    -20.583357     2A    -11.300820     3A    -11.287156
       4A    -11.240461     5A    -11.239029     6A    -11.232278
       7A    -11.227482     8A    -11.226930     9A    -11.220872
      10A     -1.409782    11A     -1.145390    12A     -1.042951
      13A     -1.015584    14A     -0.985463    15A     -0.869816
      16A     -0.824440    17A     -0.800163    18A     -0.723802
      19A     -0.669012    20A     -0.666405    21A     -0.650115
      22A     -0.614728    23A     -0.586925    24A     -0.561954
      25A     -0.560788    26A     -0.546794    27A     -0.513635
      28A     -0.504280    29A     -0.500165    30A     -0.479019
      31A     -0.460396    32A     -0.339279    33A     -0.312028

  @DF-RHF Final Energy:  -383.75664405958781

   => Energetics <=

    Nuclear Repulsion Energy =            419.0867202022938045
    One-Electron Energy =               -1351.0041350700530529
    Two-Electron Energy =                 548.1607708081713781
    Total Energy =                       -383.7566440595878703
  Basis Set: (AUG-CC-PVTZ AUX)
    Blend: AUG-CC-PVTZ-RI
    Molecular point group: c1

    Geometry (in Angstrom), charge = 0, multiplicity = 1:

       Center              X                  Y                   Z               Mass
    ------------   -----------------  -----------------  -----------------  -----------------
         O            1.329874284102    -0.541391239803    -0.000013682157    15.994914619570
         C            0.000751284102    -0.199701239803    -0.000008682157    12.000000000000
         C            2.268418184102     0.510806560197    -0.000004782157    12.000000000000
         C           -0.488357715898     1.111200760197     0.000003317843    12.000000000000
         C           -0.890844715898    -1.281372239803     0.000005317843    12.000000000000
         C            3.652033284102    -0.115846239803     0.000012317843    12.000000000000
         C           -1.871640715898     1.324610760197    -0.000002682157    12.000000000000
         C           -2.262587715898    -1.052901239803    -0.000001682157    12.000000000000
         C           -2.762757715898     0.253976760197     0.000011317843    12.000000000000
         H            2.139235284102     1.153930760197    -0.889112682157     1.007825032230
         H            2.139218284102     1.153927760197     0.889104317843     1.007825032230
         H            0.181635284102     1.964086760197    -0.000012682157     1.007825032230
         H           -0.480417715898    -2.287474239803    -0.000007682157     1.007825032230
         H            4.429809284102     0.653053760197     0.000007317843     1.007825032230
         H            3.775946284102    -0.740620239803     0.886796317843     1.007825032230
         H            3.775961284102    -0.740646239803    -0.886750682157     1.007825032230
         H           -2.247233715898     2.345352760197     0.000007317843     1.007825032230
         H           -2.945113715898    -1.899519239803     0.000012317843     1.007825032230
         H           -3.834697715898     0.432209760197     0.000001317843     1.007825032230

  Basis Set: AUG-CC-PVTZ
    Blend: AUG-CC-PVTZ
  Basis Set: (AUG-CC-PVTZ AUX)
    Blend: AUG-CC-PVTZ-JKFIT
	 Reference Energy          =    -383.7566440595878134 [Eh]
	 Singles Energy            =      -0.0000000000000000 [Eh]
	 Same-Spin Energy          =      -0.4085255602102242 [Eh]
	 Opposite-Spin Energy      =      -1.3141746093780509 [Eh]
	 Correlation Energy        =      -1.7227001695882751 [Eh]
	 Total Energy              =    -385.4793442291760925 [Eh]

	 ================> DF-SCS-MP2 Energies <==================
	-----------------------------------------------------------
	 SCS Same-Spin Scale       =       0.3333333333333333 [-]
	 SCS Opposite-Spin Scale   =       1.2000000000000000 [-]
	 SCS Same-Spin Energy      =      -0.1361751867367414 [Eh]
	 SCS Opposite-Spin Energy  =      -1.5770095312536609 [Eh]
	 SCS Correlation Energy    =      -1.7131847179904023 [Eh]
	 SCS Total Energy          =    -385.4698287775782433 [Eh]
	-----------------------------------------------------------

  Dipole Moment: [D]
     X:     0.7843      Y:     0.9902      Z:    -0.0000     Total:     1.2631

*** Psi4 exiting successfully. Buy a developer a beer!
