                               Psi4 1.3.2 release

  ==> Input File <==

--------------------------------------------------------------------------
#psi4
#
memory 32 gb

molecule  {
0 1
  O        1.2876061    -0.5114241    -0.0000136
  C       -0.0526320    -0.2163280    -0.0000090
  C        2.2283480     0.5091050    -0.0000050
  C       -0.5417410     1.0945740     0.0000030
  C       -0.9442280    -1.2979990     0.0000050
  C        3.5986500    -0.1324730     0.0000120
  C       -1.9250240     1.3079840    -0.0000030
  C       -2.3159710    -1.0695280    -0.0000020
  C       -2.8161410     0.2373500     0.0000110
  H        2.0858520     1.1373040    -0.8891130
  H        2.0858350     1.1373010     0.8891040
  H        0.1282520     1.9474600    -0.0000130
  H       -0.5338010    -2.3041010    -0.0000080
  H        4.3764260     0.6364270     0.0000070
  H        3.7225630    -0.7572470     0.8867960
  H        3.7225780    -0.7572730    -0.8867510
  H       -2.3006170     2.3287260     0.0000070
  H       -2.9984970    -1.9161460     0.0000120
  H       -3.8880810     0.4155830     0.0000010
units angstrom
no_reorient  #important for SAPT in psi4, default
symmetry c1  #important for SAPT in psi4, default
}

set PROPERTIES_ORIGIN ["COM"]
properties('MP2/aug-cc-pvtz', properties = ['dipole'])
--------------------------------------------------------------------------

    Molecular point group: c1
  Charge       = 0
  Multiplicity = 1
  Basis Set: AUG-CC-PVTZ
    Blend: AUG-CC-PVTZ
  Basis Set: (AUG-CC-PVTZ AUX)
    Blend: AUG-CC-PVTZ-JKFIT

    Orbital Energies [Eh]
    ---------------------

    Doubly Occupied:

       1A    -20.579326     2A    -11.302009     3A    -11.283444
       4A    -11.240441     5A    -11.239892     6A    -11.231564
       7A    -11.228922     8A    -11.227224     9A    -11.220065
      10A     -1.413723    11A     -1.146408    12A     -1.045105
      13A     -1.015990    14A     -0.985387    15A     -0.871594
      16A     -0.826445    17A     -0.799535    18A     -0.725478
      19A     -0.673865    20A     -0.667629    21A     -0.650382
      22A     -0.615464    23A     -0.587406    24A     -0.564262
      25A     -0.560109    26A     -0.546685    27A     -0.514485
      28A     -0.505075    29A     -0.501203    30A     -0.475216
      31A     -0.458527    32A     -0.339569    33A     -0.312126

  @DF-RHF Final Energy:  -383.75705908035866

   => Energetics <=

    Nuclear Repulsion Energy =            419.4637095961738851
    One-Electron Energy =               -1351.7324236722333808
    Two-Electron Energy =                 548.5116549957008374
    Total Energy =                       -383.7570590803586583
  Basis Set: (AUG-CC-PVTZ AUX)
    Blend: AUG-CC-PVTZ-RI
    Molecular point group: c1

    Geometry (in Angstrom), charge = 0, multiplicity = 1:

       Center              X                  Y                   Z               Mass
    ------------   -----------------  -----------------  -----------------  -----------------
         O            1.338224302393    -0.502369584307    -0.000013344398    15.994914619570
         C           -0.002013797607    -0.207273484307    -0.000008744398    12.000000000000
         C            2.278966202393     0.518159515693    -0.000004744398    12.000000000000
         C           -0.491122797607     1.103628515693     0.000003255602    12.000000000000
         C           -0.893609797607    -1.288944484307     0.000005255602    12.000000000000
         C            3.649268202393    -0.123418484307     0.000012255602    12.000000000000
         C           -1.874405797607     1.317038515693    -0.000002744398    12.000000000000
         C           -2.265352797607    -1.060473484307    -0.000001744398    12.000000000000
         C           -2.765522797607     0.246404515693     0.000011255602    12.000000000000
         H            2.136470202393     1.146358515693    -0.889112744398     1.007825032230
         H            2.136453202393     1.146355515693     0.889104255602     1.007825032230
         H            0.178870202393     1.956514515693    -0.000012744398     1.007825032230
         H           -0.483182797607    -2.295046484307    -0.000007744398     1.007825032230
         H            4.427044202393     0.645481515693     0.000007255602     1.007825032230
         H            3.773181202393    -0.748192484307     0.886796255602     1.007825032230
         H            3.773196202393    -0.748218484307    -0.886750744398     1.007825032230
         H           -2.249998797607     2.337780515693     0.000007255602     1.007825032230
         H           -2.947878797607    -1.907091484307     0.000012255602     1.007825032230
         H           -3.837462797607     0.424637515693     0.000001255602     1.007825032230

  Basis Set: AUG-CC-PVTZ
    Blend: AUG-CC-PVTZ
  Basis Set: (AUG-CC-PVTZ AUX)
    Blend: AUG-CC-PVTZ-JKFIT
	 Reference Energy          =    -383.7570590803586583 [Eh]
	 Singles Energy            =      -0.0000000000000000 [Eh]
	 Same-Spin Energy          =      -0.4083199810211442 [Eh]
	 Opposite-Spin Energy      =      -1.3132207742156214 [Eh]
	 Correlation Energy        =      -1.7215407552367656 [Eh]
	 Total Energy              =    -385.4785998355954462 [Eh]

	 ================> DF-SCS-MP2 Energies <==================
	-----------------------------------------------------------
	 SCS Same-Spin Scale       =       0.3333333333333333 [-]
	 SCS Opposite-Spin Scale   =       1.2000000000000000 [-]
	 SCS Same-Spin Energy      =      -0.1361066603403814 [Eh]
	 SCS Opposite-Spin Energy  =      -1.5758649290587456 [Eh]
	 SCS Correlation Energy    =      -1.7119715893991270 [Eh]
	 SCS Total Energy          =    -385.4690306697577853 [Eh]
	-----------------------------------------------------------

  Dipole Moment: [D]
     X:     0.7412      Y:     0.9241      Z:    -0.0000     Total:     1.1846

*** Psi4 exiting successfully. Buy a developer a beer!
