                               Psi4 1.3.2 release

  ==> Input File <==

--------------------------------------------------------------------------
#psi4
#
memory 32 gb

molecule  {
0 1
  O        1.2764910    -0.5580180    -0.0000140
  C       -0.0732294    -0.3098753    -0.0000099
  C        2.2283480     0.5091050    -0.0000050
  C       -0.5417410     1.0945740     0.0000030
  C       -0.9442280    -1.2979990     0.0000050
  C        3.5986500    -0.1324730     0.0000120
  C       -1.9250240     1.3079840    -0.0000030
  C       -2.3159710    -1.0695280    -0.0000020
  C       -2.8161410     0.2373500     0.0000110
  H        2.0858520     1.1373040    -0.8891130
  H        2.0858350     1.1373010     0.8891040
  H        0.1282520     1.9474600    -0.0000130
  H       -0.5338010    -2.3041010    -0.0000080
  H        4.3764260     0.6364270     0.0000070
  H        3.7225630    -0.7572470     0.8867960
  H        3.7225780    -0.7572730    -0.8867510
  H       -2.3006170     2.3287260     0.0000070
  H       -2.9984970    -1.9161460     0.0000120
  H       -3.8880810     0.4155830     0.0000010
units angstrom
no_reorient  #important for SAPT in psi4, default
symmetry c1  #important for SAPT in psi4, default
}

set PROPERTIES_ORIGIN ["COM"]
properties('MP2/aug-cc-pvtz', properties = ['dipole'])
--------------------------------------------------------------------------

    Molecular point group: c1
  Charge       = 0
  Multiplicity = 1
  Basis Set: AUG-CC-PVTZ
    Blend: AUG-CC-PVTZ
  Basis Set: (AUG-CC-PVTZ AUX)
    Blend: AUG-CC-PVTZ-JKFIT

    Orbital Energies [Eh]
    ---------------------

    Doubly Occupied:

       1A    -20.576825     2A    -11.298827     3A    -11.288830
       4A    -11.240522     5A    -11.239748     6A    -11.238523
       7A    -11.226371     8A    -11.221558     9A    -11.216142
      10A     -1.398694    11A     -1.146800    12A     -1.048126
      13A     -1.014380    14A     -0.984694    15A     -0.869916
      16A     -0.820125    17A     -0.803542    18A     -0.721336
      19A     -0.667312    20A     -0.666994    21A     -0.645612
      22A     -0.615493    23A     -0.586982    24A     -0.560712
      25A     -0.558287    26A     -0.546345    27A     -0.512873
      28A     -0.511381    29A     -0.502818    30A     -0.467942
      31A     -0.461291    32A     -0.341137    33A     -0.310069

  @DF-RHF Final Energy:  -383.74550982093132

   => Energetics <=

    Nuclear Repulsion Energy =            418.6874245018169063
    One-Electron Energy =               -1350.2454552247029369
    Two-Electron Energy =                 547.8125209019547128
    Total Energy =                       -383.7455098209313746
  Basis Set: (AUG-CC-PVTZ AUX)
    Blend: AUG-CC-PVTZ-RI
    Molecular point group: c1

    Geometry (in Angstrom), charge = 0, multiplicity = 1:

       Center              X                  Y                   Z               Mass
    ------------   -----------------  -----------------  -----------------  -----------------
         O            1.330590343197    -0.533662553483    -0.000013603515    15.994914619570
         C           -0.019130056803    -0.285519853483    -0.000009503515    12.000000000000
         C            2.282447343197     0.533460446517    -0.000004603515    12.000000000000
         C           -0.487641656803     1.118929446517     0.000003396485    12.000000000000
         C           -0.890128656803    -1.273643553483     0.000005396485    12.000000000000
         C            3.652749343197    -0.108117553483     0.000012396485    12.000000000000
         C           -1.870924656803     1.332339446517    -0.000002603515    12.000000000000
         C           -2.261871656803    -1.045172553483    -0.000001603515    12.000000000000
         C           -2.762041656803     0.261705446517     0.000011396485    12.000000000000
         H            2.139951343197     1.161659446517    -0.889112603515     1.007825032230
         H            2.139934343197     1.161656446517     0.889104396485     1.007825032230
         H            0.182351343197     1.971815446517    -0.000012603515     1.007825032230
         H           -0.479701656803    -2.279745553483    -0.000007603515     1.007825032230
         H            4.430525343197     0.660782446517     0.000007396485     1.007825032230
         H            3.776662343197    -0.732891553483     0.886796396485     1.007825032230
         H            3.776677343197    -0.732917553483    -0.886750603515     1.007825032230
         H           -2.246517656803     2.353081446517     0.000007396485     1.007825032230
         H           -2.944397656803    -1.891790553483     0.000012396485     1.007825032230
         H           -3.833981656803     0.439938446517     0.000001396485     1.007825032230

  Basis Set: AUG-CC-PVTZ
    Blend: AUG-CC-PVTZ
  Basis Set: (AUG-CC-PVTZ AUX)
    Blend: AUG-CC-PVTZ-JKFIT
	 Reference Energy          =    -383.7455098209313178 [Eh]
	 Singles Energy            =      -0.0000000000000000 [Eh]
	 Same-Spin Energy          =      -0.4082683359438899 [Eh]
	 Opposite-Spin Energy      =      -1.3142789487558886 [Eh]
	 Correlation Energy        =      -1.7225472846997785 [Eh]
	 Total Energy              =    -385.4680571056310896 [Eh]

	 ================> DF-SCS-MP2 Energies <==================
	-----------------------------------------------------------
	 SCS Same-Spin Scale       =       0.3333333333333333 [-]
	 SCS Opposite-Spin Scale   =       1.2000000000000000 [-]
	 SCS Same-Spin Energy      =      -0.1360894453146300 [Eh]
	 SCS Opposite-Spin Energy  =      -1.5771347385070662 [Eh]
	 SCS Correlation Energy    =      -1.7132241838216962 [Eh]
	 SCS Total Energy          =    -385.4587340047530120 [Eh]
	-----------------------------------------------------------

  Dipole Moment: [D]
     X:     0.8504      Y:     1.0140      Z:    -0.0000     Total:     1.3234

*** Psi4 exiting successfully. Buy a developer a beer!
