                               Psi4 1.3.2 release

  ==> Input File <==

--------------------------------------------------------------------------
#psi4
#
memory 32 gb

molecule  {
0 1
  O        1.2764910    -0.5580180    -0.0000140
  C       -0.0583929    -0.2395764    -0.0000092
  C        2.2283480     0.5091050    -0.0000050
  C       -0.5417410     1.0945740     0.0000030
  C       -0.9442280    -1.2979990     0.0000050
  C        3.5986500    -0.1324730     0.0000120
  C       -1.9250240     1.3079840    -0.0000030
  C       -2.3159710    -1.0695280    -0.0000020
  C       -2.8161410     0.2373500     0.0000110
  H        2.0858520     1.1373040    -0.8891130
  H        2.0858350     1.1373010     0.8891040
  H        0.1282520     1.9474600    -0.0000130
  H       -0.5338010    -2.3041010    -0.0000080
  H        4.3764260     0.6364270     0.0000070
  H        3.7225630    -0.7572470     0.8867960
  H        3.7225780    -0.7572730    -0.8867510
  H       -2.3006170     2.3287260     0.0000070
  H       -2.9984970    -1.9161460     0.0000120
  H       -3.8880810     0.4155830     0.0000010
units angstrom
no_reorient  #important for SAPT in psi4, default
symmetry c1  #important for SAPT in psi4, default
}

set PROPERTIES_ORIGIN ["COM"]
properties('MP2/aug-cc-pvtz', properties = ['dipole'])
--------------------------------------------------------------------------

    Molecular point group: c1
  Charge       = 0
  Multiplicity = 1
  Basis Set: AUG-CC-PVTZ
    Blend: AUG-CC-PVTZ
  Basis Set: (AUG-CC-PVTZ AUX)
    Blend: AUG-CC-PVTZ-JKFIT

    Orbital Energies [Eh]
    ---------------------

    Doubly Occupied:

       1A    -20.580338     2A    -11.299841     3A    -11.287767
       4A    -11.239857     5A    -11.239024     6A    -11.233491
       7A    -11.226089     8A    -11.224083     9A    -11.221538
      10A     -1.401991    11A     -1.144718    12A     -1.044646
      13A     -1.014190    14A     -0.985739    15A     -0.869468
      16A     -0.822051    17A     -0.801993    18A     -0.721362
      19A     -0.668154    20A     -0.665008    21A     -0.648128
      22A     -0.614395    23A     -0.586879    24A     -0.560714
      25A     -0.559638    26A     -0.545669    27A     -0.513654
      28A     -0.507244    29A     -0.501723    30A     -0.477204
      31A     -0.461932    32A     -0.338419    33A     -0.311214

  @DF-RHF Final Energy:  -383.75608290870241

   => Energetics <=

    Nuclear Repulsion Energy =            418.7484112230013125
    One-Electron Energy =               -1350.3726667147786884
    Two-Electron Energy =                 547.8681725830749656
    Total Energy =                       -383.7560829087024104
  Basis Set: (AUG-CC-PVTZ AUX)
    Blend: AUG-CC-PVTZ-RI
    Molecular point group: c1

    Geometry (in Angstrom), charge = 0, multiplicity = 1:

       Center              X                  Y                   Z               Mass
    ------------   -----------------  -----------------  -----------------  -----------------
         O            1.329131889981    -0.540573055069    -0.000013672326    15.994914619570
         C           -0.005752010019    -0.222131455069    -0.000008872326    12.000000000000
         C            2.280988889981     0.526549944931    -0.000004672326    12.000000000000
         C           -0.489100110019     1.112018944931     0.000003327674    12.000000000000
         C           -0.891587110019    -1.280554055069     0.000005327674    12.000000000000
         C            3.651290889981    -0.115028055069     0.000012327674    12.000000000000
         C           -1.872383110019     1.325428944931    -0.000002672326    12.000000000000
         C           -2.263330110019    -1.052083055069    -0.000001672326    12.000000000000
         C           -2.763500110019     0.254794944931     0.000011327674    12.000000000000
         H            2.138492889981     1.154748944931    -0.889112672326     1.007825032230
         H            2.138475889981     1.154745944931     0.889104327674     1.007825032230
         H            0.180892889981     1.964904944931    -0.000012672326     1.007825032230
         H           -0.481160110019    -2.286656055069    -0.000007672326     1.007825032230
         H            4.429066889981     0.653871944931     0.000007327674     1.007825032230
         H            3.775203889981    -0.739802055069     0.886796327674     1.007825032230
         H            3.775218889981    -0.739828055069    -0.886750672326     1.007825032230
         H           -2.247976110019     2.346170944931     0.000007327674     1.007825032230
         H           -2.945856110019    -1.898701055069     0.000012327674     1.007825032230
         H           -3.835440110019     0.433027944931     0.000001327674     1.007825032230

  Basis Set: AUG-CC-PVTZ
    Blend: AUG-CC-PVTZ
  Basis Set: (AUG-CC-PVTZ AUX)
    Blend: AUG-CC-PVTZ-JKFIT
	 Reference Energy          =    -383.7560829087024104 [Eh]
	 Singles Energy            =      -0.0000000000000000 [Eh]
	 Same-Spin Energy          =      -0.4085488869868734 [Eh]
	 Opposite-Spin Energy      =      -1.3143110550064163 [Eh]
	 Correlation Energy        =      -1.7228599419932897 [Eh]
	 Total Energy              =    -385.4789428506957165 [Eh]

	 ================> DF-SCS-MP2 Energies <==================
	-----------------------------------------------------------
	 SCS Same-Spin Scale       =       0.3333333333333333 [-]
	 SCS Opposite-Spin Scale   =       1.2000000000000000 [-]
	 SCS Same-Spin Energy      =      -0.1361829623289578 [Eh]
	 SCS Opposite-Spin Energy  =      -1.5771732660076996 [Eh]
	 SCS Correlation Energy    =      -1.7133562283366575 [Eh]
	 SCS Total Energy          =    -385.4694391370390463 [Eh]
	-----------------------------------------------------------

  Dipole Moment: [D]
     X:     0.8734      Y:     1.0260      Z:    -0.0000     Total:     1.3474

*** Psi4 exiting successfully. Buy a developer a beer!
