                               Psi4 1.4a3.dev225

  ==> Input File <==

--------------------------------------------------------------------------
#psi4
#
memory 32 gb

molecule  {
0 1
  O        1.2764910    -0.5580180    -0.0000140
  C       -0.1010574    -0.2038788    -0.0000088
  C        2.2283480     0.5091050    -0.0000050
  C       -0.5417410     1.0945740     0.0000030
  C       -0.9442280    -1.2979990     0.0000050
  C        3.5986500    -0.1324730     0.0000120
  C       -1.9250240     1.3079840    -0.0000030
  C       -2.3159710    -1.0695280    -0.0000020
  C       -2.8161410     0.2373500     0.0000110
  H        2.0858520     1.1373040    -0.8891130
  H        2.0858350     1.1373010     0.8891040
  H        0.1282520     1.9474600    -0.0000130
  H       -0.5338010    -2.3041010    -0.0000080
  H        4.3764260     0.6364270     0.0000070
  H        3.7225630    -0.7572470     0.8867960
  H        3.7225780    -0.7572730    -0.8867510
  H       -2.3006170     2.3287260     0.0000070
  H       -2.9984970    -1.9161460     0.0000120
  H       -3.8880810     0.4155830     0.0000010
units angstrom
no_reorient  #important for SAPT in psi4, default
symmetry c1  #important for SAPT in psi4, default
}

set PROPERTIES_ORIGIN ["COM"]
properties('MP2/aug-cc-pvtz', properties = ['dipole'])
--------------------------------------------------------------------------

    Molecular point group: c1
  Charge       = 0
  Multiplicity = 1
  Basis Set: AUG-CC-PVTZ
    Blend: AUG-CC-PVTZ
  Basis Set: (AUG-CC-PVTZ AUX)
    Blend: AUG-CC-PVTZ-JKFIT

    Orbital Energies [Eh]
    ---------------------

    Doubly Occupied:

       1A    -20.573162     2A    -11.296121     3A    -11.282402
       4A    -11.241883     5A    -11.240360     6A    -11.231736
       7A    -11.229107     8A    -11.227848     9A    -11.218319
      10A     -1.381090    11A     -1.151873    12A     -1.038793
      13A     -1.020484    14A     -0.987883    15A     -0.864464
      16A     -0.825645    17A     -0.801159    18A     -0.718715
      19A     -0.660929    20A     -0.660437    21A     -0.647087
      22A     -0.615347    23A     -0.592518    24A     -0.556974
      25A     -0.554913    26A     -0.542634    27A     -0.514649
      28A     -0.502839    29A     -0.501202    30A     -0.480835
      31A     -0.457365    32A     -0.341658    33A     -0.318360

  @DF-RHF Final Energy:  -383.75299034485909

   => Energetics <=

    Nuclear Repulsion Energy =            418.7882076424434104
    One-Electron Energy =               -1350.5248128797727531
    Two-Electron Energy =                 547.9836148924702002
    Total Energy =                       -383.7529903448590858
  Basis Set: (AUG-CC-PVTZ AUX)
    Blend: AUG-CC-PVTZ-RI
    Molecular point group: c1

    Geometry (in Angstrom), charge = 0, multiplicity = 1:

       Center              X                  Y                   Z               Mass
    ------------   -----------------  -----------------  -----------------  -----------------
         O            1.333325882987    -0.544082189941    -0.000013711647    15.994914619570
         C           -0.044222517013    -0.189942989941    -0.000008511647    12.000000000000
         C            2.285182882987     0.523040810059    -0.000004711647    12.000000000000
         C           -0.484906117013     1.108509810059     0.000003288353    12.000000000000
         C           -0.887393117013    -1.284063189941     0.000005288353    12.000000000000
         C            3.655484882987    -0.118537189941     0.000012288353    12.000000000000
         C           -1.868189117013     1.321919810059    -0.000002711647    12.000000000000
         C           -2.259136117013    -1.055592189941    -0.000001711647    12.000000000000
         C           -2.759306117013     0.251285810059     0.000011288353    12.000000000000
         H            2.142686882987     1.151239810059    -0.889112711647     1.007825032230
         H            2.142669882987     1.151236810059     0.889104288353     1.007825032230
         H            0.185086882987     1.961395810059    -0.000012711647     1.007825032230
         H           -0.476966117013    -2.290165189941    -0.000007711647     1.007825032230
         H            4.433260882987     0.650362810059     0.000007288353     1.007825032230
         H            3.779397882987    -0.743311189941     0.886796288353     1.007825032230
         H            3.779412882987    -0.743337189941    -0.886750711647     1.007825032230
         H           -2.243782117013     2.342661810059     0.000007288353     1.007825032230
         H           -2.941662117013    -1.902210189941     0.000012288353     1.007825032230
         H           -3.831246117013     0.429518810059     0.000001288353     1.007825032230

  Basis Set: AUG-CC-PVTZ
    Blend: AUG-CC-PVTZ
  Basis Set: (AUG-CC-PVTZ AUX)
    Blend: AUG-CC-PVTZ-JKFIT
	 Reference Energy          =    -383.7529903448590858 [Eh]
	 Singles Energy            =      -0.0000000000000000 [Eh]
	 Same-Spin Energy          =      -0.4086741092067560 [Eh]
	 Opposite-Spin Energy      =      -1.3149579075818532 [Eh]
	 Correlation Energy        =      -1.7236320167886090 [Eh]
	 Total Energy              =    -385.4766223616476850 [Eh]

	 ================> DF-SCS-MP2 Energies <==================
	-----------------------------------------------------------
	 SCS Same-Spin Scale       =       0.3333333333333333 [-]
	 SCS Opposite-Spin Scale   =       1.2000000000000000 [-]
	 SCS Same-Spin Energy      =      -0.1362247030689187 [Eh]
	 SCS Opposite-Spin Energy  =      -1.5779494890982237 [Eh]
	 SCS Correlation Energy    =      -1.7141741921671423 [Eh]
	 SCS Total Energy          =    -385.4671645370262354 [Eh]
	-----------------------------------------------------------

  Dipole Moment: [D]
     X:     0.4915      Y:     1.0564      Z:     0.0000     Total:     1.1651

*** Psi4 exiting successfully. Buy a developer a beer!
