                               Psi4 1.3.2 release

  ==> Input File <==

--------------------------------------------------------------------------
#psi4
#
memory 32 gb

molecule  {
0 1
  O        1.1701606    -0.4526760    -0.0000154
  C       -0.0526320    -0.2163280    -0.0000090
  C        2.2283480     0.5091050    -0.0000050
  C       -0.5417410     1.0945740     0.0000030
  C       -0.9442280    -1.2979990     0.0000050
  C        3.5986500    -0.1324730     0.0000120
  C       -1.9250240     1.3079840    -0.0000030
  C       -2.3159710    -1.0695280    -0.0000020
  C       -2.8161410     0.2373500     0.0000110
  H        2.0858520     1.1373040    -0.8891130
  H        2.0858350     1.1373010     0.8891040
  H        0.1282520     1.9474600    -0.0000130
  H       -0.5338010    -2.3041010    -0.0000080
  H        4.3764260     0.6364270     0.0000070
  H        3.7225630    -0.7572470     0.8867960
  H        3.7225780    -0.7572730    -0.8867510
  H       -2.3006170     2.3287260     0.0000070
  H       -2.9984970    -1.9161460     0.0000120
  H       -3.8880810     0.4155830     0.0000010
units angstrom
no_reorient  #important for SAPT in psi4, default
symmetry c1  #important for SAPT in psi4, default
}

set PROPERTIES_ORIGIN ["COM"]
properties('MP2/aug-cc-pvtz', properties = ['dipole'])
--------------------------------------------------------------------------

    Molecular point group: c1
  Charge       = 0
  Multiplicity = 1
  Basis Set: AUG-CC-PVTZ
    Blend: AUG-CC-PVTZ
  Basis Set: (AUG-CC-PVTZ AUX)
    Blend: AUG-CC-PVTZ-JKFIT

    Orbital Energies [Eh]
    ---------------------

    Doubly Occupied:

       1A    -20.582691     2A    -11.301179     3A    -11.293715
       4A    -11.233316     5A    -11.233270     6A    -11.233045
       7A    -11.216234     8A    -11.215451     9A    -11.214082
      10A     -1.457767    11A     -1.136464    12A     -1.061414
      13A     -1.008351    14A     -0.980361    15A     -0.889738
      16A     -0.827747    17A     -0.793203    18A     -0.732211
      19A     -0.687190    20A     -0.665019    21A     -0.660456
      22A     -0.608828    23A     -0.582975    24A     -0.579645
      25A     -0.561793    26A     -0.559356    27A     -0.516580
      28A     -0.506853    29A     -0.506364    30A     -0.461612
      31A     -0.461606    32A     -0.332866    33A     -0.293368

  @DF-RHF Final Energy:  -383.74556371657661

   => Energetics <=

    Nuclear Repulsion Energy =            421.9559736212112853
    One-Electron Energy =               -1356.6135715787172558
    Two-Electron Energy =                 550.9120342409293016
    Total Energy =                       -383.7455637165766120
  Basis Set: (AUG-CC-PVTZ AUX)
    Blend: AUG-CC-PVTZ-RI
    Molecular point group: c1

    Geometry (in Angstrom), charge = 0, multiplicity = 1:

       Center              X                  Y                   Z               Mass
    ------------   -----------------  -----------------  -----------------  -----------------
         O            1.236167366668    -0.451319087986    -0.000014908549    15.994914619570
         C            0.013374766668    -0.214971087986    -0.000008508549    12.000000000000
         C            2.294354766668     0.510461912014    -0.000004508549    12.000000000000
         C           -0.475734233332     1.095930912014     0.000003491451    12.000000000000
         C           -0.878221233332    -1.296642087986     0.000005491451    12.000000000000
         C            3.664656766668    -0.131116087986     0.000012491451    12.000000000000
         C           -1.859017233332     1.309340912014    -0.000002508549    12.000000000000
         C           -2.249964233332    -1.068171087986    -0.000001508549    12.000000000000
         C           -2.750134233332     0.238706912014     0.000011491451    12.000000000000
         H            2.151858766668     1.138660912014    -0.889112508549     1.007825032230
         H            2.151841766668     1.138657912014     0.889104491451     1.007825032230
         H            0.194258766668     1.948816912014    -0.000012508549     1.007825032230
         H           -0.467794233332    -2.302744087986    -0.000007508549     1.007825032230
         H            4.442432766668     0.637783912014     0.000007491451     1.007825032230
         H            3.788569766668    -0.755890087986     0.886796491451     1.007825032230
         H            3.788584766668    -0.755916087986    -0.886750508549     1.007825032230
         H           -2.234610233332     2.330082912014     0.000007491451     1.007825032230
         H           -2.932490233332    -1.914789087986     0.000012491451     1.007825032230
         H           -3.822074233332     0.416939912014     0.000001491451     1.007825032230

  Basis Set: AUG-CC-PVTZ
    Blend: AUG-CC-PVTZ
  Basis Set: (AUG-CC-PVTZ AUX)
    Blend: AUG-CC-PVTZ-JKFIT
	 Reference Energy          =    -383.7455637165766120 [Eh]
	 Singles Energy            =      -0.0000000000000000 [Eh]
	 Same-Spin Energy          =      -0.4078752614089359 [Eh]
	 Opposite-Spin Energy      =      -1.3110044370031784 [Eh]
	 Correlation Energy        =      -1.7188796984121142 [Eh]
	 Total Energy              =    -385.4644434149887502 [Eh]

	 ================> DF-SCS-MP2 Energies <==================
	-----------------------------------------------------------
	 SCS Same-Spin Scale       =       0.3333333333333333 [-]
	 SCS Opposite-Spin Scale   =       1.2000000000000000 [-]
	 SCS Same-Spin Energy      =      -0.1359584204696453 [Eh]
	 SCS Opposite-Spin Energy  =      -1.5732053244038140 [Eh]
	 SCS Correlation Energy    =      -1.7091637448734593 [Eh]
	 SCS Total Energy          =    -385.4547274614500907 [Eh]
	-----------------------------------------------------------

  Dipole Moment: [D]
     X:     2.0461      Y:     0.8504      Z:    -0.0000     Total:     2.2158

*** Psi4 exiting successfully. Buy a developer a beer!
