                               Psi4 1.4a3.dev225

  ==> Input File <==

--------------------------------------------------------------------------
#psi4
#
memory 32 gb

molecule  {
0 1
  O        1.2764910    -0.5580180    -0.0000140
  C       -0.0720022    -0.2113483    -0.0000089
  C        2.2283480     0.5091050    -0.0000050
  C       -0.5417410     1.0945740     0.0000030
  C       -0.9442280    -1.2979990     0.0000050
  C        3.5986500    -0.1324730     0.0000120
  C       -1.9250240     1.3079840    -0.0000030
  C       -2.3159710    -1.0695280    -0.0000020
  C       -2.8161410     0.2373500     0.0000110
  H        2.0858520     1.1373040    -0.8891130
  H        2.0858350     1.1373010     0.8891040
  H        0.1282520     1.9474600    -0.0000130
  H       -0.5338010    -2.3041010    -0.0000080
  H        4.3764260     0.6364270     0.0000070
  H        3.7225630    -0.7572470     0.8867960
  H        3.7225780    -0.7572730    -0.8867510
  H       -2.3006170     2.3287260     0.0000070
  H       -2.9984970    -1.9161460     0.0000120
  H       -3.8880810     0.4155830     0.0000010
units angstrom
no_reorient  #important for SAPT in psi4, default
symmetry c1  #important for SAPT in psi4, default
}

set PROPERTIES_ORIGIN ["COM"]
properties('MP2/aug-cc-pvtz', properties = ['dipole'])
--------------------------------------------------------------------------

    Molecular point group: c1
  Charge       = 0
  Multiplicity = 1
  Basis Set: AUG-CC-PVTZ
    Blend: AUG-CC-PVTZ
  Basis Set: (AUG-CC-PVTZ AUX)
    Blend: AUG-CC-PVTZ-JKFIT

    Orbital Energies [Eh]
    ---------------------

    Doubly Occupied:

       1A    -20.578108     2A    -11.298265     3A    -11.285390
       4A    -11.240713     5A    -11.239214     6A    -11.231599
       7A    -11.227384     8A    -11.227067     9A    -11.220216
      10A     -1.393909    11A     -1.147312    12A     -1.041579
      13A     -1.017105    14A     -0.986598    15A     -0.867191
      16A     -0.824309    17A     -0.800810    18A     -0.720078
      19A     -0.665394    20A     -0.663373    21A     -0.647581
      22A     -0.614677    23A     -0.588806    24A     -0.558983
      25A     -0.558275    26A     -0.544246    27A     -0.514394
      28A     -0.503296    29A     -0.501874    30A     -0.480654
      31A     -0.460382    32A     -0.339881    33A     -0.313994

  @DF-RHF Final Energy:  -383.75586463049638

   => Energetics <=

    Nuclear Repulsion Energy =            418.7747228678539386
    One-Electron Energy =               -1350.4558545048898850
    Two-Electron Energy =                 547.9252670065395705
    Total Energy =                       -383.7558646304963759
  Basis Set: (AUG-CC-PVTZ AUX)
    Blend: AUG-CC-PVTZ-RI
    Molecular point group: c1

    Geometry (in Angstrom), charge = 0, multiplicity = 1:

       Center              X                  Y                   Z               Mass
    ------------   -----------------  -----------------  -----------------  -----------------
         O            1.330469707347    -0.543347925371    -0.000013701817    15.994914619570
         C           -0.018023492653    -0.196678225371    -0.000008601817    12.000000000000
         C            2.282326707347     0.523775074629    -0.000004701817    12.000000000000
         C           -0.487762292653     1.109244074629     0.000003298183    12.000000000000
         C           -0.890249292653    -1.283328925371     0.000005298183    12.000000000000
         C            3.652628707347    -0.117802925371     0.000012298183    12.000000000000
         C           -1.871045292653     1.322654074629    -0.000002701817    12.000000000000
         C           -2.261992292653    -1.054857925371    -0.000001701817    12.000000000000
         C           -2.762162292653     0.252020074629     0.000011298183    12.000000000000
         H            2.139830707347     1.151974074629    -0.889112701817     1.007825032230
         H            2.139813707347     1.151971074629     0.889104298183     1.007825032230
         H            0.182230707347     1.962130074629    -0.000012701817     1.007825032230
         H           -0.479822292653    -2.289430925371    -0.000007701817     1.007825032230
         H            4.430404707347     0.651097074629     0.000007298183     1.007825032230
         H            3.776541707347    -0.742576925371     0.886796298183     1.007825032230
         H            3.776556707347    -0.742602925371    -0.886750701817     1.007825032230
         H           -2.246638292653     2.343396074629     0.000007298183     1.007825032230
         H           -2.944518292653    -1.901475925371     0.000012298183     1.007825032230
         H           -3.834102292653     0.430253074629     0.000001298183     1.007825032230

  Basis Set: AUG-CC-PVTZ
    Blend: AUG-CC-PVTZ
  Basis Set: (AUG-CC-PVTZ AUX)
    Blend: AUG-CC-PVTZ-JKFIT
	 Reference Energy          =    -383.7558646304963759 [Eh]
	 Singles Energy            =      -0.0000000000000000 [Eh]
	 Same-Spin Energy          =      -0.4085821475019213 [Eh]
	 Opposite-Spin Energy      =      -1.3145983022486403 [Eh]
	 Correlation Energy        =      -1.7231804497505616 [Eh]
	 Total Energy              =    -385.4790450802469195 [Eh]

	 ================> DF-SCS-MP2 Energies <==================
	-----------------------------------------------------------
	 SCS Same-Spin Scale       =       0.3333333333333333 [-]
	 SCS Opposite-Spin Scale   =       1.2000000000000000 [-]
	 SCS Same-Spin Energy      =      -0.1361940491673071 [Eh]
	 SCS Opposite-Spin Energy  =      -1.5775179626983682 [Eh]
	 SCS Correlation Energy    =      -1.7137120118656752 [Eh]
	 SCS Total Energy          =    -385.4695766423620285 [Eh]
	-----------------------------------------------------------

  Dipole Moment: [D]
     X:     0.7214      Y:     1.0405      Z:     0.0000     Total:     1.2661

*** Psi4 exiting successfully. Buy a developer a beer!
