                               Psi4 1.3.2 release

  ==> Input File <==

--------------------------------------------------------------------------
#psi4
#
memory 32 gb

molecule  {
0 1
  O        1.2959932    -0.5742468     0.0429691
  C       -0.0526320    -0.2163280    -0.0000090
  C        2.2283480     0.5091050    -0.0000050
  C       -0.5417410     1.0945740     0.0000030
  C       -0.9442280    -1.2979990     0.0000050
  C        3.5986500    -0.1324730     0.0000120
  C       -1.9250240     1.3079840    -0.0000030
  C       -2.3159710    -1.0695280    -0.0000020
  C       -2.8161410     0.2373500     0.0000110
  H        2.0858520     1.1373040    -0.8891130
  H        2.0858350     1.1373010     0.8891040
  H        0.1282520     1.9474600    -0.0000130
  H       -0.5338010    -2.3041010    -0.0000080
  H        4.3764260     0.6364270     0.0000070
  H        3.7225630    -0.7572470     0.8867960
  H        3.7225780    -0.7572730    -0.8867510
  H       -2.3006170     2.3287260     0.0000070
  H       -2.9984970    -1.9161460     0.0000120
  H       -3.8880810     0.4155830     0.0000010
units angstrom
no_reorient  #important for SAPT in psi4, default
symmetry c1  #important for SAPT in psi4, default
}

set PROPERTIES_ORIGIN ["COM"]
properties('MP2/aug-cc-pvtz', properties = ['dipole'])
--------------------------------------------------------------------------

    Molecular point group: c1
  Charge       = 0
  Multiplicity = 1
  Basis Set: AUG-CC-PVTZ
    Blend: AUG-CC-PVTZ
  Basis Set: (AUG-CC-PVTZ AUX)
    Blend: AUG-CC-PVTZ-JKFIT

    Orbital Energies [Eh]
    ---------------------

    Doubly Occupied:

       1A    -20.581389     2A    -11.300963     3A    -11.285503
       4A    -11.240998     5A    -11.239283     6A    -11.233831
       7A    -11.228280     8A    -11.228008     9A    -11.219710
      10A     -1.394902    11A     -1.145658    12A     -1.041049
      13A     -1.016005    14A     -0.986243    15A     -0.866513
      16A     -0.822878    17A     -0.801863    18A     -0.719657
      19A     -0.666212    20A     -0.664159    21A     -0.646779
      22A     -0.614823    23A     -0.587416    24A     -0.560524
      25A     -0.557138    26A     -0.543331    27A     -0.515025
      28A     -0.503148    29A     -0.500688    30A     -0.481528
      31A     -0.461451    32A     -0.339675    33A     -0.313817

  @DF-RHF Final Energy:  -383.75446799666145

   => Energetics <=

    Nuclear Repulsion Energy =            418.2431177908254085
    One-Electron Energy =               -1349.3782817211065321
    Two-Electron Energy =                 547.3806959336196769
    Total Energy =                       -383.7544679966614467
  Basis Set: (AUG-CC-PVTZ AUX)
    Blend: AUG-CC-PVTZ-RI
    Molecular point group: c1

    Geometry (in Angstrom), charge = 0, multiplicity = 1:

       Center              X                  Y                   Z               Mass
    ------------   -----------------  -----------------  -----------------  -----------------
         O            1.345512463503    -0.556960796878     0.037337449385    15.994914619570
         C           -0.003112736497    -0.199041996878    -0.005640650615    12.000000000000
         C            2.277867263503     0.526391003122    -0.005636650615    12.000000000000
         C           -0.492221736497     1.111860003122    -0.005628650615    12.000000000000
         C           -0.894708736497    -1.280712996878    -0.005626650615    12.000000000000
         C            3.648169263503    -0.115186996878    -0.005619650615    12.000000000000
         C           -1.875504736497     1.325270003122    -0.005634650615    12.000000000000
         C           -2.266451736497    -1.052241996878    -0.005633650615    12.000000000000
         C           -2.766621736497     0.254636003122    -0.005620650615    12.000000000000
         H            2.135371263503     1.154590003122    -0.894744650615     1.007825032230
         H            2.135354263503     1.154587003122     0.883472349385     1.007825032230
         H            0.177771263503     1.964746003122    -0.005644650615     1.007825032230
         H           -0.484281736497    -2.286814996878    -0.005639650615     1.007825032230
         H            4.425945263503     0.653713003122    -0.005624650615     1.007825032230
         H            3.772082263503    -0.739960996878     0.881164349385     1.007825032230
         H            3.772097263503    -0.739986996878    -0.892382650615     1.007825032230
         H           -2.251097736497     2.346012003122    -0.005624650615     1.007825032230
         H           -2.948977736497    -1.898859996878    -0.005619650615     1.007825032230
         H           -3.838561736497     0.432869003122    -0.005630650615     1.007825032230

  Basis Set: AUG-CC-PVTZ
    Blend: AUG-CC-PVTZ
  Basis Set: (AUG-CC-PVTZ AUX)
    Blend: AUG-CC-PVTZ-JKFIT
	 Reference Energy          =    -383.7544679966614467 [Eh]
	 Singles Energy            =      -0.0000000000000000 [Eh]
	 Same-Spin Energy          =      -0.4087659032945422 [Eh]
	 Opposite-Spin Energy      =      -1.3152501703576287 [Eh]
	 Correlation Energy        =      -1.7240160736521708 [Eh]
	 Total Energy              =    -385.4784840703136410 [Eh]

	 ================> DF-SCS-MP2 Energies <==================
	-----------------------------------------------------------
	 SCS Same-Spin Scale       =       0.3333333333333333 [-]
	 SCS Opposite-Spin Scale   =       1.2000000000000000 [-]
	 SCS Same-Spin Energy      =      -0.1362553010981807 [Eh]
	 SCS Opposite-Spin Energy  =      -1.5783002044291543 [Eh]
	 SCS Correlation Energy    =      -1.7145555055273349 [Eh]
	 SCS Total Energy          =    -385.4690235021888043 [Eh]
	-----------------------------------------------------------

  Dipole Moment: [D]
     X:     0.6954      Y:     1.0585      Z:    -0.0499     Total:     1.2675

*** Psi4 exiting successfully. Buy a developer a beer!
