                               Psi4 1.4a3.dev225

  ==> Input File <==

--------------------------------------------------------------------------
#psi4
#
memory 32 gb

molecule  {
0 1
  O        1.2764910    -0.5580180    -0.0000140
  C       -0.0526320    -0.2163280    -0.0000090
  C        2.2416611     0.5240302    -0.0000049
  C       -0.5417410     1.0945740     0.0000030
  C       -0.9442280    -1.2979990     0.0000050
  C        3.5986500    -0.1324730     0.0000120
  C       -1.9250240     1.3079840    -0.0000030
  C       -2.3159710    -1.0695280    -0.0000020
  C       -2.8161410     0.2373500     0.0000110
  H        2.0858520     1.1373040    -0.8891130
  H        2.0858350     1.1373010     0.8891040
  H        0.1282520     1.9474600    -0.0000130
  H       -0.5338010    -2.3041010    -0.0000080
  H        4.3764260     0.6364270     0.0000070
  H        3.7225630    -0.7572470     0.8867960
  H        3.7225780    -0.7572730    -0.8867510
  H       -2.3006170     2.3287260     0.0000070
  H       -2.9984970    -1.9161460     0.0000120
  H       -3.8880810     0.4155830     0.0000010
units angstrom
no_reorient  #important for SAPT in psi4, default
symmetry c1  #important for SAPT in psi4, default
}

set PROPERTIES_ORIGIN ["COM"]
properties('MP2/aug-cc-pvtz', properties = ['dipole'])
--------------------------------------------------------------------------

    Molecular point group: c1
  Charge       = 0
  Multiplicity = 1
  Basis Set: AUG-CC-PVTZ
    Blend: AUG-CC-PVTZ
  Basis Set: (AUG-CC-PVTZ AUX)
    Blend: AUG-CC-PVTZ-JKFIT

    Orbital Energies [Eh]
    ---------------------

    Doubly Occupied:

       1A    -20.579562     2A    -11.298898     3A    -11.287898
       4A    -11.239431     5A    -11.237880     6A    -11.230683
       7A    -11.225612     8A    -11.225349     9A    -11.222220
      10A     -1.396656    11A     -1.143298    12A     -1.044664
      13A     -1.014265    14A     -0.985418    15A     -0.868971
      16A     -0.822442    17A     -0.800828    18A     -0.719016
      19A     -0.668510    20A     -0.663704    21A     -0.646707
      22A     -0.613424    23A     -0.585735    24A     -0.560738
      25A     -0.559324    26A     -0.543489    27A     -0.515705
      28A     -0.505927    29A     -0.503024    30A     -0.478508
      31A     -0.463398    32A     -0.338184    33A     -0.309862

  @DF-RHF Final Energy:  -383.75589990014595

   => Energetics <=

    Nuclear Repulsion Energy =            418.4716865925116736
    One-Electron Energy =               -1349.8565154757968685
    Two-Electron Energy =                 547.6289289831391898
    Total Energy =                       -383.7558999001460052
  Basis Set: (AUG-CC-PVTZ AUX)
    Blend: AUG-CC-PVTZ-RI
    Molecular point group: c1

    Geometry (in Angstrom), charge = 0, multiplicity = 1:

       Center              X                  Y                   Z               Mass
    ------------   -----------------  -----------------  -----------------  -----------------
         O            1.327256883298    -0.544325584958    -0.000013701817    15.994914619570
         C           -0.001866116702    -0.202635584958    -0.000008701817    12.000000000000
         C            2.292426983298     0.537722615042    -0.000004601817    12.000000000000
         C           -0.490975116702     1.108266415042     0.000003298183    12.000000000000
         C           -0.893462116702    -1.284306584958     0.000005298183    12.000000000000
         C            3.649415883298    -0.118780584958     0.000012298183    12.000000000000
         C           -1.874258116702     1.321676415042    -0.000002701817    12.000000000000
         C           -2.265205116702    -1.055835584958    -0.000001701817    12.000000000000
         C           -2.765375116702     0.251042415042     0.000011298183    12.000000000000
         H            2.136617883298     1.150996415042    -0.889112701817     1.007825032230
         H            2.136600883298     1.150993415042     0.889104298183     1.007825032230
         H            0.179017883298     1.961152415042    -0.000012701817     1.007825032230
         H           -0.483035116702    -2.290408584958    -0.000007701817     1.007825032230
         H            4.427191883298     0.650119415042     0.000007298183     1.007825032230
         H            3.773328883298    -0.743554584958     0.886796298183     1.007825032230
         H            3.773343883298    -0.743580584958    -0.886750701817     1.007825032230
         H           -2.249851116702     2.342418415042     0.000007298183     1.007825032230
         H           -2.947731116702    -1.902453584958     0.000012298183     1.007825032230
         H           -3.837315116702     0.429275415042     0.000001298183     1.007825032230

  Basis Set: AUG-CC-PVTZ
    Blend: AUG-CC-PVTZ
  Basis Set: (AUG-CC-PVTZ AUX)
    Blend: AUG-CC-PVTZ-JKFIT
	 Reference Energy          =    -383.7558999001459483 [Eh]
	 Singles Energy            =      -0.0000000000000000 [Eh]
	 Same-Spin Energy          =      -0.4086231882006011 [Eh]
	 Opposite-Spin Energy      =      -1.3147362812271011 [Eh]
	 Correlation Energy        =      -1.7233594694277021 [Eh]
	 Total Energy              =    -385.4792593695736400 [Eh]

	 ================> DF-SCS-MP2 Energies <==================
	-----------------------------------------------------------
	 SCS Same-Spin Scale       =       0.3333333333333333 [-]
	 SCS Opposite-Spin Scale   =       1.2000000000000000 [-]
	 SCS Same-Spin Energy      =      -0.1362077294002003 [Eh]
	 SCS Opposite-Spin Energy  =      -1.5776835374725213 [Eh]
	 SCS Correlation Energy    =      -1.7138912668727218 [Eh]
	 SCS Total Energy          =    -385.4697911670186841 [Eh]
	-----------------------------------------------------------

  Dipole Moment: [D]
     X:     0.9748      Y:     1.0671      Z:     0.0000     Total:     1.4453

*** Psi4 exiting successfully. Buy a developer a beer!
