                               Psi4 1.3.2 release

  ==> Input File <==

--------------------------------------------------------------------------
#psi4
#
memory 32 gb

molecule  {
0 1
  O        1.2764910    -0.5580180    -0.0000140
  C       -0.2463336    -0.1665313    -0.0000083
  C        2.2283480     0.5091050    -0.0000050
  C       -0.5417410     1.0945740     0.0000030
  C       -0.9442280    -1.2979990     0.0000050
  C        3.5986500    -0.1324730     0.0000120
  C       -1.9250240     1.3079840    -0.0000030
  C       -2.3159710    -1.0695280    -0.0000020
  C       -2.8161410     0.2373500     0.0000110
  H        2.0858520     1.1373040    -0.8891130
  H        2.0858350     1.1373010     0.8891040
  H        0.1282520     1.9474600    -0.0000130
  H       -0.5338010    -2.3041010    -0.0000080
  H        4.3764260     0.6364270     0.0000070
  H        3.7225630    -0.7572470     0.8867960
  H        3.7225780    -0.7572730    -0.8867510
  H       -2.3006170     2.3287260     0.0000070
  H       -2.9984970    -1.9161460     0.0000120
  H       -3.8880810     0.4155830     0.0000010
units angstrom
no_reorient  #important for SAPT in psi4, default
symmetry c1  #important for SAPT in psi4, default
}

set PROPERTIES_ORIGIN ["COM"]
properties('MP2/aug-cc-pvtz', properties = ['dipole'])
--------------------------------------------------------------------------

    Molecular point group: c1
  Charge       = 0
  Multiplicity = 1
  Basis Set: AUG-CC-PVTZ
    Blend: AUG-CC-PVTZ
  Basis Set: (AUG-CC-PVTZ AUX)
    Blend: AUG-CC-PVTZ-JKFIT

    Orbital Energies [Eh]
    ---------------------

    Doubly Occupied:

       1A    -20.548206     2A    -11.290621     3A    -11.268404
       4A    -11.248633     5A    -11.246764     6A    -11.236225
       7A    -11.232652     8A    -11.232401     9A    -11.209349
      10A     -1.329447    11A     -1.176549    12A     -1.040910
      13A     -1.030944    14A     -0.987746    15A     -0.859700
      16A     -0.828657    17A     -0.802159    18A     -0.720108
      19A     -0.657906    20A     -0.644866    21A     -0.642295
      22A     -0.613188    23A     -0.607063    24A     -0.548107
      25A     -0.546636    26A     -0.535778    27A     -0.521450
      28A     -0.507379    29A     -0.498919    30A     -0.451776
      31A     -0.438530    32A     -0.352263    33A     -0.336152

  @DF-RHF Final Energy:  -383.71189414763637

   => Energetics <=

    Nuclear Repulsion Energy =            419.1003863163065830
    One-Electron Energy =               -1351.2409906000395949
    Two-Electron Energy =                 548.4287101360965835
    Total Energy =                       -383.7118941476363716
  Basis Set: (AUG-CC-PVTZ AUX)
    Blend: AUG-CC-PVTZ-RI
    Molecular point group: c1

    Geometry (in Angstrom), charge = 0, multiplicity = 1:

       Center              X                  Y                   Z               Mass
    ------------   -----------------  -----------------  -----------------  -----------------
         O            1.347606780847    -0.547753512792    -0.000013760798    15.994914619570
         C           -0.175217819153    -0.156266812792    -0.000008060798    12.000000000000
         C            2.299463780847     0.519369487208    -0.000004760798    12.000000000000
         C           -0.470625219153     1.104838487208     0.000003239202    12.000000000000
         C           -0.873112219153    -1.287734512792     0.000005239202    12.000000000000
         C            3.669765780847    -0.122208512792     0.000012239202    12.000000000000
         C           -1.853908219153     1.318248487208    -0.000002760798    12.000000000000
         C           -2.244855219153    -1.059263512792    -0.000001760798    12.000000000000
         C           -2.745025219153     0.247614487208     0.000011239202    12.000000000000
         H            2.156967780847     1.147568487208    -0.889112760798     1.007825032230
         H            2.156950780847     1.147565487208     0.889104239202     1.007825032230
         H            0.199367780847     1.957724487208    -0.000012760798     1.007825032230
         H           -0.462685219153    -2.293836512792    -0.000007760798     1.007825032230
         H            4.447541780847     0.646691487208     0.000007239202     1.007825032230
         H            3.793678780847    -0.746982512792     0.886796239202     1.007825032230
         H            3.793693780847    -0.747008512792    -0.886750760798     1.007825032230
         H           -2.229501219153     2.338990487208     0.000007239202     1.007825032230
         H           -2.927381219153    -1.905881512792     0.000012239202     1.007825032230
         H           -3.816965219153     0.425847487208     0.000001239202     1.007825032230

  Basis Set: AUG-CC-PVTZ
    Blend: AUG-CC-PVTZ
  Basis Set: (AUG-CC-PVTZ AUX)
    Blend: AUG-CC-PVTZ-JKFIT
	 Reference Energy          =    -383.7118941476363716 [Eh]
	 Singles Energy            =      -0.0000000000000000 [Eh]
	 Same-Spin Energy          =      -0.4103037515565216 [Eh]
	 Opposite-Spin Energy      =      -1.3187794284908638 [Eh]
	 Correlation Energy        =      -1.7290831800473854 [Eh]
	 Total Energy              =    -385.4409773276837541 [Eh]

	 ================> DF-SCS-MP2 Energies <==================
	-----------------------------------------------------------
	 SCS Same-Spin Scale       =       0.3333333333333333 [-]
	 SCS Opposite-Spin Scale   =       1.2000000000000000 [-]
	 SCS Same-Spin Energy      =      -0.1367679171855072 [Eh]
	 SCS Opposite-Spin Energy  =      -1.5825353141890366 [Eh]
	 SCS Correlation Energy    =      -1.7193032313745438 [Eh]
	 SCS Total Energy          =    -385.4311973790109391 [Eh]
	-----------------------------------------------------------

  Dipole Moment: [D]
     X:    -0.5404      Y:     1.1273      Z:     0.0000     Total:     1.2501

*** Psi4 exiting successfully. Buy a developer a beer!
