                               Psi4 1.4a3.dev225

  ==> Input File <==

--------------------------------------------------------------------------
#psi4
#
memory 32 gb

molecule  {
0 1
  O        1.2764910    -0.5580180    -0.0000140
  C       -0.0526320    -0.2163280    -0.0000090
  C        2.1950653     0.4717919    -0.0000053
  C       -0.5417410     1.0945740     0.0000030
  C       -0.9442280    -1.2979990     0.0000050
  C        3.5986500    -0.1324730     0.0000120
  C       -1.9250240     1.3079840    -0.0000030
  C       -2.3159710    -1.0695280    -0.0000020
  C       -2.8161410     0.2373500     0.0000110
  H        2.0858520     1.1373040    -0.8891130
  H        2.0858350     1.1373010     0.8891040
  H        0.1282520     1.9474600    -0.0000130
  H       -0.5338010    -2.3041010    -0.0000080
  H        4.3764260     0.6364270     0.0000070
  H        3.7225630    -0.7572470     0.8867960
  H        3.7225780    -0.7572730    -0.8867510
  H       -2.3006170     2.3287260     0.0000070
  H       -2.9984970    -1.9161460     0.0000120
  H       -3.8880810     0.4155830     0.0000010
units angstrom
no_reorient  #important for SAPT in psi4, default
symmetry c1  #important for SAPT in psi4, default
}

set PROPERTIES_ORIGIN ["COM"]
properties('MP2/aug-cc-pvtz', properties = ['dipole'])
--------------------------------------------------------------------------

    Molecular point group: c1
  Charge       = 0
  Multiplicity = 1
  Basis Set: AUG-CC-PVTZ
    Blend: AUG-CC-PVTZ
  Basis Set: (AUG-CC-PVTZ AUX)
    Blend: AUG-CC-PVTZ-JKFIT

    Orbital Energies [Eh]
    ---------------------

    Doubly Occupied:

       1A    -20.586124     2A    -11.302267     3A    -11.287002
       4A    -11.241241     5A    -11.239895     6A    -11.233505
       7A    -11.228920     8A    -11.228147     9A    -11.219950
      10A     -1.420581    11A     -1.147026    12A     -1.042164
      13A     -1.016600    14A     -0.985159    15A     -0.870927
      16A     -0.826241    17A     -0.799306    18A     -0.727473
      19A     -0.670350    20A     -0.668378    21A     -0.652925
      22A     -0.615718    23A     -0.587890    24A     -0.565939
      25A     -0.560511    26A     -0.547844    27A     -0.513877
      28A     -0.501764    29A     -0.498791    30A     -0.477688
      31A     -0.456870    32A     -0.340107    33A     -0.313662

  @DF-RHF Final Energy:  -383.75524667438003

   => Energetics <=

    Nuclear Repulsion Energy =            419.5615423025700466
    One-Electron Energy =               -1351.8838938739918376
    Two-Electron Energy =                 548.5671048970417587
    Total Energy =                       -383.7552466743800323
  Basis Set: (AUG-CC-PVTZ AUX)
    Blend: AUG-CC-PVTZ-RI
    Molecular point group: c1

    Geometry (in Angstrom), charge = 0, multiplicity = 1:

       Center              X                  Y                   Z               Mass
    ------------   -----------------  -----------------  -----------------  -----------------
         O            1.331837329789    -0.539190471108    -0.000013662496    15.994914619570
         C            0.002714329789    -0.197500471108    -0.000008662496    12.000000000000
         C            2.250411629789     0.490619428892    -0.000004962496    12.000000000000
         C           -0.486394670211     1.113401528892     0.000003337504    12.000000000000
         C           -0.888881670211    -1.279171471108     0.000005337504    12.000000000000
         C            3.653996329789    -0.113645471108     0.000012337504    12.000000000000
         C           -1.869677670211     1.326811528892    -0.000002662496    12.000000000000
         C           -2.260624670211    -1.050700471108    -0.000001662496    12.000000000000
         C           -2.760794670211     0.256177528892     0.000011337504    12.000000000000
         H            2.141198329789     1.156131528892    -0.889112662496     1.007825032230
         H            2.141181329789     1.156128528892     0.889104337504     1.007825032230
         H            0.183598329789     1.966287528892    -0.000012662496     1.007825032230
         H           -0.478454670211    -2.285273471108    -0.000007662496     1.007825032230
         H            4.431772329789     0.655254528892     0.000007337504     1.007825032230
         H            3.777909329789    -0.738419471108     0.886796337504     1.007825032230
         H            3.777924329789    -0.738445471108    -0.886750662496     1.007825032230
         H           -2.245270670211     2.347553528892     0.000007337504     1.007825032230
         H           -2.943150670211    -1.897318471108     0.000012337504     1.007825032230
         H           -3.832734670211     0.434410528892     0.000001337504     1.007825032230

  Basis Set: AUG-CC-PVTZ
    Blend: AUG-CC-PVTZ
  Basis Set: (AUG-CC-PVTZ AUX)
    Blend: AUG-CC-PVTZ-JKFIT
	 Reference Energy          =    -383.7552466743800323 [Eh]
	 Singles Energy            =      -0.0000000000000000 [Eh]
	 Same-Spin Energy          =      -0.4085220033975218 [Eh]
	 Opposite-Spin Energy      =      -1.3138660478826649 [Eh]
	 Correlation Energy        =      -1.7223880512801868 [Eh]
	 Total Energy              =    -385.4776347256602094 [Eh]

	 ================> DF-SCS-MP2 Energies <==================
	-----------------------------------------------------------
	 SCS Same-Spin Scale       =       0.3333333333333333 [-]
	 SCS Opposite-Spin Scale   =       1.2000000000000000 [-]
	 SCS Same-Spin Energy      =      -0.1361740011325073 [Eh]
	 SCS Opposite-Spin Energy  =      -1.5766392574591979 [Eh]
	 SCS Correlation Energy    =      -1.7128132585917051 [Eh]
	 SCS Total Energy          =    -385.4680599329717552 [Eh]
	-----------------------------------------------------------

  Dipole Moment: [D]
     X:     0.6359      Y:     0.9275      Z:    -0.0000     Total:     1.1246

*** Psi4 exiting successfully. Buy a developer a beer!
