                               Psi4 1.3.2 release

  ==> Input File <==

--------------------------------------------------------------------------
#psi4
#
memory 32 gb

molecule  {
0 1
  O        1.2860986    -0.5662962     0.0214808
  C       -0.0526320    -0.2163280    -0.0000090
  C        2.2283480     0.5091050    -0.0000050
  C       -0.5417410     1.0945740     0.0000030
  C       -0.9442280    -1.2979990     0.0000050
  C        3.5986500    -0.1324730     0.0000120
  C       -1.9250240     1.3079840    -0.0000030
  C       -2.3159710    -1.0695280    -0.0000020
  C       -2.8161410     0.2373500     0.0000110
  H        2.0858520     1.1373040    -0.8891130
  H        2.0858350     1.1373010     0.8891040
  H        0.1282520     1.9474600    -0.0000130
  H       -0.5338010    -2.3041010    -0.0000080
  H        4.3764260     0.6364270     0.0000070
  H        3.7225630    -0.7572470     0.8867960
  H        3.7225780    -0.7572730    -0.8867510
  H       -2.3006170     2.3287260     0.0000070
  H       -2.9984970    -1.9161460     0.0000120
  H       -3.8880810     0.4155830     0.0000010
units angstrom
no_reorient  #important for SAPT in psi4, default
symmetry c1  #important for SAPT in psi4, default
}

set PROPERTIES_ORIGIN ["COM"]
properties('MP2/aug-cc-pvtz', properties = ['dipole'])
--------------------------------------------------------------------------

    Molecular point group: c1
  Charge       = 0
  Multiplicity = 1
  Basis Set: AUG-CC-PVTZ
    Blend: AUG-CC-PVTZ
  Basis Set: (AUG-CC-PVTZ AUX)
    Blend: AUG-CC-PVTZ-JKFIT

    Orbital Energies [Eh]
    ---------------------

    Doubly Occupied:

       1A    -20.581442     2A    -11.300404     3A    -11.286484
       4A    -11.240467     5A    -11.238862     6A    -11.232647
       7A    -11.227397     8A    -11.227059     9A    -11.220627
      10A     -1.398999    11A     -1.144986    12A     -1.042395
      13A     -1.015455    14A     -0.985873    15A     -0.867904
      16A     -0.823123    17A     -0.801207    18A     -0.720525
      19A     -0.667351    20A     -0.664706    21A     -0.647572
      22A     -0.614445    23A     -0.586859    24A     -0.560392
      25A     -0.558956    26A     -0.544357    27A     -0.514641
      28A     -0.504274    29A     -0.501199    30A     -0.480264
      31A     -0.461876    32A     -0.339198    33A     -0.312361

  @DF-RHF Final Energy:  -383.75574062677896

   => Energetics <=

    Nuclear Repulsion Energy =            418.5139442581156004
    One-Electron Energy =               -1349.9107584067719472
    Two-Electron Energy =                 547.6410735218775017
    Total Energy =                       -383.7557406267789020
  Basis Set: (AUG-CC-PVTZ AUX)
    Blend: AUG-CC-PVTZ-RI
    Molecular point group: c1

    Geometry (in Angstrom), charge = 0, multiplicity = 1:

       Center              X                  Y                   Z               Mass
    ------------   -----------------  -----------------  -----------------  -----------------
         O            1.336914326016    -0.550051942361     0.018664702860    15.994914619570
         C           -0.001816273984    -0.200083742361    -0.002825097140    12.000000000000
         C            2.279163726016     0.525349257639    -0.002821097140    12.000000000000
         C           -0.490925273984     1.110818257639    -0.002813097140    12.000000000000
         C           -0.893412273984    -1.281754742361    -0.002811097140    12.000000000000
         C            3.649465726016    -0.116228742361    -0.002804097140    12.000000000000
         C           -1.874208273984     1.324228257639    -0.002819097140    12.000000000000
         C           -2.265155273984    -1.053283742361    -0.002818097140    12.000000000000
         C           -2.765325273984     0.253594257639    -0.002805097140    12.000000000000
         H            2.136667726016     1.153548257639    -0.891929097140     1.007825032230
         H            2.136650726016     1.153545257639     0.886287902860     1.007825032230
         H            0.179067726016     1.963704257639    -0.002829097140     1.007825032230
         H           -0.482985273984    -2.287856742361    -0.002824097140     1.007825032230
         H            4.427241726016     0.652671257639    -0.002809097140     1.007825032230
         H            3.773378726016    -0.741002742361     0.883979902860     1.007825032230
         H            3.773393726016    -0.741028742361    -0.889567097140     1.007825032230
         H           -2.249801273984     2.344970257639    -0.002809097140     1.007825032230
         H           -2.947681273984    -1.899901742361    -0.002804097140     1.007825032230
         H           -3.837265273984     0.431827257639    -0.002815097140     1.007825032230

  Basis Set: AUG-CC-PVTZ
    Blend: AUG-CC-PVTZ
  Basis Set: (AUG-CC-PVTZ AUX)
    Blend: AUG-CC-PVTZ-JKFIT
	 Reference Energy          =    -383.7557406267789588 [Eh]
	 Singles Energy            =      -0.0000000000000000 [Eh]
	 Same-Spin Energy          =      -0.4086571967615156 [Eh]
	 Opposite-Spin Energy      =      -1.3148250730988913 [Eh]
	 Correlation Energy        =      -1.7234822698604069 [Eh]
	 Total Energy              =    -385.4792228966393850 [Eh]

	 ================> DF-SCS-MP2 Energies <==================
	-----------------------------------------------------------
	 SCS Same-Spin Scale       =       0.3333333333333333 [-]
	 SCS Opposite-Spin Scale   =       1.2000000000000000 [-]
	 SCS Same-Spin Energy      =      -0.1362190655871718 [Eh]
	 SCS Opposite-Spin Energy  =      -1.5777900877186695 [Eh]
	 SCS Correlation Energy    =      -1.7140091533058412 [Eh]
	 SCS Total Energy          =    -385.4697497800847827 [Eh]
	-----------------------------------------------------------

  Dipole Moment: [D]
     X:     0.7892      Y:     1.0441      Z:    -0.0247     Total:     1.3090

*** Psi4 exiting successfully. Buy a developer a beer!
