                               Psi4 1.3.2 release

  ==> Input File <==

--------------------------------------------------------------------------
#psi4
#
memory 32 gb

molecule  {
0 1
  O        1.2764910    -0.5580180    -0.0000140
  C       -0.0810673    -0.3571310    -0.0000103
  C        2.2283480     0.5091050    -0.0000050
  C       -0.5417410     1.0945740     0.0000030
  C       -0.9442280    -1.2979990     0.0000050
  C        3.5986500    -0.1324730     0.0000120
  C       -1.9250240     1.3079840    -0.0000030
  C       -2.3159710    -1.0695280    -0.0000020
  C       -2.8161410     0.2373500     0.0000110
  H        2.0858520     1.1373040    -0.8891130
  H        2.0858350     1.1373010     0.8891040
  H        0.1282520     1.9474600    -0.0000130
  H       -0.5338010    -2.3041010    -0.0000080
  H        4.3764260     0.6364270     0.0000070
  H        3.7225630    -0.7572470     0.8867960
  H        3.7225780    -0.7572730    -0.8867510
  H       -2.3006170     2.3287260     0.0000070
  H       -2.9984970    -1.9161460     0.0000120
  H       -3.8880810     0.4155830     0.0000010
units angstrom
no_reorient  #important for SAPT in psi4, default
symmetry c1  #important for SAPT in psi4, default
}

set PROPERTIES_ORIGIN ["COM"]
properties('MP2/aug-cc-pvtz', properties = ['dipole'])
--------------------------------------------------------------------------

    Molecular point group: c1
  Charge       = 0
  Multiplicity = 1
  Basis Set: AUG-CC-PVTZ
    Blend: AUG-CC-PVTZ
  Basis Set: (AUG-CC-PVTZ AUX)
    Blend: AUG-CC-PVTZ-JKFIT

    Orbital Energies [Eh]
    ---------------------

    Doubly Occupied:

       1A    -20.574473     2A    -11.297496     3A    -11.289633
       4A    -11.242065     5A    -11.241299     6A    -11.238565
       7A    -11.226908     8A    -11.221568     9A    -11.210620
      10A     -1.396440    11A     -1.148990    12A     -1.051033
      13A     -1.015932    14A     -0.982953    15A     -0.870181
      16A     -0.821432    17A     -0.801491    18A     -0.721391
      19A     -0.670192    20A     -0.666347    21A     -0.643151
      22A     -0.616151    23A     -0.585886    24A     -0.561047
      25A     -0.557711    26A     -0.546737    27A     -0.515743
      28A     -0.510115    29A     -0.503816    30A     -0.460828
      31A     -0.459371    32A     -0.345347    33A     -0.308217

  @DF-RHF Final Energy:  -383.73075931180193

   => Energetics <=

    Nuclear Repulsion Energy =            418.6665792321234676
    One-Electron Energy =               -1350.1884200058789247
    Two-Electron Energy =                 547.7910814619535813
    Total Energy =                       -383.7307593118018758
  Basis Set: (AUG-CC-PVTZ AUX)
    Blend: AUG-CC-PVTZ-RI
    Molecular point group: c1

    Geometry (in Angstrom), charge = 0, multiplicity = 1:

       Center              X                  Y                   Z               Mass
    ------------   -----------------  -----------------  -----------------  -----------------
         O            1.331360822114    -0.529017237698    -0.000013564195    15.994914619570
         C           -0.026197477886    -0.328130237698    -0.000009864195    12.000000000000
         C            2.283217822114     0.538105762302    -0.000004564195    12.000000000000
         C           -0.486871177886     1.123574762302     0.000003435805    12.000000000000
         C           -0.889358177886    -1.268998237698     0.000005435805    12.000000000000
         C            3.653519822114    -0.103472237698     0.000012435805    12.000000000000
         C           -1.870154177886     1.336984762302    -0.000002564195    12.000000000000
         C           -2.261101177886    -1.040527237698    -0.000001564195    12.000000000000
         C           -2.761271177886     0.266350762302     0.000011435805    12.000000000000
         H            2.140721822114     1.166304762302    -0.889112564195     1.007825032230
         H            2.140704822114     1.166301762302     0.889104435805     1.007825032230
         H            0.183121822114     1.976460762302    -0.000012564195     1.007825032230
         H           -0.478931177886    -2.275100237698    -0.000007564195     1.007825032230
         H            4.431295822114     0.665427762302     0.000007435805     1.007825032230
         H            3.777432822114    -0.728246237698     0.886796435805     1.007825032230
         H            3.777447822114    -0.728272237698    -0.886750564195     1.007825032230
         H           -2.245747177886     2.357726762302     0.000007435805     1.007825032230
         H           -2.943627177886    -1.887145237698     0.000012435805     1.007825032230
         H           -3.833211177886     0.444583762302     0.000001435805     1.007825032230

  Basis Set: AUG-CC-PVTZ
    Blend: AUG-CC-PVTZ
  Basis Set: (AUG-CC-PVTZ AUX)
    Blend: AUG-CC-PVTZ-JKFIT
	 Reference Energy          =    -383.7307593118019327 [Eh]
	 Singles Energy            =      -0.0000000000000000 [Eh]
	 Same-Spin Energy          =      -0.4079258757828447 [Eh]
	 Opposite-Spin Energy      =      -1.3145315784604243 [Eh]
	 Correlation Energy        =      -1.7224574542432691 [Eh]
	 Total Energy              =    -385.4532167660452160 [Eh]

	 ================> DF-SCS-MP2 Energies <==================
	-----------------------------------------------------------
	 SCS Same-Spin Scale       =       0.3333333333333333 [-]
	 SCS Opposite-Spin Scale   =       1.2000000000000000 [-]
	 SCS Same-Spin Energy      =      -0.1359752919276149 [Eh]
	 SCS Opposite-Spin Energy  =      -1.5774378941525091 [Eh]
	 SCS Correlation Energy    =      -1.7134131860801241 [Eh]
	 SCS Total Energy          =    -385.4441724978820503 [Eh]
	-----------------------------------------------------------

  Dipole Moment: [D]
     X:     0.8335      Y:     1.0016      Z:    -0.0000     Total:     1.3030

*** Psi4 exiting successfully. Buy a developer a beer!
