                               Psi4 1.3.2 release

  ==> Input File <==

--------------------------------------------------------------------------
#psi4
#
memory 32 gb

molecule  {
0 1
  O        1.2494182    -0.6499006    -0.0000147
  C       -0.0526320    -0.2163280    -0.0000090
  C        2.2283480     0.5091050    -0.0000050
  C       -0.5417410     1.0945740     0.0000030
  C       -0.9442280    -1.2979990     0.0000050
  C        3.5986500    -0.1324730     0.0000120
  C       -1.9250240     1.3079840    -0.0000030
  C       -2.3159710    -1.0695280    -0.0000020
  C       -2.8161410     0.2373500     0.0000110
  H        2.0858520     1.1373040    -0.8891130
  H        2.0858350     1.1373010     0.8891040
  H        0.1282520     1.9474600    -0.0000130
  H       -0.5338010    -2.3041010    -0.0000080
  H        4.3764260     0.6364270     0.0000070
  H        3.7225630    -0.7572470     0.8867960
  H        3.7225780    -0.7572730    -0.8867510
  H       -2.3006170     2.3287260     0.0000070
  H       -2.9984970    -1.9161460     0.0000120
  H       -3.8880810     0.4155830     0.0000010
units angstrom
no_reorient  #important for SAPT in psi4, default
symmetry c1  #important for SAPT in psi4, default
}

set PROPERTIES_ORIGIN ["COM"]
properties('MP2/aug-cc-pvtz', properties = ['dipole'])
--------------------------------------------------------------------------

    Molecular point group: c1
  Charge       = 0
  Multiplicity = 1
  Basis Set: AUG-CC-PVTZ
    Blend: AUG-CC-PVTZ
  Basis Set: (AUG-CC-PVTZ AUX)
    Blend: AUG-CC-PVTZ-JKFIT

    Orbital Energies [Eh]
    ---------------------

    Doubly Occupied:

       1A    -20.584618     2A    -11.296340     3A    -11.295973
       4A    -11.238943     5A    -11.235574     6A    -11.231381
       7A    -11.224493     8A    -11.224062     9A    -11.221972
      10A     -1.384820    11A     -1.140494    12A     -1.042324
      13A     -1.012890    14A     -0.985187    15A     -0.866348
      16A     -0.818232    17A     -0.802092    18A     -0.713293
      19A     -0.660359    20A     -0.659667    21A     -0.644897
      22A     -0.611023    23A     -0.584390    24A     -0.562058
      25A     -0.558736    26A     -0.537158    27A     -0.517488
      28A     -0.505994    29A     -0.503515    30A     -0.479222
      31A     -0.466746    32A     -0.337144    33A     -0.308329

  @DF-RHF Final Energy:  -383.74622580535089

   => Energetics <=

    Nuclear Repulsion Energy =            417.4879441121134960
    One-Electron Energy =               -1347.9568142207529036
    Two-Electron Energy =                 546.7226443032885754
    Total Energy =                       -383.7462258053508322
  Basis Set: (AUG-CC-PVTZ AUX)
    Blend: AUG-CC-PVTZ-RI
    Molecular point group: c1

    Geometry (in Angstrom), charge = 0, multiplicity = 1:

       Center              X                  Y                   Z               Mass
    ------------   -----------------  -----------------  -----------------  -----------------
         O            1.305040059014    -0.622701885331    -0.000014300268    15.994914619570
         C            0.002989859014    -0.189129285331    -0.000008600268    12.000000000000
         C            2.283969859014     0.536303714669    -0.000004600268    12.000000000000
         C           -0.486119140986     1.121772714669     0.000003399732    12.000000000000
         C           -0.888606140986    -1.270800285331     0.000005399732    12.000000000000
         C            3.654271859014    -0.105274285331     0.000012399732    12.000000000000
         C           -1.869402140986     1.335182714669    -0.000002600268    12.000000000000
         C           -2.260349140986    -1.042329285331    -0.000001600268    12.000000000000
         C           -2.760519140986     0.264548714669     0.000011399732    12.000000000000
         H            2.141473859014     1.164502714669    -0.889112600268     1.007825032230
         H            2.141456859014     1.164499714669     0.889104399732     1.007825032230
         H            0.183873859014     1.974658714669    -0.000012600268     1.007825032230
         H           -0.478179140986    -2.276902285331    -0.000007600268     1.007825032230
         H            4.432047859014     0.663625714669     0.000007399732     1.007825032230
         H            3.778184859014    -0.730048285331     0.886796399732     1.007825032230
         H            3.778199859014    -0.730074285331    -0.886750600268     1.007825032230
         H           -2.244995140986     2.355924714669     0.000007399732     1.007825032230
         H           -2.942875140986    -1.888947285331     0.000012399732     1.007825032230
         H           -3.832459140986     0.442781714669     0.000001399732     1.007825032230

  Basis Set: AUG-CC-PVTZ
    Blend: AUG-CC-PVTZ
  Basis Set: (AUG-CC-PVTZ AUX)
    Blend: AUG-CC-PVTZ-JKFIT
	 Reference Energy          =    -383.7462258053508890 [Eh]
	 Singles Energy            =      -0.0000000000000000 [Eh]
	 Same-Spin Energy          =      -0.4093872008964119 [Eh]
	 Opposite-Spin Energy      =      -1.3175673601144111 [Eh]
	 Correlation Energy        =      -1.7269545610108230 [Eh]
	 Total Energy              =    -385.4731803663617029 [Eh]

	 ================> DF-SCS-MP2 Energies <==================
	-----------------------------------------------------------
	 SCS Same-Spin Scale       =       0.3333333333333333 [-]
	 SCS Opposite-Spin Scale   =       1.2000000000000000 [-]
	 SCS Same-Spin Energy      =      -0.1364624002988040 [Eh]
	 SCS Opposite-Spin Energy  =      -1.5810808321372933 [Eh]
	 SCS Correlation Energy    =      -1.7175432324360973 [Eh]
	 SCS Total Energy          =    -385.4637690377869603 [Eh]
	-----------------------------------------------------------

  Dipole Moment: [D]
     X:     1.1406      Y:     1.2143      Z:     0.0000     Total:     1.6660

*** Psi4 exiting successfully. Buy a developer a beer!
