                               Psi4 1.3.2 release

  ==> Input File <==

--------------------------------------------------------------------------
#psi4
#
memory 32 gb

molecule  {
0 1
  O        1.2671733    -0.5494148    -0.0215088
  C       -0.0526320    -0.2163280    -0.0000090
  C        2.2283480     0.5091050    -0.0000050
  C       -0.5417410     1.0945740     0.0000030
  C       -0.9442280    -1.2979990     0.0000050
  C        3.5986500    -0.1324730     0.0000120
  C       -1.9250240     1.3079840    -0.0000030
  C       -2.3159710    -1.0695280    -0.0000020
  C       -2.8161410     0.2373500     0.0000110
  H        2.0858520     1.1373040    -0.8891130
  H        2.0858350     1.1373010     0.8891040
  H        0.1282520     1.9474600    -0.0000130
  H       -0.5338010    -2.3041010    -0.0000080
  H        4.3764260     0.6364270     0.0000070
  H        3.7225630    -0.7572470     0.8867960
  H        3.7225780    -0.7572730    -0.8867510
  H       -2.3006170     2.3287260     0.0000070
  H       -2.9984970    -1.9161460     0.0000120
  H       -3.8880810     0.4155830     0.0000010
units angstrom
no_reorient  #important for SAPT in psi4, default
symmetry c1  #important for SAPT in psi4, default
}

set PROPERTIES_ORIGIN ["COM"]
properties('MP2/aug-cc-pvtz', properties = ['dipole'])
--------------------------------------------------------------------------

    Molecular point group: c1
  Charge       = 0
  Multiplicity = 1
  Basis Set: AUG-CC-PVTZ
    Blend: AUG-CC-PVTZ
  Basis Set: (AUG-CC-PVTZ AUX)
    Blend: AUG-CC-PVTZ-JKFIT

    Orbital Energies [Eh]
    ---------------------

    Doubly Occupied:

       1A    -20.581492     2A    -11.299328     3A    -11.288395
       4A    -11.239436     5A    -11.238063     6A    -11.230325
       7A    -11.225719     8A    -11.225240     9A    -11.222407
      10A     -1.407024    11A     -1.143701    12A     -1.045015
      13A     -1.014404    14A     -0.985130    15A     -0.870706
      16A     -0.823656    17A     -0.799947    18A     -0.722236
      19A     -0.669824    20A     -0.665323    21A     -0.649154
      22A     -0.613711    23A     -0.585794    24A     -0.562596
      25A     -0.560083    26A     -0.546526    27A     -0.513978
      28A     -0.506645    29A     -0.501617    30A     -0.477849
      31A     -0.462191    32A     -0.338277    33A     -0.309575

  @DF-RHF Final Energy:  -383.75711321912763

   => Energetics <=

    Nuclear Repulsion Energy =            419.0309968091444262
    One-Electron Energy =               -1350.9254853667002862
    Two-Electron Energy =                 548.1373753384282281
    Total Energy =                       -383.7571132191276320
  Basis Set: (AUG-CC-PVTZ AUX)
    Blend: AUG-CC-PVTZ-RI
    Molecular point group: c1

    Geometry (in Angstrom), charge = 0, multiplicity = 1:

       Center              X                  Y                   Z               Mass
    ------------   -----------------  -----------------  -----------------  -----------------
         O            1.320468756576    -0.535382466266    -0.018692086834    15.994914619570
         C            0.000663456576    -0.202295666266     0.002807713166    12.000000000000
         C            2.281643456576     0.523137333734     0.002811713166    12.000000000000
         C           -0.488445543424     1.108606333734     0.002819713166    12.000000000000
         C           -0.890932543424    -1.283966666266     0.002821713166    12.000000000000
         C            3.651945456576    -0.118440666266     0.002828713166    12.000000000000
         C           -1.871728543424     1.322016333734     0.002813713166    12.000000000000
         C           -2.262675543424    -1.055495666266     0.002814713166    12.000000000000
         C           -2.762845543424     0.251382333734     0.002827713166    12.000000000000
         H            2.139147456576     1.151336333734    -0.886296286834     1.007825032230
         H            2.139130456576     1.151333333734     0.891920713166     1.007825032230
         H            0.181547456576     1.961492333734     0.002803713166     1.007825032230
         H           -0.480505543424    -2.290068666266     0.002808713166     1.007825032230
         H            4.429721456576     0.650459333734     0.002823713166     1.007825032230
         H            3.775858456576    -0.743214666266     0.889612713166     1.007825032230
         H            3.775873456576    -0.743240666266    -0.883934286834     1.007825032230
         H           -2.247321543424     2.342758333734     0.002823713166     1.007825032230
         H           -2.945201543424    -1.902113666266     0.002828713166     1.007825032230
         H           -3.834785543424     0.429615333734     0.002817713166     1.007825032230

  Basis Set: AUG-CC-PVTZ
    Blend: AUG-CC-PVTZ
  Basis Set: (AUG-CC-PVTZ AUX)
    Blend: AUG-CC-PVTZ-JKFIT
	 Reference Energy          =    -383.7571132191276320 [Eh]
	 Singles Energy            =      -0.0000000000000000 [Eh]
	 Same-Spin Energy          =      -0.4084787552184516 [Eh]
	 Opposite-Spin Energy      =      -1.3140790972131242 [Eh]
	 Correlation Energy        =      -1.7225578524315759 [Eh]
	 Total Energy              =    -385.4796710715592098 [Eh]

	 ================> DF-SCS-MP2 Energies <==================
	-----------------------------------------------------------
	 SCS Same-Spin Scale       =       0.3333333333333333 [-]
	 SCS Opposite-Spin Scale   =       1.2000000000000000 [-]
	 SCS Same-Spin Energy      =      -0.1361595850728172 [Eh]
	 SCS Opposite-Spin Energy  =      -1.5768949166557491 [Eh]
	 SCS Correlation Energy    =      -1.7130545017285663 [Eh]
	 SCS Total Energy          =    -385.4701677208561819 [Eh]
	-----------------------------------------------------------

  Dipole Moment: [D]
     X:     0.9689      Y:     1.0148      Z:     0.0242     Total:     1.4033

*** Psi4 exiting successfully. Buy a developer a beer!
