                               Psi4 1.3.2 release

  ==> Input File <==

--------------------------------------------------------------------------
#psi4
#
memory 32 gb

molecule  {
0 1
  O        1.3383803    -0.6027264     0.1287258
  C       -0.0526320    -0.2163280    -0.0000090
  C        2.2283480     0.5091050    -0.0000050
  C       -0.5417410     1.0945740     0.0000030
  C       -0.9442280    -1.2979990     0.0000050
  C        3.5986500    -0.1324730     0.0000120
  C       -1.9250240     1.3079840    -0.0000030
  C       -2.3159710    -1.0695280    -0.0000020
  C       -2.8161410     0.2373500     0.0000110
  H        2.0858520     1.1373040    -0.8891130
  H        2.0858350     1.1373010     0.8891040
  H        0.1282520     1.9474600    -0.0000130
  H       -0.5338010    -2.3041010    -0.0000080
  H        4.3764260     0.6364270     0.0000070
  H        3.7225630    -0.7572470     0.8867960
  H        3.7225780    -0.7572730    -0.8867510
  H       -2.3006170     2.3287260     0.0000070
  H       -2.9984970    -1.9161460     0.0000120
  H       -3.8880810     0.4155830     0.0000010
units angstrom
no_reorient  #important for SAPT in psi4, default
symmetry c1  #important for SAPT in psi4, default
}

set PROPERTIES_ORIGIN ["COM"]
properties('MP2/aug-cc-pvtz', properties = ['dipole'])
--------------------------------------------------------------------------

    Molecular point group: c1
  Charge       = 0
  Multiplicity = 1
  Basis Set: AUG-CC-PVTZ
    Blend: AUG-CC-PVTZ
  Basis Set: (AUG-CC-PVTZ AUX)
    Blend: AUG-CC-PVTZ-JKFIT

    Orbital Energies [Eh]
    ---------------------

    Doubly Occupied:

       1A    -20.581077     2A    -11.303356     3A    -11.281560
       4A    -11.243202     5A    -11.241081     6A    -11.238607
       7A    -11.232033     8A    -11.231926     9A    -11.215958
      10A     -1.378494    11A     -1.148492    12A     -1.035671
      13A     -1.018305    14A     -0.987596    15A     -0.861247
      16A     -0.822017    17A     -0.804623    18A     -0.716374
      19A     -0.663595    20A     -0.659187    21A     -0.643780
      22A     -0.616371    23A     -0.589742    24A     -0.561000
      25A     -0.549993    26A     -0.539718    27A     -0.516547
      28A     -0.501919    29A     -0.494669    30A     -0.485878
      31A     -0.458368    32A     -0.341660    33A     -0.319883

  @DF-RHF Final Energy:  -383.74535976664419

   => Energetics <=

    Nuclear Repulsion Energy =            417.0946102513019582
    One-Electron Energy =               -1347.1120796173324834
    Two-Electron Energy =                 546.2721095993863401
    Total Energy =                       -383.7453597666442420
  Basis Set: (AUG-CC-PVTZ AUX)
    Blend: AUG-CC-PVTZ-RI
    Molecular point group: c1

    Geometry (in Angstrom), charge = 0, multiplicity = 1:

       Center              X                  Y                   Z               Mass
    ------------   -----------------  -----------------  -----------------  -----------------
         O            1.382345697133    -0.581708792388     0.111857682343    15.994914619570
         C           -0.008666602867    -0.195310392388    -0.016877117657    12.000000000000
         C            2.272313397133     0.530122607612    -0.016873117657    12.000000000000
         C           -0.497775602867     1.115591607612    -0.016865117657    12.000000000000
         C           -0.900262602867    -1.276981392388    -0.016863117657    12.000000000000
         C            3.642615397133    -0.111455392388    -0.016856117657    12.000000000000
         C           -1.881058602867     1.329001607612    -0.016871117657    12.000000000000
         C           -2.272005602867    -1.048510392388    -0.016870117657    12.000000000000
         C           -2.772175602867     0.258367607612    -0.016857117657    12.000000000000
         H            2.129817397133     1.158321607612    -0.905981117657     1.007825032230
         H            2.129800397133     1.158318607612     0.872235882343     1.007825032230
         H            0.172217397133     1.968477607612    -0.016881117657     1.007825032230
         H           -0.489835602867    -2.283083392388    -0.016876117657     1.007825032230
         H            4.420391397133     0.657444607612    -0.016861117657     1.007825032230
         H            3.766528397133    -0.736229392388     0.869927882343     1.007825032230
         H            3.766543397133    -0.736255392388    -0.903619117657     1.007825032230
         H           -2.256651602867     2.349743607612    -0.016861117657     1.007825032230
         H           -2.954531602867    -1.895128392388    -0.016856117657     1.007825032230
         H           -3.844115602867     0.436600607612    -0.016867117657     1.007825032230

  Basis Set: AUG-CC-PVTZ
    Blend: AUG-CC-PVTZ
  Basis Set: (AUG-CC-PVTZ AUX)
    Blend: AUG-CC-PVTZ-JKFIT
	 Reference Energy          =    -383.7453597666441851 [Eh]
	 Singles Energy            =      -0.0000000000000000 [Eh]
	 Same-Spin Energy          =      -0.4093392528020082 [Eh]
	 Opposite-Spin Energy      =      -1.3173295364669075 [Eh]
	 Correlation Energy        =      -1.7266687892689156 [Eh]
	 Total Energy              =    -385.4720285559130843 [Eh]

	 ================> DF-SCS-MP2 Energies <==================
	-----------------------------------------------------------
	 SCS Same-Spin Scale       =       0.3333333333333333 [-]
	 SCS Opposite-Spin Scale   =       1.2000000000000000 [-]
	 SCS Same-Spin Energy      =      -0.1364464176006694 [Eh]
	 SCS Opposite-Spin Energy  =      -1.5807954437602889 [Eh]
	 SCS Correlation Energy    =      -1.7172418613609584 [Eh]
	 SCS Total Energy          =    -385.4626016280051317 [Eh]
	-----------------------------------------------------------

  Dipole Moment: [D]
     X:     0.3053      Y:     1.1129      Z:    -0.1550     Total:     1.1644

*** Psi4 exiting successfully. Buy a developer a beer!
