                               Psi4 1.3.2 release

  ==> Input File <==

--------------------------------------------------------------------------
#psi4
#
memory 32 gb

molecule  {
0 1
  O        1.2764910    -0.5580180    -0.0000140
  C       -0.0096346    -0.0792686    -0.0000077
  C        2.2283480     0.5091050    -0.0000050
  C       -0.5417410     1.0945740     0.0000030
  C       -0.9442280    -1.2979990     0.0000050
  C        3.5986500    -0.1324730     0.0000120
  C       -1.9250240     1.3079840    -0.0000030
  C       -2.3159710    -1.0695280    -0.0000020
  C       -2.8161410     0.2373500     0.0000110
  H        2.0858520     1.1373040    -0.8891130
  H        2.0858350     1.1373010     0.8891040
  H        0.1282520     1.9474600    -0.0000130
  H       -0.5338010    -2.3041010    -0.0000080
  H        4.3764260     0.6364270     0.0000070
  H        3.7225630    -0.7572470     0.8867960
  H        3.7225780    -0.7572730    -0.8867510
  H       -2.3006170     2.3287260     0.0000070
  H       -2.9984970    -1.9161460     0.0000120
  H       -3.8880810     0.4155830     0.0000010
units angstrom
no_reorient  #important for SAPT in psi4, default
symmetry c1  #important for SAPT in psi4, default
}

set PROPERTIES_ORIGIN ["COM"]
properties('MP2/aug-cc-pvtz', properties = ['dipole'])
--------------------------------------------------------------------------

    Molecular point group: c1
  Charge       = 0
  Multiplicity = 1
  Basis Set: AUG-CC-PVTZ
    Blend: AUG-CC-PVTZ
  Basis Set: (AUG-CC-PVTZ AUX)
    Blend: AUG-CC-PVTZ-JKFIT

    Orbital Energies [Eh]
    ---------------------

    Doubly Occupied:

       1A    -20.588085     2A    -11.297197     3A    -11.286151
       4A    -11.239794     5A    -11.238140     6A    -11.234242
       7A    -11.227757     8A    -11.221520     9A    -11.218621
      10A     -1.409132    11A     -1.145013    12A     -1.041134
      13A     -1.025023    14A     -0.980045    15A     -0.868377
      16A     -0.831526    17A     -0.789669    18A     -0.721682
      19A     -0.671808    20A     -0.671774    21A     -0.645448
      22A     -0.613581    23A     -0.578253    24A     -0.564568
      25A     -0.562500    26A     -0.543968    27A     -0.517855
      28A     -0.503906    29A     -0.500960    30A     -0.467319
      31A     -0.463305    32A     -0.350139    33A     -0.305131

  @DF-RHF Final Energy:  -383.72980966815931

   => Energetics <=

    Nuclear Repulsion Energy =            419.0212774702513343
    One-Electron Energy =               -1350.8549275312118425
    Two-Electron Energy =                 548.1038403928012031
    Total Energy =                       -383.7298096681593051
  Basis Set: (AUG-CC-PVTZ AUX)
    Blend: AUG-CC-PVTZ-RI
    Molecular point group: c1

    Geometry (in Angstrom), charge = 0, multiplicity = 1:

       Center              X                  Y                   Z               Mass
    ------------   -----------------  -----------------  -----------------  -----------------
         O            1.324338866057    -0.556331584808    -0.000013819779    15.994914619570
         C            0.038213266057    -0.077582184808    -0.000007519779    12.000000000000
         C            2.276195866057     0.510791415192    -0.000004819779    12.000000000000
         C           -0.493893133943     1.096260415192     0.000003180221    12.000000000000
         C           -0.896380133943    -1.296312584808     0.000005180221    12.000000000000
         C            3.646497866057    -0.130786584808     0.000012180221    12.000000000000
         C           -1.877176133943     1.309670415192    -0.000002819779    12.000000000000
         C           -2.268123133943    -1.067841584808    -0.000001819779    12.000000000000
         C           -2.768293133943     0.239036415192     0.000011180221    12.000000000000
         H            2.133699866057     1.138990415192    -0.889112819779     1.007825032230
         H            2.133682866057     1.138987415192     0.889104180221     1.007825032230
         H            0.176099866057     1.949146415192    -0.000012819779     1.007825032230
         H           -0.485953133943    -2.302414584808    -0.000007819779     1.007825032230
         H            4.424273866057     0.638113415192     0.000007180221     1.007825032230
         H            3.770410866057    -0.755560584808     0.886796180221     1.007825032230
         H            3.770425866057    -0.755586584808    -0.886750819779     1.007825032230
         H           -2.252769133943     2.330412415192     0.000007180221     1.007825032230
         H           -2.950649133943    -1.914459584808     0.000012180221     1.007825032230
         H           -3.840233133943     0.417269415192     0.000001180221     1.007825032230

  Basis Set: AUG-CC-PVTZ
    Blend: AUG-CC-PVTZ
  Basis Set: (AUG-CC-PVTZ AUX)
    Blend: AUG-CC-PVTZ-JKFIT
	 Reference Energy          =    -383.7298096681593051 [Eh]
	 Singles Energy            =      -0.0000000000000000 [Eh]
	 Same-Spin Energy          =      -0.4080375639346515 [Eh]
	 Opposite-Spin Energy      =      -1.3163824005210141 [Eh]
	 Correlation Energy        =      -1.7244199644556657 [Eh]
	 Total Energy              =    -385.4542296326149540 [Eh]

	 ================> DF-SCS-MP2 Energies <==================
	-----------------------------------------------------------
	 SCS Same-Spin Scale       =       0.3333333333333333 [-]
	 SCS Opposite-Spin Scale   =       1.2000000000000000 [-]
	 SCS Same-Spin Energy      =      -0.1360125213115505 [Eh]
	 SCS Opposite-Spin Energy  =      -1.5796588806252168 [Eh]
	 SCS Correlation Energy    =      -1.7156714019367674 [Eh]
	 SCS Total Energy          =    -385.4454810700960934 [Eh]
	-----------------------------------------------------------

  Dipole Moment: [D]
     X:     0.9268      Y:     1.0637      Z:    -0.0000     Total:     1.4108

*** Psi4 exiting successfully. Buy a developer a beer!
