                               Psi4 1.3.2 release

  ==> Input File <==

--------------------------------------------------------------------------
#psi4
#
memory 32 gb

molecule  {
0 1
  O        1.2334936    -0.6950774    -0.0000151
  C       -0.0526320    -0.2163280    -0.0000090
  C        2.2283480     0.5091050    -0.0000050
  C       -0.5417410     1.0945740     0.0000030
  C       -0.9442280    -1.2979990     0.0000050
  C        3.5986500    -0.1324730     0.0000120
  C       -1.9250240     1.3079840    -0.0000030
  C       -2.3159710    -1.0695280    -0.0000020
  C       -2.8161410     0.2373500     0.0000110
  H        2.0858520     1.1373040    -0.8891130
  H        2.0858350     1.1373010     0.8891040
  H        0.1282520     1.9474600    -0.0000130
  H       -0.5338010    -2.3041010    -0.0000080
  H        4.3764260     0.6364270     0.0000070
  H        3.7225630    -0.7572470     0.8867960
  H        3.7225780    -0.7572730    -0.8867510
  H       -2.3006170     2.3287260     0.0000070
  H       -2.9984970    -1.9161460     0.0000120
  H       -3.8880810     0.4155830     0.0000010
units angstrom
no_reorient  #important for SAPT in psi4, default
symmetry c1  #important for SAPT in psi4, default
}

set PROPERTIES_ORIGIN ["COM"]
properties('MP2/aug-cc-pvtz', properties = ['dipole'])
--------------------------------------------------------------------------

    Molecular point group: c1
  Charge       = 0
  Multiplicity = 1
  Basis Set: AUG-CC-PVTZ
    Blend: AUG-CC-PVTZ
  Basis Set: (AUG-CC-PVTZ AUX)
    Blend: AUG-CC-PVTZ-JKFIT

    Orbital Energies [Eh]
    ---------------------

    Doubly Occupied:

       1A    -20.585538     2A    -11.300411     3A    -11.294890
       4A    -11.238416     5A    -11.234106     6A    -11.231341
       7A    -11.226052     8A    -11.223053     9A    -11.219778
      10A     -1.377175    11A     -1.138695    12A     -1.042286
      13A     -1.011916    14A     -0.984725    15A     -0.865557
      16A     -0.816332    17A     -0.802395    18A     -0.709508
      19A     -0.657386    20A     -0.656917    21A     -0.643401
      22A     -0.609359    23A     -0.583528    24A     -0.562533
      25A     -0.559838    26A     -0.532090    27A     -0.520706
      28A     -0.505365    29A     -0.505250    30A     -0.476107
      31A     -0.467822    32A     -0.336374    33A     -0.306907

  @DF-RHF Final Energy:  -383.73710234764508

   => Energetics <=

    Nuclear Repulsion Energy =            416.8905376566841028
    One-Electron Energy =               -1346.8037646826740001
    Two-Electron Energy =                 546.1761246783448769
    Total Energy =                       -383.7371023476450773
  Basis Set: (AUG-CC-PVTZ AUX)
    Blend: AUG-CC-PVTZ-RI
    Molecular point group: c1

    Geometry (in Angstrom), charge = 0, multiplicity = 1:

       Center              X                  Y                   Z               Mass
    ------------   -----------------  -----------------  -----------------  -----------------
         O            1.291202016019    -0.661959292161    -0.000014647857    15.994914619570
         C            0.005076416019    -0.183209892161    -0.000008547857    12.000000000000
         C            2.286056416019     0.542223107839    -0.000004547857    12.000000000000
         C           -0.484032583981     1.127692107839     0.000003452143    12.000000000000
         C           -0.886519583981    -1.264880892161     0.000005452143    12.000000000000
         C            3.656358416019    -0.099354892161     0.000012452143    12.000000000000
         C           -1.867315583981     1.341102107839    -0.000002547857    12.000000000000
         C           -2.258262583981    -1.036409892161    -0.000001547857    12.000000000000
         C           -2.758432583981     0.270468107839     0.000011452143    12.000000000000
         H            2.143560416019     1.170422107839    -0.889112547857     1.007825032230
         H            2.143543416019     1.170419107839     0.889104452143     1.007825032230
         H            0.185960416019     1.980578107839    -0.000012547857     1.007825032230
         H           -0.476092583981    -2.270982892161    -0.000007547857     1.007825032230
         H            4.434134416019     0.669545107839     0.000007452143     1.007825032230
         H            3.780271416019    -0.724128892161     0.886796452143     1.007825032230
         H            3.780286416019    -0.724154892161    -0.886750547857     1.007825032230
         H           -2.242908583981     2.361844107839     0.000007452143     1.007825032230
         H           -2.940788583981    -1.883027892161     0.000012452143     1.007825032230
         H           -3.830372583981     0.448701107839     0.000001452143     1.007825032230

  Basis Set: AUG-CC-PVTZ
    Blend: AUG-CC-PVTZ
  Basis Set: (AUG-CC-PVTZ AUX)
    Blend: AUG-CC-PVTZ-JKFIT
	 Reference Energy          =    -383.7371023476450773 [Eh]
	 Singles Energy            =      -0.0000000000000000 [Eh]
	 Same-Spin Energy          =      -0.4099569354297422 [Eh]
	 Opposite-Spin Energy      =      -1.3194500317422668 [Eh]
	 Correlation Energy        =      -1.7294069671720089 [Eh]
	 Total Energy              =    -385.4665093148170740 [Eh]

	 ================> DF-SCS-MP2 Energies <==================
	-----------------------------------------------------------
	 SCS Same-Spin Scale       =       0.3333333333333333 [-]
	 SCS Opposite-Spin Scale   =       1.2000000000000000 [-]
	 SCS Same-Spin Energy      =      -0.1366523118099141 [Eh]
	 SCS Opposite-Spin Energy  =      -1.5833400380907201 [Eh]
	 SCS Correlation Energy    =      -1.7199923499006342 [Eh]
	 SCS Total Energy          =    -385.4570946975456991 [Eh]
	-----------------------------------------------------------

  Dipole Moment: [D]
     X:     1.2628      Y:     1.2941      Z:     0.0000     Total:     1.8081

*** Psi4 exiting successfully. Buy a developer a beer!
