                               Psi4 1.3.2 release

  ==> Input File <==

--------------------------------------------------------------------------
#psi4
#
memory 32 gb

molecule  {
0 1
  O        1.2637565    -0.6041956    -0.0000144
  C       -0.0526320    -0.2163280    -0.0000090
  C        2.2283480     0.5091050    -0.0000050
  C       -0.5417410     1.0945740     0.0000030
  C       -0.9442280    -1.2979990     0.0000050
  C        3.5986500    -0.1324730     0.0000120
  C       -1.9250240     1.3079840    -0.0000030
  C       -2.3159710    -1.0695280    -0.0000020
  C       -2.8161410     0.2373500     0.0000110
  H        2.0858520     1.1373040    -0.8891130
  H        2.0858350     1.1373010     0.8891040
  H        0.1282520     1.9474600    -0.0000130
  H       -0.5338010    -2.3041010    -0.0000080
  H        4.3764260     0.6364270     0.0000070
  H        3.7225630    -0.7572470     0.8867960
  H        3.7225780    -0.7572730    -0.8867510
  H       -2.3006170     2.3287260     0.0000070
  H       -2.9984970    -1.9161460     0.0000120
  H       -3.8880810     0.4155830     0.0000010
units angstrom
no_reorient  #important for SAPT in psi4, default
symmetry c1  #important for SAPT in psi4, default
}

set PROPERTIES_ORIGIN ["COM"]
properties('MP2/aug-cc-pvtz', properties = ['dipole'])
--------------------------------------------------------------------------

    Molecular point group: c1
  Charge       = 0
  Multiplicity = 1
  Basis Set: AUG-CC-PVTZ
    Blend: AUG-CC-PVTZ
  Basis Set: (AUG-CC-PVTZ AUX)
    Blend: AUG-CC-PVTZ-JKFIT

    Orbital Energies [Eh]
    ---------------------

    Doubly Occupied:

       1A    -20.583257     2A    -11.297983     3A    -11.291641
       4A    -11.239450     5A    -11.237020     6A    -11.231421
       7A    -11.225089     8A    -11.224223     9A    -11.222993
      10A     -1.393426    11A     -1.142367    12A     -1.042796
      13A     -1.013890    14A     -0.985441    15A     -0.867577
      16A     -0.820611    17A     -0.801451    18A     -0.717285
      19A     -0.664087    20A     -0.662400    21A     -0.646545
      22A     -0.612595    23A     -0.585318    24A     -0.561481
      25A     -0.558530    26A     -0.542005    27A     -0.515176
      28A     -0.506019    29A     -0.502231    30A     -0.480320
      31A     -0.464872    32A     -0.337927    33A     -0.309676

  @DF-RHF Final Energy:  -383.75286553671674

   => Energetics <=

    Nuclear Repulsion Energy =            418.1173901217091498
    One-Electron Energy =               -1349.1663078112082985
    Two-Electron Energy =                 547.2960521527824085
    Total Energy =                       -383.7528655367167403
  Basis Set: (AUG-CC-PVTZ AUX)
    Blend: AUG-CC-PVTZ-RI
    Molecular point group: c1

    Geometry (in Angstrom), charge = 0, multiplicity = 1:

       Center              X                  Y                   Z               Mass
    ------------   -----------------  -----------------  -----------------  -----------------
         O            1.317499650582    -0.582985487110    -0.000014039576    15.994914619570
         C            0.001111150582    -0.195117887110    -0.000008639576    12.000000000000
         C            2.282091150582     0.530315112890    -0.000004639576    12.000000000000
         C           -0.487997849418     1.115784112890     0.000003360424    12.000000000000
         C           -0.890484849418    -1.276788887110     0.000005360424    12.000000000000
         C            3.652393150582    -0.111262887110     0.000012360424    12.000000000000
         C           -1.871280849418     1.329194112890    -0.000002639576    12.000000000000
         C           -2.262227849418    -1.048317887110    -0.000001639576    12.000000000000
         C           -2.762397849418     0.258560112890     0.000011360424    12.000000000000
         H            2.139595150582     1.158514112890    -0.889112639576     1.007825032230
         H            2.139578150582     1.158511112890     0.889104360424     1.007825032230
         H            0.181995150582     1.968670112890    -0.000012639576     1.007825032230
         H           -0.480057849418    -2.282890887110    -0.000007639576     1.007825032230
         H            4.430169150582     0.657637112890     0.000007360424     1.007825032230
         H            3.776306150582    -0.736036887110     0.886796360424     1.007825032230
         H            3.776321150582    -0.736062887110    -0.886750639576     1.007825032230
         H           -2.246873849418     2.349936112890     0.000007360424     1.007825032230
         H           -2.944753849418    -1.894935887110     0.000012360424     1.007825032230
         H           -3.834337849418     0.436793112890     0.000001360424     1.007825032230

  Basis Set: AUG-CC-PVTZ
    Blend: AUG-CC-PVTZ
  Basis Set: (AUG-CC-PVTZ AUX)
    Blend: AUG-CC-PVTZ-JKFIT
	 Reference Energy          =    -383.7528655367167403 [Eh]
	 Singles Energy            =      -0.0000000000000000 [Eh]
	 Same-Spin Energy          =      -0.4089195618195152 [Eh]
	 Opposite-Spin Energy      =      -1.3158894874497942 [Eh]
	 Correlation Energy        =      -1.7248090492693093 [Eh]
	 Total Energy              =    -385.4776745859860512 [Eh]

	 ================> DF-SCS-MP2 Energies <==================
	-----------------------------------------------------------
	 SCS Same-Spin Scale       =       0.3333333333333333 [-]
	 SCS Opposite-Spin Scale   =       1.2000000000000000 [-]
	 SCS Same-Spin Energy      =      -0.1363065206065051 [Eh]
	 SCS Opposite-Spin Energy  =      -1.5790673849397530 [Eh]
	 SCS Correlation Energy    =      -1.7153739055462580 [Eh]
	 SCS Total Energy          =    -385.4682394422629841 [Eh]
	-----------------------------------------------------------

  Dipole Moment: [D]
     X:     1.0133      Y:     1.1261      Z:     0.0000     Total:     1.5149

*** Psi4 exiting successfully. Buy a developer a beer!
