                               Psi4 1.3.2 release

  ==> Input File <==

--------------------------------------------------------------------------
#psi4
#
memory 32 gb

molecule  {
0 1
  O        1.2764910    -0.5580180    -0.0000140
  C       -0.0526320    -0.2163280    -0.0000090
  C        2.3614787     0.6583572    -0.0000037
  C       -0.5417410     1.0945740     0.0000030
  C       -0.9442280    -1.2979990     0.0000050
  C        3.5986500    -0.1324730     0.0000120
  C       -1.9250240     1.3079840    -0.0000030
  C       -2.3159710    -1.0695280    -0.0000020
  C       -2.8161410     0.2373500     0.0000110
  H        2.0858520     1.1373040    -0.8891130
  H        2.0858350     1.1373010     0.8891040
  H        0.1282520     1.9474600    -0.0000130
  H       -0.5338010    -2.3041010    -0.0000080
  H        4.3764260     0.6364270     0.0000070
  H        3.7225630    -0.7572470     0.8867960
  H        3.7225780    -0.7572730    -0.8867510
  H       -2.3006170     2.3287260     0.0000070
  H       -2.9984970    -1.9161460     0.0000120
  H       -3.8880810     0.4155830     0.0000010
units angstrom
no_reorient  #important for SAPT in psi4, default
symmetry c1  #important for SAPT in psi4, default
}

set PROPERTIES_ORIGIN ["COM"]
properties('MP2/aug-cc-pvtz', properties = ['dipole'])
--------------------------------------------------------------------------

    Molecular point group: c1
  Charge       = 0
  Multiplicity = 1
  Basis Set: AUG-CC-PVTZ
    Blend: AUG-CC-PVTZ
  Basis Set: (AUG-CC-PVTZ AUX)
    Blend: AUG-CC-PVTZ-JKFIT

    Orbital Energies [Eh]
    ---------------------

    Doubly Occupied:

       1A    -20.559786     2A    -11.298796     3A    -11.289834
       4A    -11.234610     5A    -11.232444     6A    -11.230604
       7A    -11.223593     8A    -11.218391     9A    -11.217216
      10A     -1.350640    11A     -1.134585    12A     -1.058453
      13A     -1.008243    14A     -0.980927    15A     -0.872391
      16A     -0.817552    17A     -0.797307    18A     -0.700518
      19A     -0.679187    20A     -0.650803    21A     -0.634683
      22A     -0.607649    23A     -0.584219    24A     -0.572513
      25A     -0.555392    26A     -0.535858    27A     -0.521017
      28A     -0.511658    29A     -0.498073    30A     -0.461960
      31A     -0.459271    32A     -0.333030    33A     -0.299913

  @DF-RHF Final Energy:  -383.72645669928954

   => Energetics <=

    Nuclear Repulsion Energy =            415.8732366887467720
    One-Electron Energy =               -1344.9371587606251524
    Two-Electron Energy =                 545.3374653725887811
    Total Energy =                       -383.7264566992895425
  Basis Set: (AUG-CC-PVTZ AUX)
    Blend: AUG-CC-PVTZ-RI
    Molecular point group: c1

    Geometry (in Angstrom), charge = 0, multiplicity = 1:

       Center              X                  Y                   Z               Mass
    ------------   -----------------  -----------------  -----------------  -----------------
         O            1.315478609173    -0.557530157812    -0.000013819779    15.994914619570
         C           -0.013644390827    -0.215840157812    -0.000008819779    12.000000000000
         C            2.400466309173     0.658845042188    -0.000003519779    12.000000000000
         C           -0.502753390827     1.095061842188     0.000003180221    12.000000000000
         C           -0.905240390827    -1.297511157812     0.000005180221    12.000000000000
         C            3.637637609173    -0.131985157812     0.000012180221    12.000000000000
         C           -1.886036390827     1.308471842188    -0.000002819779    12.000000000000
         C           -2.276983390827    -1.069040157812    -0.000001819779    12.000000000000
         C           -2.777153390827     0.237837842188     0.000011180221    12.000000000000
         H            2.124839609173     1.137791842188    -0.889112819779     1.007825032230
         H            2.124822609173     1.137788842188     0.889104180221     1.007825032230
         H            0.167239609173     1.947947842188    -0.000012819779     1.007825032230
         H           -0.494813390827    -2.303613157812    -0.000007819779     1.007825032230
         H            4.415413609173     0.636914842188     0.000007180221     1.007825032230
         H            3.761550609173    -0.756759157812     0.886796180221     1.007825032230
         H            3.761565609173    -0.756785157812    -0.886750819779     1.007825032230
         H           -2.261629390827     2.329213842188     0.000007180221     1.007825032230
         H           -2.959509390827    -1.915658157812     0.000012180221     1.007825032230
         H           -3.849093390827     0.416070842188     0.000001180221     1.007825032230

  Basis Set: AUG-CC-PVTZ
    Blend: AUG-CC-PVTZ
  Basis Set: (AUG-CC-PVTZ AUX)
    Blend: AUG-CC-PVTZ-JKFIT
	 Reference Energy          =    -383.7264566992895425 [Eh]
	 Singles Energy            =      -0.0000000000000000 [Eh]
	 Same-Spin Energy          =      -0.4101031333629993 [Eh]
	 Opposite-Spin Energy      =      -1.3187983885588135 [Eh]
	 Correlation Energy        =      -1.7289015219218127 [Eh]
	 Total Energy              =    -385.4553582212113270 [Eh]

	 ================> DF-SCS-MP2 Energies <==================
	-----------------------------------------------------------
	 SCS Same-Spin Scale       =       0.3333333333333333 [-]
	 SCS Opposite-Spin Scale   =       1.2000000000000000 [-]
	 SCS Same-Spin Energy      =      -0.1367010444543331 [Eh]
	 SCS Opposite-Spin Energy  =      -1.5825580662705760 [Eh]
	 SCS Correlation Energy    =      -1.7192591107249091 [Eh]
	 SCS Total Energy          =    -385.4457158100144625 [Eh]
	-----------------------------------------------------------

  Dipole Moment: [D]
     X:     1.7510      Y:     1.3408      Z:     0.0000     Total:     2.2054

*** Psi4 exiting successfully. Buy a developer a beer!
