                               Psi4 1.3.2 release

  ==> Input File <==

--------------------------------------------------------------------------
#psi4
#
memory 32 gb

molecule  {
0 1
  O        1.2043709    -0.4890204    -0.0000150
  C       -0.0526320    -0.2163280    -0.0000090
  C        2.2283480     0.5091050    -0.0000050
  C       -0.5417410     1.0945740     0.0000030
  C       -0.9442280    -1.2979990     0.0000050
  C        3.5986500    -0.1324730     0.0000120
  C       -1.9250240     1.3079840    -0.0000030
  C       -2.3159710    -1.0695280    -0.0000020
  C       -2.8161410     0.2373500     0.0000110
  H        2.0858520     1.1373040    -0.8891130
  H        2.0858350     1.1373010     0.8891040
  H        0.1282520     1.9474600    -0.0000130
  H       -0.5338010    -2.3041010    -0.0000080
  H        4.3764260     0.6364270     0.0000070
  H        3.7225630    -0.7572470     0.8867960
  H        3.7225780    -0.7572730    -0.8867510
  H       -2.3006170     2.3287260     0.0000070
  H       -2.9984970    -1.9161460     0.0000120
  H       -3.8880810     0.4155830     0.0000010
units angstrom
no_reorient  #important for SAPT in psi4, default
symmetry c1  #important for SAPT in psi4, default
}

set PROPERTIES_ORIGIN ["COM"]
properties('MP2/aug-cc-pvtz', properties = ['dipole'])
--------------------------------------------------------------------------

    Molecular point group: c1
  Charge       = 0
  Multiplicity = 1
  Basis Set: AUG-CC-PVTZ
    Blend: AUG-CC-PVTZ
  Basis Set: (AUG-CC-PVTZ AUX)
    Blend: AUG-CC-PVTZ-JKFIT

    Orbital Energies [Eh]
    ---------------------

    Doubly Occupied:

       1A    -20.582082     2A    -11.296061     3A    -11.295704
       4A    -11.235633     5A    -11.235121     6A    -11.228994
       7A    -11.221632     8A    -11.219410     9A    -11.218370
      10A     -1.438020    11A     -1.139116    12A     -1.055087
      13A     -1.010600    14A     -0.982169    15A     -0.882173
      16A     -0.825948    17A     -0.795610    18A     -0.728655
      19A     -0.680081    20A     -0.665750    21A     -0.655890
      22A     -0.610757    23A     -0.581922    24A     -0.575191
      25A     -0.559701    26A     -0.555727    27A     -0.514874
      28A     -0.508496    29A     -0.504342    30A     -0.468057
      31A     -0.462369    32A     -0.334914    33A     -0.299429

  @DF-RHF Final Energy:  -383.75388311481908

   => Energetics <=

    Nuclear Repulsion Energy =            420.8716485615852889
    One-Electron Energy =               -1354.5152875199719347
    Two-Electron Energy =                 549.8897558435676274
    Total Energy =                       -383.7538831148190184
  Basis Set: (AUG-CC-PVTZ AUX)
    Blend: AUG-CC-PVTZ-RI
    Molecular point group: c1

    Geometry (in Angstrom), charge = 0, multiplicity = 1:

       Center              X                  Y                   Z               Mass
    ------------   -----------------  -----------------  -----------------  -----------------
         O            1.265895184152    -0.482901380154    -0.000014560959    15.994914619570
         C            0.008892284152    -0.210208980154    -0.000008560959    12.000000000000
         C            2.289872284152     0.515224019846    -0.000004560959    12.000000000000
         C           -0.480216715848     1.100693019846     0.000003439041    12.000000000000
         C           -0.882703715848    -1.291879980154     0.000005439041    12.000000000000
         C            3.660174284152    -0.126353980154     0.000012439041    12.000000000000
         C           -1.863499715848     1.314103019846    -0.000002560959    12.000000000000
         C           -2.254446715848    -1.063408980154    -0.000001560959    12.000000000000
         C           -2.754616715848     0.243469019846     0.000011439041    12.000000000000
         H            2.147376284152     1.143423019846    -0.889112560959     1.007825032230
         H            2.147359284152     1.143420019846     0.889104439041     1.007825032230
         H            0.189776284152     1.953579019846    -0.000012560959     1.007825032230
         H           -0.472276715848    -2.297981980154    -0.000007560959     1.007825032230
         H            4.437950284152     0.642546019846     0.000007439041     1.007825032230
         H            3.784087284152    -0.751127980154     0.886796439041     1.007825032230
         H            3.784102284152    -0.751153980154    -0.886750560959     1.007825032230
         H           -2.239092715848     2.334845019846     0.000007439041     1.007825032230
         H           -2.936972715848    -1.910026980154     0.000012439041     1.007825032230
         H           -3.826556715848     0.421702019846     0.000001439041     1.007825032230

  Basis Set: AUG-CC-PVTZ
    Blend: AUG-CC-PVTZ
  Basis Set: (AUG-CC-PVTZ AUX)
    Blend: AUG-CC-PVTZ-JKFIT
	 Reference Energy          =    -383.7538831148190752 [Eh]
	 Singles Energy            =      -0.0000000000000000 [Eh]
	 Same-Spin Energy          =      -0.4080320304434283 [Eh]
	 Opposite-Spin Energy      =      -1.3119407333922277 [Eh]
	 Correlation Energy        =      -1.7199727638356559 [Eh]
	 Total Energy              =    -385.4738558786547173 [Eh]

	 ================> DF-SCS-MP2 Energies <==================
	-----------------------------------------------------------
	 SCS Same-Spin Scale       =       0.3333333333333333 [-]
	 SCS Opposite-Spin Scale   =       1.2000000000000000 [-]
	 SCS Same-Spin Energy      =      -0.1360106768144761 [Eh]
	 SCS Opposite-Spin Energy  =      -1.5743288800706732 [Eh]
	 SCS Correlation Energy    =      -1.7103395568851494 [Eh]
	 SCS Total Energy          =    -385.4642226717042490 [Eh]
	-----------------------------------------------------------

  Dipole Moment: [D]
     X:     1.6356      Y:     0.9107      Z:    -0.0000     Total:     1.8721

*** Psi4 exiting successfully. Buy a developer a beer!
