                               Psi4 1.3.2 release

  ==> Input File <==

--------------------------------------------------------------------------
#psi4
#
memory 32 gb

molecule  {
0 1
  O        1.2764910    -0.5580180    -0.0000140
  C       -0.0464663    -0.1931836    -0.0000088
  C        2.2283480     0.5091050    -0.0000050
  C       -0.5417410     1.0945740     0.0000030
  C       -0.9442280    -1.2979990     0.0000050
  C        3.5986500    -0.1324730     0.0000120
  C       -1.9250240     1.3079840    -0.0000030
  C       -2.3159710    -1.0695280    -0.0000020
  C       -2.8161410     0.2373500     0.0000110
  H        2.0858520     1.1373040    -0.8891130
  H        2.0858350     1.1373010     0.8891040
  H        0.1282520     1.9474600    -0.0000130
  H       -0.5338010    -2.3041010    -0.0000080
  H        4.3764260     0.6364270     0.0000070
  H        3.7225630    -0.7572470     0.8867960
  H        3.7225780    -0.7572730    -0.8867510
  H       -2.3006170     2.3287260     0.0000070
  H       -2.9984970    -1.9161460     0.0000120
  H       -3.8880810     0.4155830     0.0000010
units angstrom
no_reorient  #important for SAPT in psi4, default
symmetry c1  #important for SAPT in psi4, default
}

set PROPERTIES_ORIGIN ["COM"]
properties('MP2/aug-cc-pvtz', properties = ['dipole'])
--------------------------------------------------------------------------

    Molecular point group: c1
  Charge       = 0
  Multiplicity = 1
  Basis Set: AUG-CC-PVTZ
    Blend: AUG-CC-PVTZ
  Basis Set: (AUG-CC-PVTZ AUX)
    Blend: AUG-CC-PVTZ-JKFIT

    Orbital Energies [Eh]
    ---------------------

    Doubly Occupied:

       1A    -20.582600     2A    -11.299717     3A    -11.287154
       4A    -11.240004     5A    -11.237858     6A    -11.229384
       7A    -11.228859     8A    -11.226258     9A    -11.221515
      10A     -1.404085    11A     -1.144095    12A     -1.042911
      13A     -1.016046    14A     -0.984981    15A     -0.869138
      16A     -0.824825    17A     -0.798920    18A     -0.721420
      19A     -0.669040    20A     -0.665558    21A     -0.648278
      22A     -0.613810    23A     -0.585486    24A     -0.560982
      25A     -0.560812    26A     -0.545175    27A     -0.514911
      28A     -0.504001    29A     -0.501245    30A     -0.479952
      31A     -0.462321    32A     -0.339638    33A     -0.310362

  @DF-RHF Final Energy:  -383.75569656719182

   => Energetics <=

    Nuclear Repulsion Energy =            418.8091295631419939
    One-Electron Energy =               -1350.4869677313984084
    Two-Electron Energy =                 547.9221416010645953
    Total Energy =                       -383.7556965671917624
  Basis Set: (AUG-CC-PVTZ AUX)
    Blend: AUG-CC-PVTZ-RI
    Molecular point group: c1

    Geometry (in Angstrom), charge = 0, multiplicity = 1:

       Center              X                  Y                   Z               Mass
    ------------   -----------------  -----------------  -----------------  -----------------
         O            1.327959484890    -0.545133546315    -0.000013711647    15.994914619570
         C            0.005002184890    -0.180299146315    -0.000008511647    12.000000000000
         C            2.279816484890     0.521989453685    -0.000004711647    12.000000000000
         C           -0.490272515110     1.107458453685     0.000003288353    12.000000000000
         C           -0.892759515110    -1.285114546315     0.000005288353    12.000000000000
         C            3.650118484890    -0.119588546315     0.000012288353    12.000000000000
         C           -1.873555515110     1.320868453685    -0.000002711647    12.000000000000
         C           -2.264502515110    -1.056643546315    -0.000001711647    12.000000000000
         C           -2.764672515110     0.250234453685     0.000011288353    12.000000000000
         H            2.137320484890     1.150188453685    -0.889112711647     1.007825032230
         H            2.137303484890     1.150185453685     0.889104288353     1.007825032230
         H            0.179720484890     1.960344453685    -0.000012711647     1.007825032230
         H           -0.482332515110    -2.291216546315    -0.000007711647     1.007825032230
         H            4.427894484890     0.649311453685     0.000007288353     1.007825032230
         H            3.774031484890    -0.744362546315     0.886796288353     1.007825032230
         H            3.774046484890    -0.744388546315    -0.886750711647     1.007825032230
         H           -2.249148515110     2.341610453685     0.000007288353     1.007825032230
         H           -2.947028515110    -1.903261546315     0.000012288353     1.007825032230
         H           -3.836612515110     0.428467453685     0.000001288353     1.007825032230

  Basis Set: AUG-CC-PVTZ
    Blend: AUG-CC-PVTZ
  Basis Set: (AUG-CC-PVTZ AUX)
    Blend: AUG-CC-PVTZ-JKFIT
	 Reference Energy          =    -383.7556965671918192 [Eh]
	 Singles Energy            =      -0.0000000000000000 [Eh]
	 Same-Spin Energy          =      -0.4085344028109590 [Eh]
	 Opposite-Spin Energy      =      -1.3146167659417156 [Eh]
	 Correlation Energy        =      -1.7231511687526746 [Eh]
	 Total Energy              =    -385.4788477359444983 [Eh]

	 ================> DF-SCS-MP2 Energies <==================
	-----------------------------------------------------------
	 SCS Same-Spin Scale       =       0.3333333333333333 [-]
	 SCS Opposite-Spin Scale   =       1.2000000000000000 [-]
	 SCS Same-Spin Energy      =      -0.1361781342703197 [Eh]
	 SCS Opposite-Spin Energy  =      -1.5775401191300586 [Eh]
	 SCS Correlation Energy    =      -1.7137182534003783 [Eh]
	 SCS Total Energy          =    -385.4694148205921920 [Eh]
	-----------------------------------------------------------

  Dipole Moment: [D]
     X:     0.8874      Y:     1.0333      Z:    -0.0000     Total:     1.3621

*** Psi4 exiting successfully. Buy a developer a beer!
