                               Psi4 1.3.2 release

  ==> Input File <==

--------------------------------------------------------------------------
#psi4
#
memory 32 gb

molecule  {
0 1
  O        1.2764910    -0.5580180    -0.0000140
  C       -0.0255592    -0.1244454    -0.0000082
  C        2.2283480     0.5091050    -0.0000050
  C       -0.5417410     1.0945740     0.0000030
  C       -0.9442280    -1.2979990     0.0000050
  C        3.5986500    -0.1324730     0.0000120
  C       -1.9250240     1.3079840    -0.0000030
  C       -2.3159710    -1.0695280    -0.0000020
  C       -2.8161410     0.2373500     0.0000110
  H        2.0858520     1.1373040    -0.8891130
  H        2.0858350     1.1373010     0.8891040
  H        0.1282520     1.9474600    -0.0000130
  H       -0.5338010    -2.3041010    -0.0000080
  H        4.3764260     0.6364270     0.0000070
  H        3.7225630    -0.7572470     0.8867960
  H        3.7225780    -0.7572730    -0.8867510
  H       -2.3006170     2.3287260     0.0000070
  H       -2.9984970    -1.9161460     0.0000120
  H       -3.8880810     0.4155830     0.0000010
units angstrom
no_reorient  #important for SAPT in psi4, default
symmetry c1  #important for SAPT in psi4, default
}

set PROPERTIES_ORIGIN ["COM"]
properties('MP2/aug-cc-pvtz', properties = ['dipole'])
--------------------------------------------------------------------------

    Molecular point group: c1
  Charge       = 0
  Multiplicity = 1
  Basis Set: AUG-CC-PVTZ
    Blend: AUG-CC-PVTZ
  Basis Set: (AUG-CC-PVTZ AUX)
    Blend: AUG-CC-PVTZ-JKFIT

    Orbital Energies [Eh]
    ---------------------

    Doubly Occupied:

       1A    -20.585887     2A    -11.298466     3A    -11.286434
       4A    -11.239984     5A    -11.236149     6A    -11.234613
       7A    -11.227002     8A    -11.222891     9A    -11.221491
      10A     -1.407108    11A     -1.144239    12A     -1.041285
      13A     -1.021127    14A     -0.982271    15A     -0.868644
      16A     -0.829089    17A     -0.793404    18A     -0.721553
      19A     -0.670580    20A     -0.668858    21A     -0.646773
      22A     -0.613460    23A     -0.581600    24A     -0.562935
      25A     -0.561742    26A     -0.544428    27A     -0.516729
      28A     -0.502633    29A     -0.500910    30A     -0.475655
      31A     -0.462888    32A     -0.345084    33A     -0.307439

  @DF-RHF Final Energy:  -383.74434556431260

   => Energetics <=

    Nuclear Repulsion Energy =            418.9275306346743264
    One-Electron Energy =               -1350.6970472859561596
    Two-Electron Energy =                 548.0251710869692943
    Total Energy =                       -383.7443455643125390
  Basis Set: (AUG-CC-PVTZ AUX)
    Blend: AUG-CC-PVTZ-RI
    Molecular point group: c1

    Geometry (in Angstrom), charge = 0, multiplicity = 1:

       Center              X                  Y                   Z               Mass
    ------------   -----------------  -----------------  -----------------  -----------------
         O            1.325904281356    -0.551890628433    -0.000013770628    15.994914619570
         C            0.023854081356    -0.118318028433    -0.000007970628    12.000000000000
         C            2.277761281356     0.515232371567    -0.000004770628    12.000000000000
         C           -0.492327718644     1.100701371567     0.000003229372    12.000000000000
         C           -0.894814718644    -1.291871628433     0.000005229372    12.000000000000
         C            3.648063281356    -0.126345628433     0.000012229372    12.000000000000
         C           -1.875610718644     1.314111371567    -0.000002770628    12.000000000000
         C           -2.266557718644    -1.063400628433    -0.000001770628    12.000000000000
         C           -2.766727718644     0.243477371567     0.000011229372    12.000000000000
         H            2.135265281356     1.143431371567    -0.889112770628     1.007825032230
         H            2.135248281356     1.143428371567     0.889104229372     1.007825032230
         H            0.177665281356     1.953587371567    -0.000012770628     1.007825032230
         H           -0.484387718644    -2.297973628433    -0.000007770628     1.007825032230
         H            4.425839281356     0.642554371567     0.000007229372     1.007825032230
         H            3.771976281356    -0.751119628433     0.886796229372     1.007825032230
         H            3.771991281356    -0.751145628433    -0.886750770628     1.007825032230
         H           -2.251203718644     2.334853371567     0.000007229372     1.007825032230
         H           -2.949083718644    -1.910018628433     0.000012229372     1.007825032230
         H           -3.838667718644     0.421710371567     0.000001229372     1.007825032230

  Basis Set: AUG-CC-PVTZ
    Blend: AUG-CC-PVTZ
  Basis Set: (AUG-CC-PVTZ AUX)
    Blend: AUG-CC-PVTZ-JKFIT
	 Reference Energy          =    -383.7443455643125958 [Eh]
	 Singles Energy            =      -0.0000000000000000 [Eh]
	 Same-Spin Energy          =      -0.4082725485326950 [Eh]
	 Opposite-Spin Energy      =      -1.3155063218636427 [Eh]
	 Correlation Energy        =      -1.7237788703963377 [Eh]
	 Total Energy              =    -385.4681244347089546 [Eh]

	 ================> DF-SCS-MP2 Energies <==================
	-----------------------------------------------------------
	 SCS Same-Spin Scale       =       0.3333333333333333 [-]
	 SCS Opposite-Spin Scale   =       1.2000000000000000 [-]
	 SCS Same-Spin Energy      =      -0.1360908495108983 [Eh]
	 SCS Opposite-Spin Energy  =      -1.5786075862363711 [Eh]
	 SCS Correlation Energy    =      -1.7146984357472694 [Eh]
	 SCS Total Energy          =    -385.4590440000598619 [Eh]
	-----------------------------------------------------------

  Dipole Moment: [D]
     X:     0.9090      Y:     1.0485      Z:    -0.0000     Total:     1.3877

*** Psi4 exiting successfully. Buy a developer a beer!
