                               Psi4 1.3.2 release

  ==> Input File <==

--------------------------------------------------------------------------
#psi4
#
memory 32 gb

molecule  {
0 1
  O        1.2398288    -0.5241486    -0.0000145
  C       -0.0526320    -0.2163280    -0.0000090
  C        2.2283480     0.5091050    -0.0000050
  C       -0.5417410     1.0945740     0.0000030
  C       -0.9442280    -1.2979990     0.0000050
  C        3.5986500    -0.1324730     0.0000120
  C       -1.9250240     1.3079840    -0.0000030
  C       -2.3159710    -1.0695280    -0.0000020
  C       -2.8161410     0.2373500     0.0000110
  H        2.0858520     1.1373040    -0.8891130
  H        2.0858350     1.1373010     0.8891040
  H        0.1282520     1.9474600    -0.0000130
  H       -0.5338010    -2.3041010    -0.0000080
  H        4.3764260     0.6364270     0.0000070
  H        3.7225630    -0.7572470     0.8867960
  H        3.7225780    -0.7572730    -0.8867510
  H       -2.3006170     2.3287260     0.0000070
  H       -2.9984970    -1.9161460     0.0000120
  H       -3.8880810     0.4155830     0.0000010
units angstrom
no_reorient  #important for SAPT in psi4, default
symmetry c1  #important for SAPT in psi4, default
}

set PROPERTIES_ORIGIN ["COM"]
properties('MP2/aug-cc-pvtz', properties = ['dipole'])
--------------------------------------------------------------------------

    Molecular point group: c1
  Charge       = 0
  Multiplicity = 1
  Basis Set: AUG-CC-PVTZ
    Blend: AUG-CC-PVTZ
  Basis Set: (AUG-CC-PVTZ AUX)
    Blend: AUG-CC-PVTZ-JKFIT

    Orbital Energies [Eh]
    ---------------------

    Doubly Occupied:

       1A    -20.581678     2A    -11.297759     3A    -11.291484
       4A    -11.237854     5A    -11.236836     6A    -11.226724
       7A    -11.225149     8A    -11.223108     9A    -11.222398
      10A     -1.419717    11A     -1.141757    12A     -1.049157
      13A     -1.012801    14A     -0.983919    15A     -0.875302
      16A     -0.824532    17A     -0.798081    18A     -0.724943
      19A     -0.673899    20A     -0.665815    21A     -0.651817
      22A     -0.612518    23A     -0.584165    24A     -0.567777
      25A     -0.559995    26A     -0.550178    27A     -0.513495
      28A     -0.508882    29A     -0.502553    30A     -0.473877
      31A     -0.462525    32A     -0.336870    33A     -0.305311

  @DF-RHF Final Energy:  -383.75737855888008

   => Energetics <=

    Nuclear Repulsion Energy =            419.8102809609773658
    One-Electron Energy =               -1352.4495690041496800
    Two-Electron Energy =                 548.8819094842922368
    Total Energy =                       -383.7573785588800774
  Basis Set: (AUG-CC-PVTZ AUX)
    Blend: AUG-CC-PVTZ-RI
    Molecular point group: c1

    Geometry (in Angstrom), charge = 0, multiplicity = 1:

       Center              X                  Y                   Z               Mass
    ------------   -----------------  -----------------  -----------------  -----------------
         O            1.296707132002    -0.513426827698    -0.000014126473    15.994914619570
         C            0.004246332002    -0.205606227698    -0.000008626473    12.000000000000
         C            2.285226332002     0.519826772302    -0.000004626473    12.000000000000
         C           -0.484862667998     1.105295772302     0.000003373527    12.000000000000
         C           -0.887349667998    -1.287277227698     0.000005373527    12.000000000000
         C            3.655528332002    -0.121751227698     0.000012373527    12.000000000000
         C           -1.868145667998     1.318705772302    -0.000002626473    12.000000000000
         C           -2.259092667998    -1.058806227698    -0.000001626473    12.000000000000
         C           -2.759262667998     0.248071772302     0.000011373527    12.000000000000
         H            2.142730332002     1.148025772302    -0.889112626473     1.007825032230
         H            2.142713332002     1.148022772302     0.889104373527     1.007825032230
         H            0.185130332002     1.958181772302    -0.000012626473     1.007825032230
         H           -0.476922667998    -2.293379227698    -0.000007626473     1.007825032230
         H            4.433304332002     0.647148772302     0.000007373527     1.007825032230
         H            3.779441332002    -0.746525227698     0.886796373527     1.007825032230
         H            3.779456332002    -0.746551227698    -0.886750626473     1.007825032230
         H           -2.243738667998     2.339447772302     0.000007373527     1.007825032230
         H           -2.941618667998    -1.905424227698     0.000012373527     1.007825032230
         H           -3.831202667998     0.426304772302     0.000001373527     1.007825032230

  Basis Set: AUG-CC-PVTZ
    Blend: AUG-CC-PVTZ
  Basis Set: (AUG-CC-PVTZ AUX)
    Blend: AUG-CC-PVTZ-JKFIT
	 Reference Energy          =    -383.7573785588800774 [Eh]
	 Singles Energy            =      -0.0000000000000000 [Eh]
	 Same-Spin Energy          =      -0.4082559113885456 [Eh]
	 Opposite-Spin Energy      =      -1.3130796482938760 [Eh]
	 Correlation Energy        =      -1.7213355596824216 [Eh]
	 Total Energy              =    -385.4787141185624932 [Eh]

	 ================> DF-SCS-MP2 Energies <==================
	-----------------------------------------------------------
	 SCS Same-Spin Scale       =       0.3333333333333333 [-]
	 SCS Opposite-Spin Scale   =       1.2000000000000000 [-]
	 SCS Same-Spin Energy      =      -0.1360853037961818 [Eh]
	 SCS Opposite-Spin Energy  =      -1.5756955779526511 [Eh]
	 SCS Correlation Energy    =      -1.7117808817488329 [Eh]
	 SCS Total Energy          =    -385.4691594406289141 [Eh]
	-----------------------------------------------------------

  Dipole Moment: [D]
     X:     1.2465      Y:     0.9708      Z:    -0.0000     Total:     1.5799

*** Psi4 exiting successfully. Buy a developer a beer!
