                               Psi4 1.4a3.dev225

  ==> Input File <==

--------------------------------------------------------------------------
#psi4
#
memory 32 gb

molecule  {
0 1
  O        1.2764910    -0.5580180    -0.0000140
  C       -0.0332618    -0.2213077    -0.0000091
  C        2.2283480     0.5091050    -0.0000050
  C       -0.5417410     1.0945740     0.0000030
  C       -0.9442280    -1.2979990     0.0000050
  C        3.5986500    -0.1324730     0.0000120
  C       -1.9250240     1.3079840    -0.0000030
  C       -2.3159710    -1.0695280    -0.0000020
  C       -2.8161410     0.2373500     0.0000110
  H        2.0858520     1.1373040    -0.8891130
  H        2.0858350     1.1373010     0.8891040
  H        0.1282520     1.9474600    -0.0000130
  H       -0.5338010    -2.3041010    -0.0000080
  H        4.3764260     0.6364270     0.0000070
  H        3.7225630    -0.7572470     0.8867960
  H        3.7225780    -0.7572730    -0.8867510
  H       -2.3006170     2.3287260     0.0000070
  H       -2.9984970    -1.9161460     0.0000120
  H       -3.8880810     0.4155830     0.0000010
units angstrom
no_reorient  #important for SAPT in psi4, default
symmetry c1  #important for SAPT in psi4, default
}

set PROPERTIES_ORIGIN ["COM"]
properties('MP2/aug-cc-pvtz', properties = ['dipole'])
--------------------------------------------------------------------------

    Molecular point group: c1
  Charge       = 0
  Multiplicity = 1
  Basis Set: AUG-CC-PVTZ
    Blend: AUG-CC-PVTZ
  Basis Set: (AUG-CC-PVTZ AUX)
    Blend: AUG-CC-PVTZ-JKFIT

    Orbital Energies [Eh]
    ---------------------

    Doubly Occupied:

       1A    -20.584930     2A    -11.301575     3A    -11.289574
       4A    -11.239181     5A    -11.237695     6A    -11.231315
       7A    -11.225984     8A    -11.224814     9A    -11.222882
      10A     -1.412700    11A     -1.141400    12A     -1.046085
      13A     -1.012786    14A     -0.984220    15A     -0.871645
      16A     -0.822472    17A     -0.800322    18A     -0.723013
      19A     -0.671976    20A     -0.666476    21A     -0.649534
      22A     -0.613357    23A     -0.583861    24A     -0.563613
      25A     -0.561281    26A     -0.546686    27A     -0.514241
      28A     -0.507997    29A     -0.501300    30A     -0.476525
      31A     -0.463612    32A     -0.337602    33A     -0.307788

  @DF-RHF Final Energy:  -383.75638950014019

   => Energetics <=

    Nuclear Repulsion Energy =            418.7883718681057985
    One-Electron Energy =               -1350.4126390593110045
    Two-Electron Energy =                 547.8678776910651322
    Total Energy =                       -383.7563895001401306
  Basis Set: (AUG-CC-PVTZ AUX)
    Blend: AUG-CC-PVTZ-RI
    Molecular point group: c1

    Geometry (in Angstrom), charge = 0, multiplicity = 1:

       Center              X                  Y                   Z               Mass
    ------------   -----------------  -----------------  -----------------  -----------------
         O            1.326661460053    -0.542368899390    -0.000013682157    15.994914619570
         C            0.016908660053    -0.205658599390    -0.000008782157    12.000000000000
         C            2.278518460053     0.524754100610    -0.000004682157    12.000000000000
         C           -0.491570539947     1.110223100610     0.000003317843    12.000000000000
         C           -0.894057539947    -1.282349899390     0.000005317843    12.000000000000
         C            3.648820460053    -0.116823899390     0.000012317843    12.000000000000
         C           -1.874853539947     1.323633100610    -0.000002682157    12.000000000000
         C           -2.265800539947    -1.053878899390    -0.000001682157    12.000000000000
         C           -2.765970539947     0.252999100610     0.000011317843    12.000000000000
         H            2.136022460053     1.152953100610    -0.889112682157     1.007825032230
         H            2.136005460053     1.152950100610     0.889104317843     1.007825032230
         H            0.178422460053     1.963109100610    -0.000012682157     1.007825032230
         H           -0.483630539947    -2.288451899390    -0.000007682157     1.007825032230
         H            4.426596460053     0.652076100610     0.000007317843     1.007825032230
         H            3.772733460053    -0.741597899390     0.886796317843     1.007825032230
         H            3.772748460053    -0.741623899390    -0.886750682157     1.007825032230
         H           -2.250446539947     2.344375100610     0.000007317843     1.007825032230
         H           -2.948326539947    -1.900496899390     0.000012317843     1.007825032230
         H           -3.837910539947     0.431232100610     0.000001317843     1.007825032230

  Basis Set: AUG-CC-PVTZ
    Blend: AUG-CC-PVTZ
  Basis Set: (AUG-CC-PVTZ AUX)
    Blend: AUG-CC-PVTZ-JKFIT
	 Reference Energy          =    -383.7563895001401875 [Eh]
	 Singles Energy            =      -0.0000000000000000 [Eh]
	 Same-Spin Energy          =      -0.4085715102642191 [Eh]
	 Opposite-Spin Energy      =      -1.3143304631233397 [Eh]
	 Correlation Energy        =      -1.7229019733875588 [Eh]
	 Total Energy              =    -385.4792914735277236 [Eh]

	 ================> DF-SCS-MP2 Energies <==================
	-----------------------------------------------------------
	 SCS Same-Spin Scale       =       0.3333333333333333 [-]
	 SCS Opposite-Spin Scale   =       1.2000000000000000 [-]
	 SCS Same-Spin Energy      =      -0.1361905034214064 [Eh]
	 SCS Opposite-Spin Energy  =      -1.5771965557480077 [Eh]
	 SCS Correlation Energy    =      -1.7133870591694140 [Eh]
	 SCS Total Energy          =    -385.4697765593095937 [Eh]
	-----------------------------------------------------------

  Dipole Moment: [D]
     X:     1.0446      Y:     1.0181      Z:    -0.0000     Total:     1.4587

*** Psi4 exiting successfully. Buy a developer a beer!
