                               Psi4 1.3.2 release

  ==> Input File <==

--------------------------------------------------------------------------
#psi4
#
memory 32 gb

molecule  {
0 1
  O        1.3143129    -0.5905873    -0.0000135
  C       -0.0526320    -0.2163280    -0.0000090
  C        2.2283480     0.5091050    -0.0000050
  C       -0.5417410     1.0945740     0.0000030
  C       -0.9442280    -1.2979990     0.0000050
  C        3.5986500    -0.1324730     0.0000120
  C       -1.9250240     1.3079840    -0.0000030
  C       -2.3159710    -1.0695280    -0.0000020
  C       -2.8161410     0.2373500     0.0000110
  H        2.0858520     1.1373040    -0.8891130
  H        2.0858350     1.1373010     0.8891040
  H        0.1282520     1.9474600    -0.0000130
  H       -0.5338010    -2.3041010    -0.0000080
  H        4.3764260     0.6364270     0.0000070
  H        3.7225630    -0.7572470     0.8867960
  H        3.7225780    -0.7572730    -0.8867510
  H       -2.3006170     2.3287260     0.0000070
  H       -2.9984970    -1.9161460     0.0000120
  H       -3.8880810     0.4155830     0.0000010
units angstrom
no_reorient  #important for SAPT in psi4, default
symmetry c1  #important for SAPT in psi4, default
}

set PROPERTIES_ORIGIN ["COM"]
properties('MP2/aug-cc-pvtz', properties = ['dipole'])
--------------------------------------------------------------------------

    Molecular point group: c1
  Charge       = 0
  Multiplicity = 1
  Basis Set: AUG-CC-PVTZ
    Blend: AUG-CC-PVTZ
  Basis Set: (AUG-CC-PVTZ AUX)
    Blend: AUG-CC-PVTZ-JKFIT

    Orbital Energies [Eh]
    ---------------------

    Doubly Occupied:

       1A    -20.581466     2A    -11.301989     3A    -11.283943
       4A    -11.241919     5A    -11.239983     6A    -11.235868
       7A    -11.229725     8A    -11.229561     9A    -11.218137
      10A     -1.388114    11A     -1.146810    12A     -1.038854
      13A     -1.016934    14A     -0.986820    15A     -0.864271
      16A     -0.822409    17A     -0.803033    18A     -0.718269
      19A     -0.664065    20A     -0.663466    21A     -0.645582
      22A     -0.615410    23A     -0.588353    24A     -0.560251
      25A     -0.554394    26A     -0.541662    27A     -0.515653
      28A     -0.500954    29A     -0.500023    30A     -0.483299
      31A     -0.461310    32A     -0.340501    33A     -0.316272

  @DF-RHF Final Energy:  -383.75217380688076

   => Energetics <=

    Nuclear Repulsion Energy =            417.7751844667764658
    One-Electron Energy =               -1348.4561165356103629
    Two-Electron Energy =                 546.9287582619532486
    Total Energy =                       -383.7521738068807053
  Basis Set: (AUG-CC-PVTZ AUX)
    Blend: AUG-CC-PVTZ-RI
    Molecular point group: c1

    Geometry (in Angstrom), charge = 0, multiplicity = 1:

       Center              X                  Y                   Z               Mass
    ------------   -----------------  -----------------  -----------------  -----------------
         O            1.361431783063    -0.571160245628    -0.000013257500    15.994914619570
         C           -0.005513116937    -0.196900945628    -0.000008757500    12.000000000000
         C            2.275466883063     0.528532054372    -0.000004757500    12.000000000000
         C           -0.494622116937     1.114001054372     0.000003242500    12.000000000000
         C           -0.897109116937    -1.278571945628     0.000005242500    12.000000000000
         C            3.645768883063    -0.113045945628     0.000012242500    12.000000000000
         C           -1.877905116937     1.327411054372    -0.000002757500    12.000000000000
         C           -2.268852116937    -1.050100945628    -0.000001757500    12.000000000000
         C           -2.769022116937     0.256777054372     0.000011242500    12.000000000000
         H            2.132970883063     1.156731054372    -0.889112757500     1.007825032230
         H            2.132953883063     1.156728054372     0.889104242500     1.007825032230
         H            0.175370883063     1.966887054372    -0.000012757500     1.007825032230
         H           -0.486682116937    -2.284673945628    -0.000007757500     1.007825032230
         H            4.423544883063     0.655854054372     0.000007242500     1.007825032230
         H            3.769681883063    -0.737819945628     0.886796242500     1.007825032230
         H            3.769696883063    -0.737845945628    -0.886750757500     1.007825032230
         H           -2.253498116937     2.348153054372     0.000007242500     1.007825032230
         H           -2.951378116937    -1.896718945628     0.000012242500     1.007825032230
         H           -3.840962116937     0.435010054372     0.000001242500     1.007825032230

  Basis Set: AUG-CC-PVTZ
    Blend: AUG-CC-PVTZ
  Basis Set: (AUG-CC-PVTZ AUX)
    Blend: AUG-CC-PVTZ-JKFIT
	 Reference Energy          =    -383.7521738068807622 [Eh]
	 Singles Energy            =      -0.0000000000000000 [Eh]
	 Same-Spin Energy          =      -0.4089616791197767 [Eh]
	 Opposite-Spin Energy      =      -1.3160174251320176 [Eh]
	 Correlation Energy        =      -1.7249791042517941 [Eh]
	 Total Energy              =    -385.4771529111325776 [Eh]

	 ================> DF-SCS-MP2 Energies <==================
	-----------------------------------------------------------
	 SCS Same-Spin Scale       =       0.3333333333333333 [-]
	 SCS Opposite-Spin Scale   =       1.2000000000000000 [-]
	 SCS Same-Spin Energy      =      -0.1363205597065922 [Eh]
	 SCS Opposite-Spin Energy  =      -1.5792209101584211 [Eh]
	 SCS Correlation Energy    =      -1.7155414698650133 [Eh]
	 SCS Total Energy          =    -385.4677152767457642 [Eh]
	-----------------------------------------------------------

  Dipole Moment: [D]
     X:     0.5387      Y:     1.0859      Z:     0.0000     Total:     1.2122

*** Psi4 exiting successfully. Buy a developer a beer!
