                               Psi4 1.3.2 release

  ==> Input File <==

--------------------------------------------------------------------------
#psi4
#
memory 32 gb

molecule  {
0 1
  O        1.2764910    -0.5580180    -0.0000140
  C       -0.0526320    -0.2163280    -0.0000090
  C        2.1617827     0.4344789    -0.0000056
  C       -0.5417410     1.0945740     0.0000030
  C       -0.9442280    -1.2979990     0.0000050
  C        3.5986500    -0.1324730     0.0000120
  C       -1.9250240     1.3079840    -0.0000030
  C       -2.3159710    -1.0695280    -0.0000020
  C       -2.8161410     0.2373500     0.0000110
  H        2.0858520     1.1373040    -0.8891130
  H        2.0858350     1.1373010     0.8891040
  H        0.1282520     1.9474600    -0.0000130
  H       -0.5338010    -2.3041010    -0.0000080
  H        4.3764260     0.6364270     0.0000070
  H        3.7225630    -0.7572470     0.8867960
  H        3.7225780    -0.7572730    -0.8867510
  H       -2.3006170     2.3287260     0.0000070
  H       -2.9984970    -1.9161460     0.0000120
  H       -3.8880810     0.4155830     0.0000010
units angstrom
no_reorient  #important for SAPT in psi4, default
symmetry c1  #important for SAPT in psi4, default
}

set PROPERTIES_ORIGIN ["COM"]
properties('MP2/aug-cc-pvtz', properties = ['dipole'])
--------------------------------------------------------------------------

    Molecular point group: c1
  Charge       = 0
  Multiplicity = 1
  Basis Set: AUG-CC-PVTZ
    Blend: AUG-CC-PVTZ
  Basis Set: (AUG-CC-PVTZ AUX)
    Blend: AUG-CC-PVTZ-JKFIT

    Orbital Energies [Eh]
    ---------------------

    Doubly Occupied:

       1A    -20.590696     2A    -11.304729     3A    -11.287497
       4A    -11.242579     5A    -11.241375     6A    -11.235647
       7A    -11.231423     8A    -11.230270     9A    -11.218535
      10A     -1.440682    11A     -1.149920    12A     -1.041939
      13A     -1.018386    14A     -0.983938    15A     -0.873749
      16A     -0.829773    17A     -0.797365    18A     -0.733604
      19A     -0.674585    20A     -0.671581    21A     -0.658185
      22A     -0.617414    23A     -0.589706    24A     -0.574314
      25A     -0.559493    26A     -0.548159    27A     -0.515608
      28A     -0.499111    29A     -0.497989    30A     -0.471066
      31A     -0.448608    32A     -0.341520    33A     -0.316421

  @DF-RHF Final Energy:  -383.74854642244316

   => Energetics <=

    Nuclear Repulsion Energy =            420.3835417547134057
    One-Electron Energy =               -1353.3924512180606143
    Two-Electron Energy =                 549.2603630409040534
    Total Energy =                       -383.7485464224431553
  Basis Set: (AUG-CC-PVTZ AUX)
    Blend: AUG-CC-PVTZ-RI
    Molecular point group: c1

    Geometry (in Angstrom), charge = 0, multiplicity = 1:

       Center              X                  Y                   Z               Mass
    ------------   -----------------  -----------------  -----------------  -----------------
         O            1.335109066049    -0.535522539665    -0.000013633006    15.994914619570
         C            0.005986066049    -0.193832539665    -0.000008633006    12.000000000000
         C            2.220400766048     0.456974360335    -0.000005233006    12.000000000000
         C           -0.483122933951     1.117069460335     0.000003366994    12.000000000000
         C           -0.885609933951    -1.275503539665     0.000005366994    12.000000000000
         C            3.657268066049    -0.109977539665     0.000012366994    12.000000000000
         C           -1.866405933951     1.330479460335    -0.000002633006    12.000000000000
         C           -2.257352933951    -1.047032539665    -0.000001633006    12.000000000000
         C           -2.757522933951     0.259845460335     0.000011366994    12.000000000000
         H            2.144470066049     1.159799460335    -0.889112633006     1.007825032230
         H            2.144453066049     1.159796460335     0.889104366994     1.007825032230
         H            0.186870066049     1.969955460335    -0.000012633006     1.007825032230
         H           -0.475182933951    -2.281605539665    -0.000007633006     1.007825032230
         H            4.435044066049     0.658922460335     0.000007366994     1.007825032230
         H            3.781181066049    -0.734751539665     0.886796366994     1.007825032230
         H            3.781196066049    -0.734777539665    -0.886750633006     1.007825032230
         H           -2.241998933951     2.351221460335     0.000007366994     1.007825032230
         H           -2.939878933951    -1.893650539665     0.000012366994     1.007825032230
         H           -3.829462933952     0.438078460335     0.000001366994     1.007825032230

  Basis Set: AUG-CC-PVTZ
    Blend: AUG-CC-PVTZ
  Basis Set: (AUG-CC-PVTZ AUX)
    Blend: AUG-CC-PVTZ-JKFIT
	 Reference Energy          =    -383.7485464224431553 [Eh]
	 Singles Energy            =      -0.0000000000000000 [Eh]
	 Same-Spin Energy          =      -0.4086584794761466 [Eh]
	 Opposite-Spin Energy      =      -1.3135921822658621 [Eh]
	 Correlation Energy        =      -1.7222506617420086 [Eh]
	 Total Energy              =    -385.4707970841851647 [Eh]

	 ================> DF-SCS-MP2 Energies <==================
	-----------------------------------------------------------
	 SCS Same-Spin Scale       =       0.3333333333333333 [-]
	 SCS Opposite-Spin Scale   =       1.2000000000000000 [-]
	 SCS Same-Spin Energy      =      -0.1362194931587155 [Eh]
	 SCS Opposite-Spin Energy  =      -1.5763106187190343 [Eh]
	 SCS Correlation Energy    =      -1.7125301118777498 [Eh]
	 SCS Total Energy          =    -385.4610765343209096 [Eh]
	-----------------------------------------------------------

  Dipole Moment: [D]
     X:     0.3755      Y:     0.8121      Z:    -0.0000     Total:     0.8947

*** Psi4 exiting successfully. Buy a developer a beer!
