                               Psi4 1.3.2 release

  ==> Input File <==

--------------------------------------------------------------------------
#psi4
#
memory 32 gb

molecule  {
0 1
  O        1.2952598    -0.5744677    -0.0000138
  C       -0.0526320    -0.2163280    -0.0000090
  C        2.2283480     0.5091050    -0.0000050
  C       -0.5417410     1.0945740     0.0000030
  C       -0.9442280    -1.2979990     0.0000050
  C        3.5986500    -0.1324730     0.0000120
  C       -1.9250240     1.3079840    -0.0000030
  C       -2.3159710    -1.0695280    -0.0000020
  C       -2.8161410     0.2373500     0.0000110
  H        2.0858520     1.1373040    -0.8891130
  H        2.0858350     1.1373010     0.8891040
  H        0.1282520     1.9474600    -0.0000130
  H       -0.5338010    -2.3041010    -0.0000080
  H        4.3764260     0.6364270     0.0000070
  H        3.7225630    -0.7572470     0.8867960
  H        3.7225780    -0.7572730    -0.8867510
  H       -2.3006170     2.3287260     0.0000070
  H       -2.9984970    -1.9161460     0.0000120
  H       -3.8880810     0.4155830     0.0000010
units angstrom
no_reorient  #important for SAPT in psi4, default
symmetry c1  #important for SAPT in psi4, default
}

set PROPERTIES_ORIGIN ["COM"]
properties('MP2/aug-cc-pvtz', properties = ['dipole'])
--------------------------------------------------------------------------

    Molecular point group: c1
  Charge       = 0
  Multiplicity = 1
  Basis Set: AUG-CC-PVTZ
    Blend: AUG-CC-PVTZ
  Basis Set: (AUG-CC-PVTZ AUX)
    Blend: AUG-CC-PVTZ-JKFIT

    Orbital Energies [Eh]
    ---------------------

    Doubly Occupied:

       1A    -20.581450     2A    -11.300921     3A    -11.285633
       4A    -11.240946     5A    -11.239230     6A    -11.233718
       7A    -11.228163     8A    -11.227888     9A    -11.219803
      10A     -1.395361    11A     -1.145585    12A     -1.041211
      13A     -1.015942    14A     -0.986199    15A     -0.866666
      16A     -0.822878    17A     -0.801805    18A     -0.719760
      19A     -0.666231    20A     -0.664369    21A     -0.646890
      22A     -0.614770    23A     -0.587350    24A     -0.560248
      25A     -0.557541    26A     -0.543415    27A     -0.514970
      28A     -0.502918    29A     -0.501142    30A     -0.481302
      31A     -0.461763    32A     -0.339627    33A     -0.313649

  @DF-RHF Final Energy:  -383.75482305165440

   => Energetics <=

    Nuclear Repulsion Energy =            418.2718085667887067
    One-Electron Energy =               -1349.4345731015991987
    Two-Electron Energy =                 547.4079414831561508
    Total Energy =                       -383.7548230516543981
  Basis Set: (AUG-CC-PVTZ AUX)
    Blend: AUG-CC-PVTZ-RI
    Molecular point group: c1

    Geometry (in Angstrom), charge = 0, multiplicity = 1:

       Center              X                  Y                   Z               Mass
    ------------   -----------------  -----------------  -----------------  -----------------
         O            1.344875158909    -0.557152752952    -0.000013518192    15.994914619570
         C           -0.003016641091    -0.199013052952    -0.000008718192    12.000000000000
         C            2.277963358909     0.526419947048    -0.000004718192    12.000000000000
         C           -0.492125641091     1.111888947048     0.000003281808    12.000000000000
         C           -0.894612641091    -1.280684052952     0.000005281808    12.000000000000
         C            3.648265358909    -0.115158052952     0.000012281808    12.000000000000
         C           -1.875408641091     1.325298947048    -0.000002718192    12.000000000000
         C           -2.266355641091    -1.052213052952    -0.000001718192    12.000000000000
         C           -2.766525641091     0.254664947048     0.000011281808    12.000000000000
         H            2.135467358909     1.154618947048    -0.889112718192     1.007825032230
         H            2.135450358909     1.154615947048     0.889104281808     1.007825032230
         H            0.177867358909     1.964774947048    -0.000012718192     1.007825032230
         H           -0.484185641091    -2.286786052952    -0.000007718192     1.007825032230
         H            4.426041358909     0.653741947048     0.000007281808     1.007825032230
         H            3.772178358909    -0.739932052952     0.886796281808     1.007825032230
         H            3.772193358909    -0.739958052952    -0.886750718192     1.007825032230
         H           -2.251001641091     2.346040947048     0.000007281808     1.007825032230
         H           -2.948881641091    -1.898831052952     0.000012281808     1.007825032230
         H           -3.838465641091     0.432897947048     0.000001281808     1.007825032230

  Basis Set: AUG-CC-PVTZ
    Blend: AUG-CC-PVTZ
  Basis Set: (AUG-CC-PVTZ AUX)
    Blend: AUG-CC-PVTZ-JKFIT
	 Reference Energy          =    -383.7548230516543981 [Eh]
	 Singles Energy            =      -0.0000000000000000 [Eh]
	 Same-Spin Energy          =      -0.4087491476703675 [Eh]
	 Opposite-Spin Energy      =      -1.3151974112314302 [Eh]
	 Correlation Energy        =      -1.7239465589017977 [Eh]
	 Total Energy              =    -385.4787696105561849 [Eh]

	 ================> DF-SCS-MP2 Energies <==================
	-----------------------------------------------------------
	 SCS Same-Spin Scale       =       0.3333333333333333 [-]
	 SCS Opposite-Spin Scale   =       1.2000000000000000 [-]
	 SCS Same-Spin Energy      =      -0.1362497158901225 [Eh]
	 SCS Opposite-Spin Energy  =      -1.5782368934777162 [Eh]
	 SCS Correlation Energy    =      -1.7144866093678388 [Eh]
	 SCS Total Energy          =    -385.4693096610222369 [Eh]
	-----------------------------------------------------------

  Dipole Moment: [D]
     X:     0.7065      Y:     1.0580      Z:     0.0000     Total:     1.2723

*** Psi4 exiting successfully. Buy a developer a beer!
