                               Psi4 1.3.2 release

  ==> Input File <==

--------------------------------------------------------------------------
#psi4
#
memory 32 gb

molecule  {
0 1
  O        1.2580121    -0.5412433    -0.0000142
  C       -0.0526320    -0.2163280    -0.0000090
  C        2.2283480     0.5091050    -0.0000050
  C       -0.5417410     1.0945740     0.0000030
  C       -0.9442280    -1.2979990     0.0000050
  C        3.5986500    -0.1324730     0.0000120
  C       -1.9250240     1.3079840    -0.0000030
  C       -2.3159710    -1.0695280    -0.0000020
  C       -2.8161410     0.2373500     0.0000110
  H        2.0858520     1.1373040    -0.8891130
  H        2.0858350     1.1373010     0.8891040
  H        0.1282520     1.9474600    -0.0000130
  H       -0.5338010    -2.3041010    -0.0000080
  H        4.3764260     0.6364270     0.0000070
  H        3.7225630    -0.7572470     0.8867960
  H        3.7225780    -0.7572730    -0.8867510
  H       -2.3006170     2.3287260     0.0000070
  H       -2.9984970    -1.9161460     0.0000120
  H       -3.8880810     0.4155830     0.0000010
units angstrom
no_reorient  #important for SAPT in psi4, default
symmetry c1  #important for SAPT in psi4, default
}

set PROPERTIES_ORIGIN ["COM"]
properties('MP2/aug-cc-pvtz', properties = ['dipole'])
--------------------------------------------------------------------------

    Molecular point group: c1
  Charge       = 0
  Multiplicity = 1
  Basis Set: AUG-CC-PVTZ
    Blend: AUG-CC-PVTZ
  Basis Set: (AUG-CC-PVTZ AUX)
    Blend: AUG-CC-PVTZ-JKFIT

    Orbital Energies [Eh]
    ---------------------

    Doubly Occupied:

       1A    -20.581553     2A    -11.298805     3A    -11.289400
       4A    -11.238915     5A    -11.237657     6A    -11.229144
       7A    -11.224857     8A    -11.224304     9A    -11.223309
      10A     -1.411170    11A     -1.143055    12A     -1.046371
      13A     -1.013873    14A     -0.984737    15A     -0.872187
      16A     -0.823930    17A     -0.799325    18A     -0.723127
      19A     -0.671138    20A     -0.665547    21A     -0.650010
      22A     -0.613323    23A     -0.585254    24A     -0.564238
      25A     -0.560113    26A     -0.547685    27A     -0.513704
      28A     -0.507581    29A     -0.501924    30A     -0.476542
      31A     -0.462390    32A     -0.337813    33A     -0.308163

  @DF-RHF Final Energy:  -383.75749493531526

   => Energetics <=

    Nuclear Repulsion Energy =            419.2897926607652721
    One-Electron Energy =               -1351.4322851610731959
    Two-Electron Energy =                 548.3849975649926591
    Total Energy =                       -383.7574949353153215
  Basis Set: (AUG-CC-PVTZ AUX)
    Blend: AUG-CC-PVTZ-RI
    Molecular point group: c1

    Geometry (in Angstrom), charge = 0, multiplicity = 1:

       Center              X                  Y                   Z               Mass
    ------------   -----------------  -----------------  -----------------  -----------------
         O            1.312507923683    -0.528281655675    -0.000013865781    15.994914619570
         C            0.001863823683    -0.203366355675    -0.000008665781    12.000000000000
         C            2.282843823683     0.522066644325    -0.000004665781    12.000000000000
         C           -0.487245176317     1.107535644325     0.000003334219    12.000000000000
         C           -0.889732176317    -1.285037355675     0.000005334219    12.000000000000
         C            3.653145823683    -0.119511355675     0.000012334219    12.000000000000
         C           -1.870528176317     1.320945644325    -0.000002665781    12.000000000000
         C           -2.261475176317    -1.056566355675    -0.000001665781    12.000000000000
         C           -2.761645176317     0.250311644325     0.000011334219    12.000000000000
         H            2.140347823683     1.150265644325    -0.889112665781     1.007825032230
         H            2.140330823683     1.150262644325     0.889104334219     1.007825032230
         H            0.182747823683     1.960421644325    -0.000012665781     1.007825032230
         H           -0.479305176317    -2.291139355675    -0.000007665781     1.007825032230
         H            4.430921823683     0.649388644325     0.000007334219     1.007825032230
         H            3.777058823683    -0.744285355675     0.886796334219     1.007825032230
         H            3.777073823683    -0.744311355675    -0.886750665781     1.007825032230
         H           -2.246121176317     2.341687644325     0.000007334219     1.007825032230
         H           -2.944001176317    -1.903184355675     0.000012334219     1.007825032230
         H           -3.833585176317     0.428544644325     0.000001334219     1.007825032230

  Basis Set: AUG-CC-PVTZ
    Blend: AUG-CC-PVTZ
  Basis Set: (AUG-CC-PVTZ AUX)
    Blend: AUG-CC-PVTZ-JKFIT
	 Reference Energy          =    -383.7574949353152647 [Eh]
	 Singles Energy            =      -0.0000000000000000 [Eh]
	 Same-Spin Energy          =      -0.4083976702701326 [Eh]
	 Opposite-Spin Energy      =      -1.3137295878349651 [Eh]
	 Correlation Energy        =      -1.7221272581050977 [Eh]
	 Total Energy              =    -385.4796221934203686 [Eh]

	 ================> DF-SCS-MP2 Energies <==================
	-----------------------------------------------------------
	 SCS Same-Spin Scale       =       0.3333333333333333 [-]
	 SCS Opposite-Spin Scale   =       1.2000000000000000 [-]
	 SCS Same-Spin Energy      =      -0.1361325567567109 [Eh]
	 SCS Opposite-Spin Energy  =      -1.5764755054019581 [Eh]
	 SCS Correlation Energy    =      -1.7126080621586690 [Eh]
	 SCS Total Energy          =    -385.4701029974739299 [Eh]
	-----------------------------------------------------------

  Dipole Moment: [D]
     X:     1.0605      Y:     1.0004      Z:    -0.0000     Total:     1.4579

*** Psi4 exiting successfully. Buy a developer a beer!
