                               Psi4 1.3.2 release

  ==> Input File <==

--------------------------------------------------------------------------
#psi4
#
memory 32 gb

molecule  {
0 1
  O        1.3532484    -0.6218167    -0.0000130
  C       -0.0526320    -0.2163280    -0.0000090
  C        2.2283480     0.5091050    -0.0000050
  C       -0.5417410     1.0945740     0.0000030
  C       -0.9442280    -1.2979990     0.0000050
  C        3.5986500    -0.1324730     0.0000120
  C       -1.9250240     1.3079840    -0.0000030
  C       -2.3159710    -1.0695280    -0.0000020
  C       -2.8161410     0.2373500     0.0000110
  H        2.0858520     1.1373040    -0.8891130
  H        2.0858350     1.1373010     0.8891040
  H        0.1282520     1.9474600    -0.0000130
  H       -0.5338010    -2.3041010    -0.0000080
  H        4.3764260     0.6364270     0.0000070
  H        3.7225630    -0.7572470     0.8867960
  H        3.7225780    -0.7572730    -0.8867510
  H       -2.3006170     2.3287260     0.0000070
  H       -2.9984970    -1.9161460     0.0000120
  H       -3.8880810     0.4155830     0.0000010
units angstrom
no_reorient  #important for SAPT in psi4, default
symmetry c1  #important for SAPT in psi4, default
}

set PROPERTIES_ORIGIN ["COM"]
properties('MP2/aug-cc-pvtz', properties = ['dipole'])
--------------------------------------------------------------------------

    Molecular point group: c1
  Charge       = 0
  Multiplicity = 1
  Basis Set: AUG-CC-PVTZ
    Blend: AUG-CC-PVTZ
  Basis Set: (AUG-CC-PVTZ AUX)
    Blend: AUG-CC-PVTZ-JKFIT

    Orbital Energies [Eh]
    ---------------------

    Doubly Occupied:

       1A    -20.581610     2A    -11.304138     3A    -11.280931
       4A    -11.243795     5A    -11.241430     6A    -11.239892
       7A    -11.232733     8A    -11.232622     9A    -11.214977
      10A     -1.374938    11A     -1.149175    12A     -1.034630
      13A     -1.018819    14A     -0.987789    15A     -0.860203
      16A     -0.821549    17A     -0.805445    18A     -0.715762
      19A     -0.661107    20A     -0.660256    21A     -0.643460
      22A     -0.616529    23A     -0.590260    24A     -0.560113
      25A     -0.548524    26A     -0.538882    27A     -0.516880
      28A     -0.500880    29A     -0.494658    30A     -0.485291
      31A     -0.460230    32A     -0.342185    33A     -0.321253

  @DF-RHF Final Energy:  -383.74457698714582

   => Energetics <=

    Nuclear Repulsion Energy =            416.8085050570284125
    One-Electron Energy =               -1346.5442759087479772
    Two-Electron Energy =                 545.9911938645736882
    Total Energy =                       -383.7445769871458197
  Basis Set: (AUG-CC-PVTZ AUX)
    Blend: AUG-CC-PVTZ-RI
    Molecular point group: c1

    Geometry (in Angstrom), charge = 0, multiplicity = 1:

       Center              X                  Y                   Z               Mass
    ------------   -----------------  -----------------  -----------------  -----------------
         O            1.395265670449    -0.598297742327    -0.000012823014    15.994914619570
         C           -0.010614729551    -0.192809042327    -0.000008823014    12.000000000000
         C            2.270365270449     0.532623957673    -0.000004823014    12.000000000000
         C           -0.499723729551     1.118092957673     0.000003176986    12.000000000000
         C           -0.902210729551    -1.274480042327     0.000005176986    12.000000000000
         C            3.640667270449    -0.108954042327     0.000012176986    12.000000000000
         C           -1.883006729551     1.331502957673    -0.000002823014    12.000000000000
         C           -2.273953729551    -1.046009042327    -0.000001823014    12.000000000000
         C           -2.774123729551     0.260868957673     0.000011176986    12.000000000000
         H            2.127869270449     1.160822957673    -0.889112823014     1.007825032230
         H            2.127852270449     1.160819957673     0.889104176986     1.007825032230
         H            0.170269270449     1.970978957673    -0.000012823014     1.007825032230
         H           -0.491783729551    -2.280582042327    -0.000007823014     1.007825032230
         H            4.418443270449     0.659945957673     0.000007176986     1.007825032230
         H            3.764580270449    -0.733728042327     0.886796176986     1.007825032230
         H            3.764595270449    -0.733754042327    -0.886750823014     1.007825032230
         H           -2.258599729551     2.352244957673     0.000007176986     1.007825032230
         H           -2.956479729551    -1.892627042327     0.000012176986     1.007825032230
         H           -3.846063729551     0.439101957673     0.000001176986     1.007825032230

  Basis Set: AUG-CC-PVTZ
    Blend: AUG-CC-PVTZ
  Basis Set: (AUG-CC-PVTZ AUX)
    Blend: AUG-CC-PVTZ-JKFIT
	 Reference Energy          =    -383.7445769871458197 [Eh]
	 Singles Energy            =      -0.0000000000000000 [Eh]
	 Same-Spin Energy          =      -0.4094658016396581 [Eh]
	 Opposite-Spin Energy      =      -1.3178334858556724 [Eh]
	 Correlation Energy        =      -1.7272992874953306 [Eh]
	 Total Energy              =    -385.4718762746411471 [Eh]

	 ================> DF-SCS-MP2 Energies <==================
	-----------------------------------------------------------
	 SCS Same-Spin Scale       =       0.3333333333333333 [-]
	 SCS Opposite-Spin Scale   =       1.2000000000000000 [-]
	 SCS Same-Spin Energy      =      -0.1364886005465527 [Eh]
	 SCS Opposite-Spin Energy  =      -1.5814001830268067 [Eh]
	 SCS Correlation Energy    =      -1.7178887835733594 [Eh]
	 SCS Total Energy          =    -385.4624657707191773 [Eh]
	-----------------------------------------------------------

  Dipole Moment: [D]
     X:     0.2217      Y:     1.1392      Z:     0.0000     Total:     1.1606

*** Psi4 exiting successfully. Buy a developer a beer!
