                               Psi4 1.3.2 release

  ==> Input File <==

--------------------------------------------------------------------------
#psi4
#
memory 32 gb

molecule  {
0 1
  O        1.2703253    -0.5811624    -0.0000142
  C       -0.0526320    -0.2163280    -0.0000090
  C        2.2283480     0.5091050    -0.0000050
  C       -0.5417410     1.0945740     0.0000030
  C       -0.9442280    -1.2979990     0.0000050
  C        3.5986500    -0.1324730     0.0000120
  C       -1.9250240     1.3079840    -0.0000030
  C       -2.3159710    -1.0695280    -0.0000020
  C       -2.8161410     0.2373500     0.0000110
  H        2.0858520     1.1373040    -0.8891130
  H        2.0858350     1.1373010     0.8891040
  H        0.1282520     1.9474600    -0.0000130
  H       -0.5338010    -2.3041010    -0.0000080
  H        4.3764260     0.6364270     0.0000070
  H        3.7225630    -0.7572470     0.8867960
  H        3.7225780    -0.7572730    -0.8867510
  H       -2.3006170     2.3287260     0.0000070
  H       -2.9984970    -1.9161460     0.0000120
  H       -3.8880810     0.4155830     0.0000010
units angstrom
no_reorient  #important for SAPT in psi4, default
symmetry c1  #important for SAPT in psi4, default
}

set PROPERTIES_ORIGIN ["COM"]
properties('MP2/aug-cc-pvtz', properties = ['dipole'])
--------------------------------------------------------------------------

    Molecular point group: c1
  Charge       = 0
  Multiplicity = 1
  Basis Set: AUG-CC-PVTZ
    Blend: AUG-CC-PVTZ
  Basis Set: (AUG-CC-PVTZ AUX)
    Blend: AUG-CC-PVTZ-JKFIT

    Orbital Energies [Eh]
    ---------------------

    Doubly Occupied:

       1A    -20.582417     2A    -11.298889     3A    -11.289525
       4A    -11.239698     5A    -11.237738     6A    -11.231445
       7A    -11.225614     8A    -11.225368     9A    -11.222257
      10A     -1.398108    11A     -1.143337    12A     -1.043200
      13A     -1.014401    14A     -0.985494    15A     -0.868375
      16A     -0.821954    17A     -0.801034    18A     -0.719330
      19A     -0.666239    20A     -0.663744    21A     -0.647433
      22A     -0.613346    23A     -0.585808    24A     -0.561161
      25A     -0.559062    26A     -0.543975    27A     -0.514556
      28A     -0.505793    29A     -0.501779    30A     -0.479991
      31A     -0.463611    32A     -0.338326    33A     -0.310320

  @DF-RHF Final Energy:  -383.75512963297319

   => Energetics <=

    Nuclear Repulsion Energy =            418.4434991279692895
    One-Electron Energy =               -1349.7905985174127181
    Two-Electron Energy =                 547.5919697564702346
    Total Energy =                       -383.7551296329731940
  Basis Set: (AUG-CC-PVTZ AUX)
    Blend: AUG-CC-PVTZ-RI
    Molecular point group: c1

    Geometry (in Angstrom), charge = 0, multiplicity = 1:

       Center              X                  Y                   Z               Mass
    ------------   -----------------  -----------------  -----------------  -----------------
         O            1.323207758593    -0.562970264629    -0.000013865781    15.994914619570
         C            0.000250458593    -0.198135864629    -0.000008665781    12.000000000000
         C            2.281230458593     0.527297135371    -0.000004665781    12.000000000000
         C           -0.488858541407     1.112766135371     0.000003334219    12.000000000000
         C           -0.891345541407    -1.279806864629     0.000005334219    12.000000000000
         C            3.651532458593    -0.114280864629     0.000012334219    12.000000000000
         C           -1.872141541407     1.326176135371    -0.000002665781    12.000000000000
         C           -2.263088541407    -1.051335864629    -0.000001665781    12.000000000000
         C           -2.763258541407     0.255542135371     0.000011334219    12.000000000000
         H            2.138734458593     1.155496135371    -0.889112665781     1.007825032230
         H            2.138717458593     1.155493135371     0.889104334219     1.007825032230
         H            0.181134458593     1.965652135371    -0.000012665781     1.007825032230
         H           -0.480918541407    -2.285908864629    -0.000007665781     1.007825032230
         H            4.429308458593     0.654619135371     0.000007334219     1.007825032230
         H            3.775445458593    -0.739054864629     0.886796334219     1.007825032230
         H            3.775460458593    -0.739080864629    -0.886750665781     1.007825032230
         H           -2.247734541407     2.346918135371     0.000007334219     1.007825032230
         H           -2.945614541407    -1.897953864629     0.000012334219     1.007825032230
         H           -3.835198541407     0.433775135371     0.000001334219     1.007825032230

  Basis Set: AUG-CC-PVTZ
    Blend: AUG-CC-PVTZ
  Basis Set: (AUG-CC-PVTZ AUX)
    Blend: AUG-CC-PVTZ-JKFIT
	 Reference Energy          =    -383.7551296329731940 [Eh]
	 Singles Energy            =      -0.0000000000000000 [Eh]
	 Same-Spin Energy          =      -0.4087264171526624 [Eh]
	 Opposite-Spin Energy      =      -1.3151332770423638 [Eh]
	 Correlation Energy        =      -1.7238596941950264 [Eh]
	 Total Energy              =    -385.4789893271682217 [Eh]

	 ================> DF-SCS-MP2 Energies <==================
	-----------------------------------------------------------
	 SCS Same-Spin Scale       =       0.3333333333333333 [-]
	 SCS Opposite-Spin Scale   =       1.2000000000000000 [-]
	 SCS Same-Spin Energy      =      -0.1362421390508875 [Eh]
	 SCS Opposite-Spin Energy  =      -1.5781599324508366 [Eh]
	 SCS Correlation Energy    =      -1.7144020715017241 [Eh]
	 SCS Total Energy          =    -385.4695317044749459 [Eh]
	-----------------------------------------------------------

  Dipole Moment: [D]
     X:     0.9477      Y:     1.0789      Z:     0.0000     Total:     1.4360

*** Psi4 exiting successfully. Buy a developer a beer!
