                               Psi4 1.3.2 release

  ==> Input File <==

--------------------------------------------------------------------------
#psi4
#
memory 32 gb

molecule  {
0 1
  O        1.2764910    -0.5580180    -0.0000140
  C       -0.0637471    -0.2629219    -0.0000094
  C        2.2283480     0.5091050    -0.0000050
  C       -0.5417410     1.0945740     0.0000030
  C       -0.9442280    -1.2979990     0.0000050
  C        3.5986500    -0.1324730     0.0000120
  C       -1.9250240     1.3079840    -0.0000030
  C       -2.3159710    -1.0695280    -0.0000020
  C       -2.8161410     0.2373500     0.0000110
  H        2.0858520     1.1373040    -0.8891130
  H        2.0858350     1.1373010     0.8891040
  H        0.1282520     1.9474600    -0.0000130
  H       -0.5338010    -2.3041010    -0.0000080
  H        4.3764260     0.6364270     0.0000070
  H        3.7225630    -0.7572470     0.8867960
  H        3.7225780    -0.7572730    -0.8867510
  H       -2.3006170     2.3287260     0.0000070
  H       -2.9984970    -1.9161460     0.0000120
  H       -3.8880810     0.4155830     0.0000010
units angstrom
no_reorient  #important for SAPT in psi4, default
symmetry c1  #important for SAPT in psi4, default
}

set PROPERTIES_ORIGIN ["COM"]
properties('MP2/aug-cc-pvtz', properties = ['dipole'])
--------------------------------------------------------------------------

    Molecular point group: c1
  Charge       = 0
  Multiplicity = 1
  Basis Set: AUG-CC-PVTZ
    Blend: AUG-CC-PVTZ
  Basis Set: (AUG-CC-PVTZ AUX)
    Blend: AUG-CC-PVTZ-JKFIT

    Orbital Energies [Eh]
    ---------------------

    Doubly Occupied:

       1A    -20.579179     2A    -11.299658     3A    -11.288104
       4A    -11.239746     5A    -11.239559     6A    -11.235402
       7A    -11.226110     8A    -11.221547     9A    -11.221516
      10A     -1.400911    11A     -1.145256    12A     -1.045688
      13A     -1.013876    14A     -0.985671    15A     -0.869625
      16A     -0.820961    17A     -0.803066    18A     -0.721343
      19A     -0.667745    20A     -0.665400    21A     -0.647552
      22A     -0.614753    23A     -0.587171    24A     -0.560656
      25A     -0.559129    26A     -0.545905    27A     -0.513026
      28A     -0.509058    29A     -0.502037    30A     -0.474672
      31A     -0.461727    32A     -0.338737    33A     -0.311140

  @DF-RHF Final Energy:  -383.75406700108289

   => Energetics <=

    Nuclear Repulsion Energy =            418.7240260809832648
    One-Electron Energy =               -1350.3243388724863507
    Two-Electron Energy =                 547.8462457904200846
    Total Energy =                       -383.7540670010829444
  Basis Set: (AUG-CC-PVTZ AUX)
    Blend: AUG-CC-PVTZ-RI
    Molecular point group: c1

    Geometry (in Angstrom), charge = 0, multiplicity = 1:

       Center              X                  Y                   Z               Mass
    ------------   -----------------  -----------------  -----------------  -----------------
         O            1.329658216959    -0.538278152663    -0.000013652666    15.994914619570
         C           -0.010579883041    -0.243182052663    -0.000009052666    12.000000000000
         C            2.281515216959     0.528844847337    -0.000004652666    12.000000000000
         C           -0.488573783041     1.114313847337     0.000003347334    12.000000000000
         C           -0.891060783041    -1.278259152663     0.000005347334    12.000000000000
         C            3.651817216959    -0.112733152663     0.000012347334    12.000000000000
         C           -1.871856783041     1.327723847337    -0.000002652666    12.000000000000
         C           -2.262803783041    -1.049788152663    -0.000001652666    12.000000000000
         C           -2.762973783041     0.257089847337     0.000011347334    12.000000000000
         H            2.139019216959     1.157043847337    -0.889112652666     1.007825032230
         H            2.139002216959     1.157040847337     0.889104347334     1.007825032230
         H            0.181419216959     1.967199847337    -0.000012652666     1.007825032230
         H           -0.480633783041    -2.284361152663    -0.000007652666     1.007825032230
         H            4.429593216959     0.656166847337     0.000007347334     1.007825032230
         H            3.775730216959    -0.737507152663     0.886796347334     1.007825032230
         H            3.775745216959    -0.737533152663    -0.886750652666     1.007825032230
         H           -2.247449783041     2.348465847337     0.000007347334     1.007825032230
         H           -2.945329783041    -1.896406152663     0.000012347334     1.007825032230
         H           -3.834913783041     0.435322847337     0.000001347334     1.007825032230

  Basis Set: AUG-CC-PVTZ
    Blend: AUG-CC-PVTZ
  Basis Set: (AUG-CC-PVTZ AUX)
    Blend: AUG-CC-PVTZ-JKFIT
	 Reference Energy          =    -383.7540670010828876 [Eh]
	 Singles Energy            =      -0.0000000000000000 [Eh]
	 Same-Spin Energy          =      -0.4084944716166013 [Eh]
	 Opposite-Spin Energy      =      -1.3142441813262444 [Eh]
	 Correlation Energy        =      -1.7227386529428457 [Eh]
	 Total Energy              =    -385.4768056540257248 [Eh]

	 ================> DF-SCS-MP2 Energies <==================
	-----------------------------------------------------------
	 SCS Same-Spin Scale       =       0.3333333333333333 [-]
	 SCS Opposite-Spin Scale   =       1.2000000000000000 [-]
	 SCS Same-Spin Energy      =      -0.1361648238722004 [Eh]
	 SCS Opposite-Spin Energy  =      -1.5770930175914932 [Eh]
	 SCS Correlation Energy    =      -1.7132578414636936 [Eh]
	 SCS Total Energy          =    -385.4673248425465886 [Eh]
	-----------------------------------------------------------

  Dipole Moment: [D]
     X:     0.8661      Y:     1.0224      Z:    -0.0000     Total:     1.3399

*** Psi4 exiting successfully. Buy a developer a beer!
