                               Psi4 1.3.2 release

  ==> Input File <==

--------------------------------------------------------------------------
#psi4
#
memory 32 gb

molecule  {
0 1
  O        1.2764910    -0.5580180    -0.0000140
  C       -0.0526320    -0.2163280    -0.0000090
  C        2.2283480     0.5091050    -0.0000050
  C       -0.5417410     1.0945740     0.0000030
  C       -0.9442280    -1.2979990     0.0000050
  C        3.5986500    -0.1324730     0.0000120
  C       -1.9250240     1.3079840    -0.0000030
  C       -2.3159710    -1.0695280    -0.0000020
  C       -2.8161410     0.2373500     0.0000110
  H        2.0858520     1.1373040    -0.8891130
  H        2.0858350     1.1373010     0.8891040
  H        0.1282520     1.9474600    -0.0000130
  H       -0.5338010    -2.3041010    -0.0000080
  H        4.3764260     0.6364270     0.0000070
  H        3.7225630    -0.7572470     0.8867960
  H        3.7225780    -0.7572730    -0.8867510
  H       -2.3006170     2.3287260     0.0000070
  H       -2.9984970    -1.9161460     0.0000120
  H       -3.8880810     0.4155830     0.0000010
units angstrom
no_reorient  #important for SAPT in psi4, default
symmetry c1  #important for SAPT in psi4, default
}

set PROPERTIES_ORIGIN ["COM"]
properties('MP2/aug-cc-pvtz', properties = ['dipole'])
--------------------------------------------------------------------------

    Molecular point group: c1
  Charge       = 0
  Multiplicity = 1
  Basis Set: AUG-CC-PVTZ
    Blend: AUG-CC-PVTZ
  Basis Set: (AUG-CC-PVTZ AUX)
    Blend: AUG-CC-PVTZ-JKFIT

    Orbital Energies [Eh]
    ---------------------

    Doubly Occupied:

       1A    -20.581478     2A    -11.299859     3A    -11.287450
       4A    -11.239945     5A    -11.238455     6A    -11.231476
       7A    -11.226542     8A    -11.226135     9A    -11.221527
      10A     -1.403048    11A     -1.144332    12A     -1.043720
      13A     -1.014921    14A     -0.985501    15A     -0.869305
      16A     -0.823383    17A     -0.800568    18A     -0.721388
      19A     -0.668586    20A     -0.665065    21A     -0.648366
      22A     -0.614074    23A     -0.586317    24A     -0.560824
      25A     -0.560200    26A     -0.545425    27A     -0.514285
      28A     -0.505497    29A     -0.501459    30A     -0.479026
      31A     -0.462130    32A     -0.338732    33A     -0.310944

  @DF-RHF Final Energy:  -383.75661958217790

   => Energetics <=

    Nuclear Repulsion Energy =            418.7768149456497326
    One-Electron Energy =               -1350.4269424434710345
    Two-Electron Energy =                 547.8935079156434540
    Total Energy =                       -383.7566195821779047
  Basis Set: (AUG-CC-PVTZ AUX)
    Blend: AUG-CC-PVTZ-RI
    Molecular point group: c1

    Geometry (in Angstrom), charge = 0, multiplicity = 1:

       Center              X                  Y                   Z               Mass
    ------------   -----------------  -----------------  -----------------  -----------------
         O            1.328565583700    -0.542858412380    -0.000013691987    15.994914619570
         C           -0.000557416300    -0.201168412380    -0.000008691987    12.000000000000
         C            2.280422583700     0.524264587620    -0.000004691987    12.000000000000
         C           -0.489666416300     1.109733587620     0.000003308013    12.000000000000
         C           -0.892153416300    -1.282839412380     0.000005308013    12.000000000000
         C            3.650724583700    -0.117313412380     0.000012308013    12.000000000000
         C           -1.872949416300     1.323143587620    -0.000002691987    12.000000000000
         C           -2.263896416300    -1.054368412380    -0.000001691987    12.000000000000
         C           -2.764066416300     0.252509587620     0.000011308013    12.000000000000
         H            2.137926583700     1.152463587620    -0.889112691987     1.007825032230
         H            2.137909583700     1.152460587620     0.889104308013     1.007825032230
         H            0.180326583700     1.962619587620    -0.000012691987     1.007825032230
         H           -0.481726416300    -2.288941412380    -0.000007691987     1.007825032230
         H            4.428500583700     0.651586587620     0.000007308013     1.007825032230
         H            3.774637583700    -0.742087412380     0.886796308013     1.007825032230
         H            3.774652583700    -0.742113412380    -0.886750691987     1.007825032230
         H           -2.248542416300     2.343885587620     0.000007308013     1.007825032230
         H           -2.946422416300    -1.900986412380     0.000012308013     1.007825032230
         H           -3.836006416300     0.430742587620     0.000001308013     1.007825032230

  Basis Set: AUG-CC-PVTZ
    Blend: AUG-CC-PVTZ
  Basis Set: (AUG-CC-PVTZ AUX)
    Blend: AUG-CC-PVTZ-JKFIT
	 Reference Energy          =    -383.7566195821779047 [Eh]
	 Singles Energy            =      -0.0000000000000000 [Eh]
	 Same-Spin Energy          =      -0.4085615816584778 [Eh]
	 Opposite-Spin Energy      =      -1.3144351189289494 [Eh]
	 Correlation Energy        =      -1.7229967005874272 [Eh]
	 Total Energy              =    -385.4796162827653347 [Eh]

	 ================> DF-SCS-MP2 Energies <==================
	-----------------------------------------------------------
	 SCS Same-Spin Scale       =       0.3333333333333333 [-]
	 SCS Opposite-Spin Scale   =       1.2000000000000000 [-]
	 SCS Same-Spin Energy      =      -0.1361871938861593 [Eh]
	 SCS Opposite-Spin Energy  =      -1.5773221427147393 [Eh]
	 SCS Correlation Energy    =      -1.7135093366008984 [Eh]
	 SCS Total Energy          =    -385.4701289187788120 [Eh]
	-----------------------------------------------------------

  Dipole Moment: [D]
     X:     0.8805      Y:     1.0295      Z:    -0.0000     Total:     1.3547

*** Psi4 exiting successfully. Buy a developer a beer!
