                               Psi4 1.3.2 release

  ==> Input File <==

--------------------------------------------------------------------------
#psi4
#
memory 32 gb

molecule  {
0 1
  O        1.2970884    -0.4644707    -0.0000132
  C       -0.0526320    -0.2163280    -0.0000090
  C        2.2283480     0.5091050    -0.0000050
  C       -0.5417410     1.0945740     0.0000030
  C       -0.9442280    -1.2979990     0.0000050
  C        3.5986500    -0.1324730     0.0000120
  C       -1.9250240     1.3079840    -0.0000030
  C       -2.3159710    -1.0695280    -0.0000020
  C       -2.8161410     0.2373500     0.0000110
  H        2.0858520     1.1373040    -0.8891130
  H        2.0858350     1.1373010     0.8891040
  H        0.1282520     1.9474600    -0.0000130
  H       -0.5338010    -2.3041010    -0.0000080
  H        4.3764260     0.6364270     0.0000070
  H        3.7225630    -0.7572470     0.8867960
  H        3.7225780    -0.7572730    -0.8867510
  H       -2.3006170     2.3287260     0.0000070
  H       -2.9984970    -1.9161460     0.0000120
  H       -3.8880810     0.4155830     0.0000010
units angstrom
no_reorient  #important for SAPT in psi4, default
symmetry c1  #important for SAPT in psi4, default
}

set PROPERTIES_ORIGIN ["COM"]
properties('MP2/aug-cc-pvtz', properties = ['dipole'])
--------------------------------------------------------------------------

    Molecular point group: c1
  Charge       = 0
  Multiplicity = 1
  Basis Set: AUG-CC-PVTZ
    Blend: AUG-CC-PVTZ
  Basis Set: (AUG-CC-PVTZ AUX)
    Blend: AUG-CC-PVTZ-JKFIT

    Orbital Energies [Eh]
    ---------------------

    Doubly Occupied:

       1A    -20.576864     2A    -11.304473     3A    -11.279673
       4A    -11.241349     5A    -11.240947     6A    -11.231705
       7A    -11.231380     8A    -11.228356     9A    -11.218569
      10A     -1.425457    11A     -1.148611    12A     -1.046954
      13A     -1.017103    14A     -0.985121    15A     -0.874499
      16A     -0.829685    17A     -0.798437    18A     -0.729422
      19A     -0.679927    20A     -0.670077    21A     -0.652615
      22A     -0.616778    23A     -0.588629    24A     -0.569742
      25A     -0.559355    26A     -0.546553    27A     -0.515221
      28A     -0.505140    29A     -0.501415    30A     -0.469245
      31A     -0.454143    32A     -0.340452    33A     -0.313209

  @DF-RHF Final Energy:  -383.75374797524671

   => Energetics <=

    Nuclear Repulsion Energy =            420.1750075564206668
    One-Electron Energy =               -1353.0753020763393124
    Two-Electron Energy =                 549.1465465446718781
    Total Energy =                       -383.7537479752467107
  Basis Set: (AUG-CC-PVTZ AUX)
    Blend: AUG-CC-PVTZ-RI
    Molecular point group: c1

    Geometry (in Angstrom), charge = 0, multiplicity = 1:

       Center              X                  Y                   Z               Mass
    ------------   -----------------  -----------------  -----------------  -----------------
         O            1.346464162427    -0.461568360541    -0.000012996809    15.994914619570
         C           -0.003256237573    -0.213425660541    -0.000008796809    12.000000000000
         C            2.277723762427     0.512007339459    -0.000004796809    12.000000000000
         C           -0.492365237573     1.097476339459     0.000003203191    12.000000000000
         C           -0.894852237573    -1.295096660541     0.000005203191    12.000000000000
         C            3.648025762427    -0.129570660541     0.000012203191    12.000000000000
         C           -1.875648237573     1.310886339459    -0.000002796809    12.000000000000
         C           -2.266595237573    -1.066625660541    -0.000001796809    12.000000000000
         C           -2.766765237573     0.240252339459     0.000011203191    12.000000000000
         H            2.135227762427     1.140206339459    -0.889112796809     1.007825032230
         H            2.135210762427     1.140203339459     0.889104203191     1.007825032230
         H            0.177627762427     1.950362339459    -0.000012796809     1.007825032230
         H           -0.484425237573    -2.301198660541    -0.000007796809     1.007825032230
         H            4.425801762427     0.639329339459     0.000007203191     1.007825032230
         H            3.771938762427    -0.754344660541     0.886796203191     1.007825032230
         H            3.771953762427    -0.754370660541    -0.886750796809     1.007825032230
         H           -2.251241237573     2.331628339459     0.000007203191     1.007825032230
         H           -2.949121237573    -1.913243660541     0.000012203191     1.007825032230
         H           -3.838705237573     0.418485339459     0.000001203191     1.007825032230

  Basis Set: AUG-CC-PVTZ
    Blend: AUG-CC-PVTZ
  Basis Set: (AUG-CC-PVTZ AUX)
    Blend: AUG-CC-PVTZ-JKFIT
	 Reference Energy          =    -383.7537479752467107 [Eh]
	 Singles Energy            =      -0.0000000000000000 [Eh]
	 Same-Spin Energy          =      -0.4081999211570504 [Eh]
	 Opposite-Spin Energy      =      -1.3122601900540536 [Eh]
	 Correlation Energy        =      -1.7204601112111040 [Eh]
	 Total Energy              =    -385.4742080864577929 [Eh]

	 ================> DF-SCS-MP2 Energies <==================
	-----------------------------------------------------------
	 SCS Same-Spin Scale       =       0.3333333333333333 [-]
	 SCS Opposite-Spin Scale   =       1.2000000000000000 [-]
	 SCS Same-Spin Energy      =      -0.1360666403856834 [Eh]
	 SCS Opposite-Spin Energy  =      -1.5747122280648642 [Eh]
	 SCS Correlation Energy    =      -1.7107788684505476 [Eh]
	 SCS Total Energy          =    -385.4645268436972856 [Eh]
	-----------------------------------------------------------

  Dipole Moment: [D]
     X:     0.5943      Y:     0.8096      Z:    -0.0000     Total:     1.0043

*** Psi4 exiting successfully. Buy a developer a beer!
