                               Psi4 1.3.2 release

  ==> Input File <==

--------------------------------------------------------------------------
#psi4
#
memory 32 gb

molecule  {
0 1
  O        1.3932501    -0.6516683    -0.0000125
  C       -0.0526320    -0.2163280    -0.0000090
  C        2.2283480     0.5091050    -0.0000050
  C       -0.5417410     1.0945740     0.0000030
  C       -0.9442280    -1.2979990     0.0000050
  C        3.5986500    -0.1324730     0.0000120
  C       -1.9250240     1.3079840    -0.0000030
  C       -2.3159710    -1.0695280    -0.0000020
  C       -2.8161410     0.2373500     0.0000110
  H        2.0858520     1.1373040    -0.8891130
  H        2.0858350     1.1373010     0.8891040
  H        0.1282520     1.9474600    -0.0000130
  H       -0.5338010    -2.3041010    -0.0000080
  H        4.3764260     0.6364270     0.0000070
  H        3.7225630    -0.7572470     0.8867960
  H        3.7225780    -0.7572730    -0.8867510
  H       -2.3006170     2.3287260     0.0000070
  H       -2.9984970    -1.9161460     0.0000120
  H       -3.8880810     0.4155830     0.0000010
units angstrom
no_reorient  #important for SAPT in psi4, default
symmetry c1  #important for SAPT in psi4, default
}

set PROPERTIES_ORIGIN ["COM"]
properties('MP2/aug-cc-pvtz', properties = ['dipole'])
--------------------------------------------------------------------------

    Molecular point group: c1
  Charge       = 0
  Multiplicity = 1
  Basis Set: AUG-CC-PVTZ
    Blend: AUG-CC-PVTZ
  Basis Set: (AUG-CC-PVTZ AUX)
    Blend: AUG-CC-PVTZ-JKFIT

    Orbital Energies [Eh]
    ---------------------

    Doubly Occupied:

       1A    -20.581874     2A    -11.306293     3A    -11.278370
       4A    -11.245624     5A    -11.243521     6A    -11.242804
       7A    -11.235567     8A    -11.235352     9A    -11.212043
      10A     -1.363484    11A     -1.151419    12A     -1.031132
      13A     -1.020546    14A     -0.988322    15A     -0.857043
      16A     -0.820779    17A     -0.807779    18A     -0.713911
      19A     -0.658192    20A     -0.657079    21A     -0.641957
      22A     -0.617453    23A     -0.592037    24A     -0.559781
      25A     -0.543235    26A     -0.536914    27A     -0.517851
      28A     -0.501065    29A     -0.494446    30A     -0.480308
      31A     -0.459051    32A     -0.343791    33A     -0.325862

  @DF-RHF Final Energy:  -383.73431479781880

   => Energetics <=

    Nuclear Repulsion Energy =            415.8792323015312604
    One-Electron Energy =               -1344.6973233405419705
    Two-Electron Energy =                 545.0837762411919130
    Total Energy =                       -383.7343147978187972
  Basis Set: (AUG-CC-PVTZ AUX)
    Blend: AUG-CC-PVTZ-RI
    Molecular point group: c1

    Geometry (in Angstrom), charge = 0, multiplicity = 1:

       Center              X                  Y                   Z               Mass
    ------------   -----------------  -----------------  -----------------  -----------------
         O            1.430026056549    -0.624237968411    -0.000012388528    15.994914619570
         C           -0.015856043451    -0.188897668411    -0.000008888528    12.000000000000
         C            2.265123956549     0.536535331589    -0.000004888528    12.000000000000
         C           -0.504965043451     1.122004331589     0.000003111472    12.000000000000
         C           -0.907452043451    -1.270568668411     0.000005111472    12.000000000000
         C            3.635425956549    -0.105042668411     0.000012111472    12.000000000000
         C           -1.888248043451     1.335414331589    -0.000002888528    12.000000000000
         C           -2.279195043451    -1.042097668411    -0.000001888528    12.000000000000
         C           -2.779365043451     0.264780331589     0.000011111472    12.000000000000
         H            2.122627956549     1.164734331589    -0.889112888528     1.007825032230
         H            2.122610956549     1.164731331589     0.889104111472     1.007825032230
         H            0.165027956549     1.974890331589    -0.000012888528     1.007825032230
         H           -0.497025043451    -2.276670668411    -0.000007888528     1.007825032230
         H            4.413201956549     0.663857331589     0.000007111472     1.007825032230
         H            3.759338956549    -0.729816668411     0.886796111472     1.007825032230
         H            3.759353956549    -0.729842668411    -0.886750888528     1.007825032230
         H           -2.263841043451     2.356156331589     0.000007111472     1.007825032230
         H           -2.961721043451    -1.888715668411     0.000012111472     1.007825032230
         H           -3.851305043451     0.443013331589     0.000001111472     1.007825032230

  Basis Set: AUG-CC-PVTZ
    Blend: AUG-CC-PVTZ
  Basis Set: (AUG-CC-PVTZ AUX)
    Blend: AUG-CC-PVTZ-JKFIT
	 Reference Energy          =    -383.7343147978187972 [Eh]
	 Singles Energy            =      -0.0000000000000000 [Eh]
	 Same-Spin Energy          =      -0.4100801042590794 [Eh]
	 Opposite-Spin Energy      =      -1.3198873377528861 [Eh]
	 Correlation Energy        =      -1.7299674420119655 [Eh]
	 Total Energy              =    -385.4642822398307658 [Eh]

	 ================> DF-SCS-MP2 Energies <==================
	-----------------------------------------------------------
	 SCS Same-Spin Scale       =       0.3333333333333333 [-]
	 SCS Opposite-Spin Scale   =       1.2000000000000000 [-]
	 SCS Same-Spin Energy      =      -0.1366933680863598 [Eh]
	 SCS Opposite-Spin Energy  =      -1.5838648053034634 [Eh]
	 SCS Correlation Energy    =      -1.7205581733898232 [Eh]
	 SCS Total Energy          =    -385.4548729712086015 [Eh]
	-----------------------------------------------------------

  Dipole Moment: [D]
     X:    -0.0708      Y:     1.1888      Z:     0.0000     Total:     1.1909

*** Psi4 exiting successfully. Buy a developer a beer!
