                               Psi4 1.3.2 release

  ==> Input File <==

--------------------------------------------------------------------------
#psi4
#
memory 32 gb

molecule  {
0 1
  O        1.2409880    -0.5216815    -0.0859277
  C       -0.0526320    -0.2163280    -0.0000090
  C        2.2283480     0.5091050    -0.0000050
  C       -0.5417410     1.0945740     0.0000030
  C       -0.9442280    -1.2979990     0.0000050
  C        3.5986500    -0.1324730     0.0000120
  C       -1.9250240     1.3079840    -0.0000030
  C       -2.3159710    -1.0695280    -0.0000020
  C       -2.8161410     0.2373500     0.0000110
  H        2.0858520     1.1373040    -0.8891130
  H        2.0858350     1.1373010     0.8891040
  H        0.1282520     1.9474600    -0.0000130
  H       -0.5338010    -2.3041010    -0.0000080
  H        4.3764260     0.6364270     0.0000070
  H        3.7225630    -0.7572470     0.8867960
  H        3.7225780    -0.7572730    -0.8867510
  H       -2.3006170     2.3287260     0.0000070
  H       -2.9984970    -1.9161460     0.0000120
  H       -3.8880810     0.4155830     0.0000010
units angstrom
no_reorient  #important for SAPT in psi4, default
symmetry c1  #important for SAPT in psi4, default
}

set PROPERTIES_ORIGIN ["COM"]
properties('MP2/aug-cc-pvtz', properties = ['dipole'])
--------------------------------------------------------------------------

    Molecular point group: c1
  Charge       = 0
  Multiplicity = 1
  Basis Set: AUG-CC-PVTZ
    Blend: AUG-CC-PVTZ
  Basis Set: (AUG-CC-PVTZ AUX)
    Blend: AUG-CC-PVTZ-JKFIT

    Orbital Energies [Eh]
    ---------------------

    Doubly Occupied:

       1A    -20.581356     2A    -11.297813     3A    -11.291027
       4A    -11.237990     5A    -11.236998     6A    -11.227044
       7A    -11.224879     8A    -11.223495     9A    -11.222798
      10A     -1.418255    11A     -1.141962    12A     -1.048619
      13A     -1.012988    14A     -0.984069    15A     -0.874795
      16A     -0.824563    17A     -0.798204    18A     -0.724579
      19A     -0.673238    20A     -0.665790    21A     -0.651389
      22A     -0.612696    23A     -0.584373    24A     -0.567748
      25A     -0.559680    26A     -0.549941    27A     -0.513564
      28A     -0.509159    29A     -0.501722    30A     -0.474998
      31A     -0.461009    32A     -0.336996    33A     -0.305822

  @DF-RHF Final Energy:  -383.75640162808281

   => Energetics <=

    Nuclear Repulsion Energy =            419.7340978108319405
    One-Electron Energy =               -1352.3018797918632572
    Two-Electron Energy =                 548.8113803529485040
    Total Energy =                       -383.7564016280828127
  Basis Set: (AUG-CC-PVTZ AUX)
    Blend: AUG-CC-PVTZ-RI
    Molecular point group: c1

    Geometry (in Angstrom), charge = 0, multiplicity = 1:

       Center              X                  Y                   Z               Mass
    ------------   -----------------  -----------------  -----------------  -----------------
         O            1.297714445180    -0.511282985097    -0.074670353662    15.994914619570
         C            0.004094445180    -0.205929485097     0.011248346338    12.000000000000
         C            2.285074445180     0.519503514903     0.011252346338    12.000000000000
         C           -0.485014554820     1.104972514903     0.011260346338    12.000000000000
         C           -0.887501554820    -1.287600485097     0.011262346338    12.000000000000
         C            3.655376445180    -0.122074485097     0.011269346338    12.000000000000
         C           -1.868297554820     1.318382514903     0.011254346338    12.000000000000
         C           -2.259244554820    -1.059129485097     0.011255346338    12.000000000000
         C           -2.759414554820     0.247748514903     0.011268346338    12.000000000000
         H            2.142578445180     1.147702514903    -0.877855653662     1.007825032230
         H            2.142561445180     1.147699514903     0.900361346338     1.007825032230
         H            0.184978445180     1.957858514903     0.011244346338     1.007825032230
         H           -0.477074554820    -2.293702485097     0.011249346338     1.007825032230
         H            4.433152445180     0.646825514903     0.011264346338     1.007825032230
         H            3.779289445180    -0.746848485097     0.898053346338     1.007825032230
         H            3.779304445180    -0.746874485097    -0.875493653662     1.007825032230
         H           -2.243890554820     2.339124514903     0.011264346338     1.007825032230
         H           -2.941770554820    -1.905747485097     0.011269346338     1.007825032230
         H           -3.831354554820     0.425981514903     0.011258346338     1.007825032230

  Basis Set: AUG-CC-PVTZ
    Blend: AUG-CC-PVTZ
  Basis Set: (AUG-CC-PVTZ AUX)
    Blend: AUG-CC-PVTZ-JKFIT
	 Reference Energy          =    -383.7564016280828127 [Eh]
	 Singles Energy            =      -0.0000000000000000 [Eh]
	 Same-Spin Energy          =      -0.4083046506368099 [Eh]
	 Opposite-Spin Energy      =      -1.3132077611914914 [Eh]
	 Correlation Energy        =      -1.7215124118283014 [Eh]
	 Total Energy              =    -385.4779140399111270 [Eh]

	 ================> DF-SCS-MP2 Energies <==================
	-----------------------------------------------------------
	 SCS Same-Spin Scale       =       0.3333333333333333 [-]
	 SCS Opposite-Spin Scale   =       1.2000000000000000 [-]
	 SCS Same-Spin Energy      =      -0.1361015502122700 [Eh]
	 SCS Opposite-Spin Energy  =      -1.5758493134297897 [Eh]
	 SCS Correlation Energy    =      -1.7119508636420597 [Eh]
	 SCS Total Energy          =    -385.4683524917248860 [Eh]
	-----------------------------------------------------------

  Dipole Moment: [D]
     X:     1.2111      Y:     0.9707      Z:     0.0936     Total:     1.5549

*** Psi4 exiting successfully. Buy a developer a beer!
