                               Psi4 1.3.2 release

  ==> Input File <==

--------------------------------------------------------------------------
#psi4
#
memory 32 gb

molecule  {
0 1
  O        1.2764910    -0.5580180    -0.0000140
  C       -0.0398975    -0.1701504    -0.0000086
  C        2.2283480     0.5091050    -0.0000050
  C       -0.5417410     1.0945740     0.0000030
  C       -0.9442280    -1.2979990     0.0000050
  C        3.5986500    -0.1324730     0.0000120
  C       -1.9250240     1.3079840    -0.0000030
  C       -2.3159710    -1.0695280    -0.0000020
  C       -2.8161410     0.2373500     0.0000110
  H        2.0858520     1.1373040    -0.8891130
  H        2.0858350     1.1373010     0.8891040
  H        0.1282520     1.9474600    -0.0000130
  H       -0.5338010    -2.3041010    -0.0000080
  H        4.3764260     0.6364270     0.0000070
  H        3.7225630    -0.7572470     0.8867960
  H        3.7225780    -0.7572730    -0.8867510
  H       -2.3006170     2.3287260     0.0000070
  H       -2.9984970    -1.9161460     0.0000120
  H       -3.8880810     0.4155830     0.0000010
units angstrom
no_reorient  #important for SAPT in psi4, default
symmetry c1  #important for SAPT in psi4, default
}

set PROPERTIES_ORIGIN ["COM"]
properties('MP2/aug-cc-pvtz', properties = ['dipole'])
--------------------------------------------------------------------------

    Molecular point group: c1
  Charge       = 0
  Multiplicity = 1
  Basis Set: AUG-CC-PVTZ
    Blend: AUG-CC-PVTZ
  Basis Set: (AUG-CC-PVTZ AUX)
    Blend: AUG-CC-PVTZ-JKFIT

    Orbital Energies [Eh]
    ---------------------

    Doubly Occupied:

       1A    -20.583706     2A    -11.299424     3A    -11.286883
       4A    -11.240031     5A    -11.237241     6A    -11.231022
       7A    -11.227241     8A    -11.226444     9A    -11.221502
      10A     -1.405103    11A     -1.144002    12A     -1.042226
      13A     -1.017510    14A     -0.984230    15A     -0.868969
      16A     -0.826292    17A     -0.797139    18A     -0.721459
      19A     -0.669521    20A     -0.666416    21A     -0.647926
      22A     -0.613616    23A     -0.584402    24A     -0.561473
      25A     -0.561188    26A     -0.544924    27A     -0.515528
      28A     -0.502964    29A     -0.501081    30A     -0.479763
      31A     -0.462509    32A     -0.341061    33A     -0.309534

  @DF-RHF Final Energy:  -383.75333179575739

   => Energetics <=

    Nuclear Repulsion Energy =            418.8451848760779512
    One-Electron Energy =               -1350.5523736079335322
    Two-Electron Energy =                 547.9538569360981910
    Total Energy =                       -383.7533317957573900
  Basis Set: (AUG-CC-PVTZ AUX)
    Blend: AUG-CC-PVTZ-RI
    Molecular point group: c1

    Geometry (in Angstrom), charge = 0, multiplicity = 1:

       Center              X                  Y                   Z               Mass
    ------------   -----------------  -----------------  -----------------  -----------------
         O            1.327313760664    -0.547397749099    -0.000013731307    15.994914619570
         C            0.010925260664    -0.159530149099    -0.000008331307    12.000000000000
         C            2.279170760664     0.519725250901    -0.000004731307    12.000000000000
         C           -0.490918239336     1.105194250901     0.000003268693    12.000000000000
         C           -0.893405239336    -1.287378749099     0.000005268693    12.000000000000
         C            3.649472760664    -0.121852749099     0.000012268693    12.000000000000
         C           -1.874201239336     1.318604250901    -0.000002731307    12.000000000000
         C           -2.265148239336    -1.058907749099    -0.000001731307    12.000000000000
         C           -2.765318239336     0.247970250901     0.000011268693    12.000000000000
         H            2.136674760664     1.147924250901    -0.889112731307     1.007825032230
         H            2.136657760664     1.147921250901     0.889104268693     1.007825032230
         H            0.179074760664     1.958080250901    -0.000012731307     1.007825032230
         H           -0.482978239336    -2.293480749099    -0.000007731307     1.007825032230
         H            4.427248760664     0.647047250901     0.000007268693     1.007825032230
         H            3.773385760664    -0.746626749099     0.886796268693     1.007825032230
         H            3.773400760664    -0.746652749099    -0.886750731307     1.007825032230
         H           -2.249794239336     2.339346250901     0.000007268693     1.007825032230
         H           -2.947674239336    -1.905525749099     0.000012268693     1.007825032230
         H           -3.837258239336     0.426203250901     0.000001268693     1.007825032230

  Basis Set: AUG-CC-PVTZ
    Blend: AUG-CC-PVTZ
  Basis Set: (AUG-CC-PVTZ AUX)
    Blend: AUG-CC-PVTZ-JKFIT
	 Reference Energy          =    -383.7533317957573900 [Eh]
	 Singles Energy            =      -0.0000000000000000 [Eh]
	 Same-Spin Energy          =      -0.4084720896013619 [Eh]
	 Opposite-Spin Energy      =      -1.3148560467903607 [Eh]
	 Correlation Energy        =      -1.7233281363917226 [Eh]
	 Total Energy              =    -385.4766599321491185 [Eh]

	 ================> DF-SCS-MP2 Energies <==================
	-----------------------------------------------------------
	 SCS Same-Spin Scale       =       0.3333333333333333 [-]
	 SCS Opposite-Spin Scale   =       1.2000000000000000 [-]
	 SCS Same-Spin Energy      =      -0.1361573632004540 [Eh]
	 SCS Opposite-Spin Energy  =      -1.5778272561484328 [Eh]
	 SCS Correlation Energy    =      -1.7139846193488868 [Eh]
	 SCS Total Energy          =    -385.4673164151062679 [Eh]
	-----------------------------------------------------------

  Dipole Moment: [D]
     X:     0.8943      Y:     1.0376      Z:    -0.0000     Total:     1.3698

*** Psi4 exiting successfully. Buy a developer a beer!
