                               Psi4 1.3.2 release

  ==> Input File <==

--------------------------------------------------------------------------
#psi4
#
memory 32 gb

molecule  {
0 1
  O        1.2764910    -0.5580180    -0.0000140
  C       -0.0526320    -0.2163280    -0.0000090
  C        2.0952173     0.3598528    -0.0000063
  C       -0.5417410     1.0945740     0.0000030
  C       -0.9442280    -1.2979990     0.0000050
  C        3.5986500    -0.1324730     0.0000120
  C       -1.9250240     1.3079840    -0.0000030
  C       -2.3159710    -1.0695280    -0.0000020
  C       -2.8161410     0.2373500     0.0000110
  H        2.0858520     1.1373040    -0.8891130
  H        2.0858350     1.1373010     0.8891040
  H        0.1282520     1.9474600    -0.0000130
  H       -0.5338010    -2.3041010    -0.0000080
  H        4.3764260     0.6364270     0.0000070
  H        3.7225630    -0.7572470     0.8867960
  H        3.7225780    -0.7572730    -0.8867510
  H       -2.3006170     2.3287260     0.0000070
  H       -2.9984970    -1.9161460     0.0000120
  H       -3.8880810     0.4155830     0.0000010
units angstrom
no_reorient  #important for SAPT in psi4, default
symmetry c1  #important for SAPT in psi4, default
}

set PROPERTIES_ORIGIN ["COM"]
properties('MP2/aug-cc-pvtz', properties = ['dipole'])
--------------------------------------------------------------------------

    Molecular point group: c1
  Charge       = 0
  Multiplicity = 1
  Basis Set: AUG-CC-PVTZ
    Blend: AUG-CC-PVTZ
  Basis Set: (AUG-CC-PVTZ AUX)
    Blend: AUG-CC-PVTZ-JKFIT

    Orbital Energies [Eh]
    ---------------------

    Doubly Occupied:

       1A    -20.600497     2A    -11.310111     3A    -11.291220
       4A    -11.245554     5A    -11.244642     6A    -11.240522
       7A    -11.237106     8A    -11.235088     9A    -11.215827
      10A     -1.490390    11A     -1.156593    12A     -1.046030
      13A     -1.022535    14A     -0.978893    15A     -0.883165
      16A     -0.838443    17A     -0.792977    18A     -0.745040
      19A     -0.691367    20A     -0.678112    21A     -0.671062
      22A     -0.621133    23A     -0.596310    24A     -0.589519
      25A     -0.555776    26A     -0.547193    27A     -0.520403
      28A     -0.500534    29A     -0.500474    30A     -0.446317
      31A     -0.425299    32A     -0.344635    33A     -0.322082

  @DF-RHF Final Energy:  -383.71429977608568

   => Energetics <=

    Nuclear Repulsion Energy =            422.1726772642588799
    One-Electron Energy =               -1356.6042650576155211
    Two-Electron Energy =                 550.7172880172709029
    Total Energy =                       -383.7142997760856815
  Basis Set: (AUG-CC-PVTZ AUX)
    Blend: AUG-CC-PVTZ-RI
    Molecular point group: c1

    Geometry (in Angstrom), charge = 0, multiplicity = 1:

       Center              X                  Y                   Z               Mass
    ------------   -----------------  -----------------  -----------------  -----------------
         O            1.341652558227    -0.528186666949    -0.000013564195    15.994914619570
         C            0.012529558227    -0.186496666949    -0.000008564195    12.000000000000
         C            2.160378858227     0.389684133051    -0.000005864195    12.000000000000
         C           -0.476579441773     1.124405333051     0.000003435805    12.000000000000
         C           -0.879066441773    -1.268167666949     0.000005435805    12.000000000000
         C            3.663811558227    -0.102641666949     0.000012435805    12.000000000000
         C           -1.859862441773     1.337815333051    -0.000002564195    12.000000000000
         C           -2.250809441773    -1.039696666949    -0.000001564195    12.000000000000
         C           -2.750979441773     0.267181333051     0.000011435805    12.000000000000
         H            2.151013558227     1.167135333051    -0.889112564195     1.007825032230
         H            2.150996558227     1.167132333051     0.889104435805     1.007825032230
         H            0.193413558227     1.977291333051    -0.000012564195     1.007825032230
         H           -0.468639441773    -2.274269666949    -0.000007564195     1.007825032230
         H            4.441587558227     0.666258333051     0.000007435805     1.007825032230
         H            3.787724558227    -0.727415666949     0.886796435805     1.007825032230
         H            3.787739558227    -0.727441666949    -0.886750564195     1.007825032230
         H           -2.235455441773     2.358557333051     0.000007435805     1.007825032230
         H           -2.933335441773    -1.886314666949     0.000012435805     1.007825032230
         H           -3.822919441773     0.445414333051     0.000001435805     1.007825032230

  Basis Set: AUG-CC-PVTZ
    Blend: AUG-CC-PVTZ
  Basis Set: (AUG-CC-PVTZ AUX)
    Blend: AUG-CC-PVTZ-JKFIT
	 Reference Energy          =    -383.7142997760856815 [Eh]
	 Singles Energy            =      -0.0000000000000000 [Eh]
	 Same-Spin Energy          =      -0.4094918687841774 [Eh]
	 Opposite-Spin Energy      =      -1.3140513072329112 [Eh]
	 Correlation Energy        =      -1.7235431760170887 [Eh]
	 Total Energy              =    -385.4378429521027556 [Eh]

	 ================> DF-SCS-MP2 Energies <==================
	-----------------------------------------------------------
	 SCS Same-Spin Scale       =       0.3333333333333333 [-]
	 SCS Opposite-Spin Scale   =       1.2000000000000000 [-]
	 SCS Same-Spin Energy      =      -0.1364972895947258 [Eh]
	 SCS Opposite-Spin Energy  =      -1.5768615686794933 [Eh]
	 SCS Correlation Energy    =      -1.7133588582742192 [Eh]
	 SCS Total Energy          =    -385.4276586343598865 [Eh]
	-----------------------------------------------------------

  Dipole Moment: [D]
     X:    -0.2123      Y:     0.5290      Z:    -0.0000     Total:     0.5700

*** Psi4 exiting successfully. Buy a developer a beer!
