                               Psi4 1.3.2 release

  ==> Input File <==

--------------------------------------------------------------------------
#psi4
#
memory 32 gb

molecule  {
0 1
  O        1.2822519    -0.5347696    -0.0000138
  C       -0.0526320    -0.2163280    -0.0000090
  C        2.2283480     0.5091050    -0.0000050
  C       -0.5417410     1.0945740     0.0000030
  C       -0.9442280    -1.2979990     0.0000050
  C        3.5986500    -0.1324730     0.0000120
  C       -1.9250240     1.3079840    -0.0000030
  C       -2.3159710    -1.0695280    -0.0000020
  C       -2.8161410     0.2373500     0.0000110
  H        2.0858520     1.1373040    -0.8891130
  H        2.0858350     1.1373010     0.8891040
  H        0.1282520     1.9474600    -0.0000130
  H       -0.5338010    -2.3041010    -0.0000080
  H        4.3764260     0.6364270     0.0000070
  H        3.7225630    -0.7572470     0.8867960
  H        3.7225780    -0.7572730    -0.8867510
  H       -2.3006170     2.3287260     0.0000070
  H       -2.9984970    -1.9161460     0.0000120
  H       -3.8880810     0.4155830     0.0000010
units angstrom
no_reorient  #important for SAPT in psi4, default
symmetry c1  #important for SAPT in psi4, default
}

set PROPERTIES_ORIGIN ["COM"]
properties('MP2/aug-cc-pvtz', properties = ['dipole'])
--------------------------------------------------------------------------

    Molecular point group: c1
  Charge       = 0
  Multiplicity = 1
  Basis Set: AUG-CC-PVTZ
    Blend: AUG-CC-PVTZ
  Basis Set: (AUG-CC-PVTZ AUX)
    Blend: AUG-CC-PVTZ-JKFIT

    Orbital Energies [Eh]
    ---------------------

    Doubly Occupied:

       1A    -20.580445     2A    -11.300898     3A    -11.285421
       4A    -11.240192     5A    -11.239172     6A    -11.231515
       7A    -11.227722     8A    -11.226675     9A    -11.220798
      10A     -1.408253    11A     -1.145355    12A     -1.044355
      13A     -1.015450    14A     -0.985464    15A     -0.870376
      16A     -0.824884    17A     -0.800065    18A     -0.723443
      19A     -0.671128    20A     -0.666361    21A     -0.649348
      22A     -0.614779    23A     -0.586848    24A     -0.561971
      25A     -0.560472    26A     -0.546299    27A     -0.514289
      28A     -0.505234    29A     -0.501269    30A     -0.477424
      31A     -0.460433    32A     -0.339145    33A     -0.311546

  @DF-RHF Final Energy:  -383.75728102275428

   => Energetics <=

    Nuclear Repulsion Energy =            419.1170044632648910
    One-Electron Energy =               -1351.0745112831009465
    Two-Electron Energy =                 548.2002257970816572
    Total Energy =                       -383.7572810227543414
  Basis Set: (AUG-CC-PVTZ AUX)
    Blend: AUG-CC-PVTZ-RI
    Molecular point group: c1

    Geometry (in Angstrom), charge = 0, multiplicity = 1:

       Center              X                  Y                   Z               Mass
    ------------   -----------------  -----------------  -----------------  -----------------
         O            1.333571648650    -0.522656186969    -0.000013518192    15.994914619570
         C           -0.001312251350    -0.204214586969    -0.000008718192    12.000000000000
         C            2.279667748650     0.521218413031    -0.000004718192    12.000000000000
         C           -0.490421251350     1.106687413031     0.000003281808    12.000000000000
         C           -0.892908251350    -1.285885586969     0.000005281808    12.000000000000
         C            3.649969748650    -0.120359586969     0.000012281808    12.000000000000
         C           -1.873704251350     1.320097413031    -0.000002718192    12.000000000000
         C           -2.264651251350    -1.057414586969    -0.000001718192    12.000000000000
         C           -2.764821251350     0.249463413031     0.000011281808    12.000000000000
         H            2.137171748650     1.149417413031    -0.889112718192     1.007825032230
         H            2.137154748650     1.149414413031     0.889104281808     1.007825032230
         H            0.179571748650     1.959573413031    -0.000012718192     1.007825032230
         H           -0.482481251350    -2.291987586969    -0.000007718192     1.007825032230
         H            4.427745748650     0.648540413031     0.000007281808     1.007825032230
         H            3.773882748650    -0.745133586969     0.886796281808     1.007825032230
         H            3.773897748650    -0.745159586969    -0.886750718192     1.007825032230
         H           -2.249297251350     2.340839413031     0.000007281808     1.007825032230
         H           -2.947177251350    -1.904032586969     0.000012281808     1.007825032230
         H           -3.836761251350     0.427696413031     0.000001281808     1.007825032230

  Basis Set: AUG-CC-PVTZ
    Blend: AUG-CC-PVTZ
  Basis Set: (AUG-CC-PVTZ AUX)
    Blend: AUG-CC-PVTZ-JKFIT
	 Reference Energy          =    -383.7572810227542845 [Eh]
	 Singles Energy            =      -0.0000000000000000 [Eh]
	 Same-Spin Energy          =      -0.4084258659575563 [Eh]
	 Opposite-Spin Energy      =      -1.3137970130375995 [Eh]
	 Correlation Energy        =      -1.7222228789951557 [Eh]
	 Total Energy              =    -385.4795039017494673 [Eh]

	 ================> DF-SCS-MP2 Energies <==================
	-----------------------------------------------------------
	 SCS Same-Spin Scale       =       0.3333333333333333 [-]
	 SCS Opposite-Spin Scale   =       1.2000000000000000 [-]
	 SCS Same-Spin Energy      =      -0.1361419553191854 [Eh]
	 SCS Opposite-Spin Energy  =      -1.5765564156451195 [Eh]
	 SCS Correlation Energy    =      -1.7126983709643049 [Eh]
	 SCS Total Energy          =    -385.4699793937185746 [Eh]
	-----------------------------------------------------------

  Dipole Moment: [D]
     X:     0.8117      Y:     0.9779      Z:    -0.0000     Total:     1.2709

*** Psi4 exiting successfully. Buy a developer a beer!
