                               Psi4 1.3.2 release

  ==> Input File <==

--------------------------------------------------------------------------
#psi4
#
memory 32 gb

molecule  {
0 1
  O        1.3049263    -0.4172150    -0.0000128
  C       -0.0526320    -0.2163280    -0.0000090
  C        2.2283480     0.5091050    -0.0000050
  C       -0.5417410     1.0945740     0.0000030
  C       -0.9442280    -1.2979990     0.0000050
  C        3.5986500    -0.1324730     0.0000120
  C       -1.9250240     1.3079840    -0.0000030
  C       -2.3159710    -1.0695280    -0.0000020
  C       -2.8161410     0.2373500     0.0000110
  H        2.0858520     1.1373040    -0.8891130
  H        2.0858350     1.1373010     0.8891040
  H        0.1282520     1.9474600    -0.0000130
  H       -0.5338010    -2.3041010    -0.0000080
  H        4.3764260     0.6364270     0.0000070
  H        3.7225630    -0.7572470     0.8867960
  H        3.7225780    -0.7572730    -0.8867510
  H       -2.3006170     2.3287260     0.0000070
  H       -2.9984970    -1.9161460     0.0000120
  H       -3.8880810     0.4155830     0.0000010
units angstrom
no_reorient  #important for SAPT in psi4, default
symmetry c1  #important for SAPT in psi4, default
}

set PROPERTIES_ORIGIN ["COM"]
properties('MP2/aug-cc-pvtz', properties = ['dipole'])
--------------------------------------------------------------------------

    Molecular point group: c1
  Charge       = 0
  Multiplicity = 1
  Basis Set: AUG-CC-PVTZ
    Blend: AUG-CC-PVTZ
  Basis Set: (AUG-CC-PVTZ AUX)
    Blend: AUG-CC-PVTZ-JKFIT

    Orbital Energies [Eh]
    ---------------------

    Doubly Occupied:

       1A    -20.574178     2A    -11.307285     3A    -11.276197
       4A    -11.242831     5A    -11.241481     6A    -11.233920
       7A    -11.231919     8A    -11.229544     9A    -11.216995
      10A     -1.438222    11A     -1.150960    12A     -1.049260
      13A     -1.018271    14A     -0.984729    15A     -0.878050
      16A     -0.832987    17A     -0.797352    18A     -0.733104
      19A     -0.686761    20A     -0.672416    21A     -0.655078
      22A     -0.618032    23A     -0.590073    24A     -0.575589
      25A     -0.558571    26A     -0.545857    27A     -0.516198
      28A     -0.505609    29A     -0.502024    30A     -0.461666
      31A     -0.449108    32A     -0.341391    33A     -0.314172

  @DF-RHF Final Energy:  -383.74627130135968

   => Energetics <=

    Nuclear Repulsion Energy =            420.9069678511773986
    One-Electron Energy =               -1354.4468207774280017
    Two-Electron Energy =                 549.7935816248909759
    Total Energy =                       -383.7462713013596840
  Basis Set: (AUG-CC-PVTZ AUX)
    Blend: AUG-CC-PVTZ-RI
    Molecular point group: c1

    Geometry (in Angstrom), charge = 0, multiplicity = 1:

       Center              X                  Y                   Z               Mass
    ------------   -----------------  -----------------  -----------------  -----------------
         O            1.353275083719    -0.420504446321    -0.000012649219    15.994914619570
         C           -0.004283216281    -0.219617446321    -0.000008849219    12.000000000000
         C            2.276696783719     0.505815553679    -0.000004849219    12.000000000000
         C           -0.493392216281     1.091284553679     0.000003150781    12.000000000000
         C           -0.895879216281    -1.301288446321     0.000005150781    12.000000000000
         C            3.646998783719    -0.135762446321     0.000012150781    12.000000000000
         C           -1.876675216281     1.304694553679    -0.000002849219    12.000000000000
         C           -2.267622216281    -1.072817446321    -0.000001849219    12.000000000000
         C           -2.767792216281     0.234060553679     0.000011150781    12.000000000000
         H            2.134200783719     1.134014553679    -0.889112849219     1.007825032230
         H            2.134183783719     1.134011553679     0.889104150781     1.007825032230
         H            0.176600783719     1.944170553679    -0.000012849219     1.007825032230
         H           -0.485452216281    -2.307390446321    -0.000007849219     1.007825032230
         H            4.424774783719     0.633137553679     0.000007150781     1.007825032230
         H            3.770911783719    -0.760536446321     0.886796150781     1.007825032230
         H            3.770926783719    -0.760562446321    -0.886750849219     1.007825032230
         H           -2.252268216281     2.325436553679     0.000007150781     1.007825032230
         H           -2.950148216281    -1.919435446321     0.000012150781     1.007825032230
         H           -3.839732216281     0.412293553679     0.000001150781     1.007825032230

  Basis Set: AUG-CC-PVTZ
    Blend: AUG-CC-PVTZ
  Basis Set: (AUG-CC-PVTZ AUX)
    Blend: AUG-CC-PVTZ-JKFIT
	 Reference Energy          =    -383.7462713013596840 [Eh]
	 Singles Energy            =      -0.0000000000000000 [Eh]
	 Same-Spin Energy          =      -0.4082041382442616 [Eh]
	 Opposite-Spin Energy      =      -1.3115632610134063 [Eh]
	 Correlation Energy        =      -1.7197673992576679 [Eh]
	 Total Energy              =    -385.4660387006173323 [Eh]

	 ================> DF-SCS-MP2 Energies <==================
	-----------------------------------------------------------
	 SCS Same-Spin Scale       =       0.3333333333333333 [-]
	 SCS Opposite-Spin Scale   =       1.2000000000000000 [-]
	 SCS Same-Spin Energy      =      -0.1360680460814205 [Eh]
	 SCS Opposite-Spin Energy  =      -1.5738759132160876 [Eh]
	 SCS Correlation Energy    =      -1.7099439592975081 [Eh]
	 SCS Total Energy          =    -385.4562152606571885 [Eh]
	-----------------------------------------------------------

  Dipole Moment: [D]
     X:     0.4382      Y:     0.6858      Z:    -0.0000     Total:     0.8139

*** Psi4 exiting successfully. Buy a developer a beer!
