                               Psi4 1.3.2 release

  ==> Input File <==

--------------------------------------------------------------------------
#psi4
#
memory 32 gb

molecule  {
0 1
  O        1.2764910    -0.5580180    -0.0000140
  C        0.1410696    -0.2661247    -0.0000097
  C        2.2283480     0.5091050    -0.0000050
  C       -0.5417410     1.0945740     0.0000030
  C       -0.9442280    -1.2979990     0.0000050
  C        3.5986500    -0.1324730     0.0000120
  C       -1.9250240     1.3079840    -0.0000030
  C       -2.3159710    -1.0695280    -0.0000020
  C       -2.8161410     0.2373500     0.0000110
  H        2.0858520     1.1373040    -0.8891130
  H        2.0858350     1.1373010     0.8891040
  H        0.1282520     1.9474600    -0.0000130
  H       -0.5338010    -2.3041010    -0.0000080
  H        4.3764260     0.6364270     0.0000070
  H        3.7225630    -0.7572470     0.8867960
  H        3.7225780    -0.7572730    -0.8867510
  H       -2.3006170     2.3287260     0.0000070
  H       -2.9984970    -1.9161460     0.0000120
  H       -3.8880810     0.4155830     0.0000010
units angstrom
no_reorient  #important for SAPT in psi4, default
symmetry c1  #important for SAPT in psi4, default
}

set PROPERTIES_ORIGIN ["COM"]
properties('MP2/aug-cc-pvtz', properties = ['dipole'])
--------------------------------------------------------------------------

    Molecular point group: c1
  Charge       = 0
  Multiplicity = 1
  Basis Set: AUG-CC-PVTZ
    Blend: AUG-CC-PVTZ
  Basis Set: (AUG-CC-PVTZ AUX)
    Blend: AUG-CC-PVTZ-JKFIT

    Orbital Energies [Eh]
    ---------------------

    Doubly Occupied:

       1A    -20.622394     2A    -11.320822     3A    -11.312596
       4A    -11.237899     5A    -11.231791     6A    -11.230193
       7A    -11.226946     8A    -11.218700     9A    -11.208248
      10A     -1.526841    11A     -1.117281    12A     -1.076882
      13A     -0.994965    14A     -0.966404    15A     -0.901256
      16A     -0.825042    17A     -0.796541    18A     -0.741351
      19A     -0.716314    20A     -0.679990    21A     -0.664855
      22A     -0.602841    23A     -0.598974    24A     -0.570299
      25A     -0.566123    26A     -0.553030    27A     -0.535640
      28A     -0.515160    29A     -0.506822    30A     -0.462084
      31A     -0.434940    32A     -0.327465    33A     -0.275636

  @DF-RHF Final Energy:  -383.69905589426594

   => Energetics <=

    Nuclear Repulsion Energy =            419.4111745356610754
    One-Electron Energy =               -1351.0878146989659854
    Two-Electron Energy =                 547.9775842690389709
    Total Energy =                       -383.6990558942659391
  Basis Set: (AUG-CC-PVTZ AUX)
    Blend: AUG-CC-PVTZ-RI
    Molecular point group: c1

    Geometry (in Angstrom), charge = 0, multiplicity = 1:

       Center              X                  Y                   Z               Mass
    ------------   -----------------  -----------------  -----------------  -----------------
         O            1.309524386553    -0.537963311969    -0.000013623176    15.994914619570
         C            0.174102986553    -0.246070011969    -0.000009323176    12.000000000000
         C            2.261381386553     0.529159688031    -0.000004623176    12.000000000000
         C           -0.508707613447     1.114628688031     0.000003376824    12.000000000000
         C           -0.911194613447    -1.277944311969     0.000005376824    12.000000000000
         C            3.631683386553    -0.112418311969     0.000012376824    12.000000000000
         C           -1.891990613447     1.328038688031    -0.000002623176    12.000000000000
         C           -2.282937613447    -1.049473311969    -0.000001623176    12.000000000000
         C           -2.783107613447     0.257404688031     0.000011376824    12.000000000000
         H            2.118885386553     1.157358688031    -0.889112623176     1.007825032230
         H            2.118868386553     1.157355688031     0.889104376824     1.007825032230
         H            0.161285386553     1.967514688031    -0.000012623176     1.007825032230
         H           -0.500767613447    -2.284046311969    -0.000007623176     1.007825032230
         H            4.409459386553     0.656481688031     0.000007376824     1.007825032230
         H            3.755596386553    -0.737192311969     0.886796376824     1.007825032230
         H            3.755611386553    -0.737218311969    -0.886750623176     1.007825032230
         H           -2.267583613447     2.348780688031     0.000007376824     1.007825032230
         H           -2.965463613447    -1.896091311969     0.000012376824     1.007825032230
         H           -3.855047613447     0.435637688031     0.000001376824     1.007825032230

  Basis Set: AUG-CC-PVTZ
    Blend: AUG-CC-PVTZ
  Basis Set: (AUG-CC-PVTZ AUX)
    Blend: AUG-CC-PVTZ-JKFIT
	 Reference Energy          =    -383.6990558942659391 [Eh]
	 Singles Energy            =      -0.0000000000000000 [Eh]
	 Same-Spin Energy          =      -0.4094936090198098 [Eh]
	 Opposite-Spin Energy      =      -1.3151617968653184 [Eh]
	 Correlation Energy        =      -1.7246554058851282 [Eh]
	 Total Energy              =    -385.4237113001510693 [Eh]

	 ================> DF-SCS-MP2 Energies <==================
	-----------------------------------------------------------
	 SCS Same-Spin Scale       =       0.3333333333333333 [-]
	 SCS Opposite-Spin Scale   =       1.2000000000000000 [-]
	 SCS Same-Spin Energy      =      -0.1364978696732699 [Eh]
	 SCS Opposite-Spin Energy  =      -1.5781941562383821 [Eh]
	 SCS Correlation Energy    =      -1.7146920259116520 [Eh]
	 SCS Total Energy          =    -385.4137479201775704 [Eh]
	-----------------------------------------------------------

  Dipole Moment: [D]
     X:     2.7777      Y:     0.8972      Z:    -0.0000     Total:     2.9190

*** Psi4 exiting successfully. Buy a developer a beer!
