                               Psi4 1.4a3.dev225

  ==> Input File <==

--------------------------------------------------------------------------
#psi4
#
memory 32 gb

molecule  {
0 1
  O        1.2764910    -0.5580180    -0.0000140
  C       -0.0042066    -0.2287772    -0.0000092
  C        2.2283480     0.5091050    -0.0000050
  C       -0.5417410     1.0945740     0.0000030
  C       -0.9442280    -1.2979990     0.0000050
  C        3.5986500    -0.1324730     0.0000120
  C       -1.9250240     1.3079840    -0.0000030
  C       -2.3159710    -1.0695280    -0.0000020
  C       -2.8161410     0.2373500     0.0000110
  H        2.0858520     1.1373040    -0.8891130
  H        2.0858350     1.1373010     0.8891040
  H        0.1282520     1.9474600    -0.0000130
  H       -0.5338010    -2.3041010    -0.0000080
  H        4.3764260     0.6364270     0.0000070
  H        3.7225630    -0.7572470     0.8867960
  H        3.7225780    -0.7572730    -0.8867510
  H       -2.3006170     2.3287260     0.0000070
  H       -2.9984970    -1.9161460     0.0000120
  H       -3.8880810     0.4155830     0.0000010
units angstrom
no_reorient  #important for SAPT in psi4, default
symmetry c1  #important for SAPT in psi4, default
}

set PROPERTIES_ORIGIN ["COM"]
properties('MP2/aug-cc-pvtz', properties = ['dipole'])
--------------------------------------------------------------------------

    Molecular point group: c1
  Charge       = 0
  Multiplicity = 1
  Basis Set: AUG-CC-PVTZ
    Blend: AUG-CC-PVTZ
  Basis Set: (AUG-CC-PVTZ AUX)
    Blend: AUG-CC-PVTZ-JKFIT

    Orbital Energies [Eh]
    ---------------------

    Doubly Occupied:

       1A    -20.590301     2A    -11.304359     3A    -11.292897
       4A    -11.238030     5A    -11.236545     6A    -11.230985
       7A    -11.225088     8A    -11.225009     9A    -11.222659
      10A     -1.428204    11A     -1.137084    12A     -1.050052
      13A     -1.009666    14A     -0.981971    15A     -0.875559
      16A     -0.821237    17A     -0.799943    18A     -0.725968
      19A     -0.677490    20A     -0.668004    21A     -0.652028
      22A     -0.612085    23A     -0.580332    24A     -0.568243
      25A     -0.562572    26A     -0.548717    27A     -0.514921
      28A     -0.511227    29A     -0.501665    30A     -0.471612
      31A     -0.465236    32A     -0.335931    33A     -0.302863

  @DF-RHF Final Energy:  -383.75408049431934

   => Energetics <=

    Nuclear Repulsion Energy =            418.8246137346870341
    One-Electron Energy =               -1350.4204186933143319
    Two-Electron Energy =                 547.8417244643078448
    Total Energy =                       -383.7540804943193962
  Basis Set: (AUG-CC-PVTZ AUX)
    Blend: AUG-CC-PVTZ-RI
    Molecular point group: c1

    Geometry (in Angstrom), charge = 0, multiplicity = 1:

       Center              X                  Y                   Z               Mass
    ------------   -----------------  -----------------  -----------------  -----------------
         O            1.323805284413    -0.541634634820    -0.000013672326    15.994914619570
         C            0.043107684413    -0.212393834820    -0.000008872326    12.000000000000
         C            2.275662284413     0.525488365180    -0.000004672326    12.000000000000
         C           -0.494426715587     1.110957365180     0.000003327674    12.000000000000
         C           -0.896913715587    -1.281615634820     0.000005327674    12.000000000000
         C            3.645964284413    -0.116089634820     0.000012327674    12.000000000000
         C           -1.877709715587     1.324367365180    -0.000002672326    12.000000000000
         C           -2.268656715587    -1.053144634820    -0.000001672326    12.000000000000
         C           -2.768826715587     0.253733365180     0.000011327674    12.000000000000
         H            2.133166284413     1.153687365180    -0.889112672326     1.007825032230
         H            2.133149284413     1.153684365180     0.889104327674     1.007825032230
         H            0.175566284413     1.963843365180    -0.000012672326     1.007825032230
         H           -0.486486715587    -2.287717634820    -0.000007672326     1.007825032230
         H            4.423740284413     0.652810365180     0.000007327674     1.007825032230
         H            3.769877284413    -0.740863634820     0.886796327674     1.007825032230
         H            3.769892284413    -0.740889634820    -0.886750672326     1.007825032230
         H           -2.253302715587     2.345109365180     0.000007327674     1.007825032230
         H           -2.951182715587    -1.899762634820     0.000012327674     1.007825032230
         H           -3.840766715587     0.431966365180     0.000001327674     1.007825032230

  Basis Set: AUG-CC-PVTZ
    Blend: AUG-CC-PVTZ
  Basis Set: (AUG-CC-PVTZ AUX)
    Blend: AUG-CC-PVTZ-JKFIT
	 Reference Energy          =    -383.7540804943193393 [Eh]
	 Singles Energy            =      -0.0000000000000000 [Eh]
	 Same-Spin Energy          =      -0.4086383513939787 [Eh]
	 Opposite-Spin Energy      =      -1.3142750218224397 [Eh]
	 Correlation Energy        =      -1.7229133732164184 [Eh]
	 Total Energy              =    -385.4769938675357821 [Eh]

	 ================> DF-SCS-MP2 Energies <==================
	-----------------------------------------------------------
	 SCS Same-Spin Scale       =       0.3333333333333333 [-]
	 SCS Opposite-Spin Scale   =       1.2000000000000000 [-]
	 SCS Same-Spin Energy      =      -0.1362127837979929 [Eh]
	 SCS Opposite-Spin Energy  =      -1.5771300261869277 [Eh]
	 SCS Correlation Energy    =      -1.7133428099849206 [Eh]
	 SCS Total Energy          =    -385.4674233043042477 [Eh]
	-----------------------------------------------------------

  Dipole Moment: [D]
     X:     1.3006      Y:     1.0004      Z:    -0.0000     Total:     1.6408

*** Psi4 exiting successfully. Buy a developer a beer!
