                               Psi4 1.3.2 release

  ==> Input File <==

--------------------------------------------------------------------------
#psi4
#
memory 32 gb

molecule  {
0 1
  O        1.2764910    -0.5580180    -0.0000140
  C       -0.0526320    -0.2163280    -0.0000090
  C        2.2949133     0.5837311    -0.0000044
  C       -0.5417410     1.0945740     0.0000030
  C       -0.9442280    -1.2979990     0.0000050
  C        3.5986500    -0.1324730     0.0000120
  C       -1.9250240     1.3079840    -0.0000030
  C       -2.3159710    -1.0695280    -0.0000020
  C       -2.8161410     0.2373500     0.0000110
  H        2.0858520     1.1373040    -0.8891130
  H        2.0858350     1.1373010     0.8891040
  H        0.1282520     1.9474600    -0.0000130
  H       -0.5338010    -2.3041010    -0.0000080
  H        4.3764260     0.6364270     0.0000070
  H        3.7225630    -0.7572470     0.8867960
  H        3.7225780    -0.7572730    -0.8867510
  H       -2.3006170     2.3287260     0.0000070
  H       -2.9984970    -1.9161460     0.0000120
  H       -3.8880810     0.4155830     0.0000010
units angstrom
no_reorient  #important for SAPT in psi4, default
symmetry c1  #important for SAPT in psi4, default
}

set PROPERTIES_ORIGIN ["COM"]
properties('MP2/aug-cc-pvtz', properties = ['dipole'])
--------------------------------------------------------------------------

    Molecular point group: c1
  Charge       = 0
  Multiplicity = 1
  Basis Set: AUG-CC-PVTZ
    Blend: AUG-CC-PVTZ
  Basis Set: (AUG-CC-PVTZ AUX)
    Blend: AUG-CC-PVTZ-JKFIT

    Orbital Energies [Eh]
    ---------------------

    Doubly Occupied:

       1A    -20.571384     2A    -11.294989     3A    -11.291241
       4A    -11.237349     5A    -11.235544     6A    -11.227553
       7A    -11.225434     8A    -11.222270     9A    -11.221911
      10A     -1.373992    11A     -1.139327    12A     -1.049869
      13A     -1.011647    14A     -0.984095    15A     -0.869234
      16A     -0.819723    17A     -0.800378    18A     -0.710104
      19A     -0.671226    20A     -0.658064    21A     -0.640809
      22A     -0.610833    23A     -0.583728    24A     -0.562512
      25A     -0.559225    26A     -0.535740    27A     -0.520220
      28A     -0.510944    29A     -0.503459    30A     -0.472804
      31A     -0.464826    32A     -0.335963    33A     -0.305510

  @DF-RHF Final Energy:  -383.74714219019313

   => Energetics <=

    Nuclear Repulsion Energy =            417.2903784023469029
    One-Electron Energy =               -1347.6312266441252632
    Two-Electron Energy =                 546.5937060515851726
    Total Energy =                       -383.7471421901931308
  Basis Set: (AUG-CC-PVTZ AUX)
    Blend: AUG-CC-PVTZ-RI
    Molecular point group: c1

    Geometry (in Angstrom), charge = 0, multiplicity = 1:

       Center              X                  Y                   Z               Mass
    ------------   -----------------  -----------------  -----------------  -----------------
         O            1.322022101352    -0.550194285096    -0.000013750968    15.994914619570
         C           -0.007100898648    -0.208504285096    -0.000008750968    12.000000000000
         C            2.340444401352     0.591554814904    -0.000004150968    12.000000000000
         C           -0.496209898648     1.102397714904     0.000003249032    12.000000000000
         C           -0.898696898648    -1.290175285096     0.000005249032    12.000000000000
         C            3.644181101352    -0.124649285096     0.000012249032    12.000000000000
         C           -1.879492898648     1.315807714904    -0.000002750968    12.000000000000
         C           -2.270439898648    -1.061704285096    -0.000001750968    12.000000000000
         C           -2.770609898648     0.245173714904     0.000011249032    12.000000000000
         H            2.131383101352     1.145127714904    -0.889112750968     1.007825032230
         H            2.131366101352     1.145124714904     0.889104249032     1.007825032230
         H            0.173783101352     1.955283714904    -0.000012750968     1.007825032230
         H           -0.488269898648    -2.296277285096    -0.000007750968     1.007825032230
         H            4.421957101352     0.644250714904     0.000007249032     1.007825032230
         H            3.768094101352    -0.749423285096     0.886796249032     1.007825032230
         H            3.768109101352    -0.749449285096    -0.886750750968     1.007825032230
         H           -2.255085898648     2.336549714904     0.000007249032     1.007825032230
         H           -2.952965898648    -1.908322285096     0.000012249032     1.007825032230
         H           -3.842549898648     0.423406714904     0.000001249032     1.007825032230

  Basis Set: AUG-CC-PVTZ
    Blend: AUG-CC-PVTZ
  Basis Set: (AUG-CC-PVTZ AUX)
    Blend: AUG-CC-PVTZ-JKFIT
	 Reference Energy          =    -383.7471421901931308 [Eh]
	 Singles Energy            =      -0.0000000000000000 [Eh]
	 Same-Spin Energy          =      -0.4090993620940799 [Eh]
	 Opposite-Spin Energy      =      -1.3162897815458359 [Eh]
	 Correlation Energy        =      -1.7253891436399158 [Eh]
	 Total Energy              =    -385.4725313338330466 [Eh]

	 ================> DF-SCS-MP2 Energies <==================
	-----------------------------------------------------------
	 SCS Same-Spin Scale       =       0.3333333333333333 [-]
	 SCS Opposite-Spin Scale   =       1.2000000000000000 [-]
	 SCS Same-Spin Energy      =      -0.1363664540313600 [Eh]
	 SCS Opposite-Spin Energy  =      -1.5795477378550029 [Eh]
	 SCS Correlation Energy    =      -1.7159141918863630 [Eh]
	 SCS Total Energy          =    -385.4630563820795146 [Eh]
	-----------------------------------------------------------

  Dipole Moment: [D]
     X:     1.3354      Y:     1.2021      Z:     0.0000     Total:     1.7968

*** Psi4 exiting successfully. Buy a developer a beer!
