                               Psi4 1.3.2 release

  ==> Input File <==

--------------------------------------------------------------------------
#psi4
#
memory 32 gb

molecule  {
0 1
  N       -1.6772681     0.7059804     0.2160844
  C       -0.8584400    -0.3593730    -0.1157050
  C        0.5958890    -0.1944310    -0.0686340
  C       -1.6095070    -1.4830350    -0.4543950
  C       -3.0364380     0.1798280     0.0590890
  C       -2.9750140    -1.1422740    -0.3482900
  C       -1.4212420     1.9838780     0.6691930
  C        1.2419450     0.8845030    -0.6969540
  C        1.3787110    -1.1624060     0.5835710
  C        2.6315710     1.0013490    -0.6546280
  C        2.7689430    -1.0546610     0.6054980
  C        3.3999180     0.0321080    -0.0053240
  H       -1.1930810    -2.4304870    -0.7739750
  H       -3.8823240     0.8199580     0.2740310
  H       -3.8253090    -1.7817070    -0.5476340
  H       -2.2212640     2.3282100     1.3272780
  H       -0.4870200     1.9493020     1.2305480
  H       -1.3139190     2.6883760    -0.1607770
  H        0.6536140     1.6152250    -1.2478990
  H        0.8812590    -1.9928010     1.0799670
  H        3.1173860     1.8412050    -1.1464900
  H        3.3610660    -1.8124130     1.1137600
  H        4.4833320     0.1209150     0.0205430
units angstrom
no_reorient  #important for SAPT in psi4, default
symmetry c1  #important for SAPT in psi4, default
}

set PROPERTIES_ORIGIN ["COM"]
properties('MP2/aug-cc-pvtz', properties = ['dipole'])
--------------------------------------------------------------------------

    Molecular point group: c1
  Charge       = 0
  Multiplicity = 1
  Basis Set: AUG-CC-PVTZ
    Blend: AUG-CC-PVTZ
  Basis Set: (AUG-CC-PVTZ AUX)
    Blend: AUG-CC-PVTZ-JKFIT

    Orbital Energies [Eh]
    ---------------------

    Doubly Occupied:

       1A    -15.603837     2A    -11.265269     3A    -11.262412
       4A    -11.254137     5A    -11.248872     6A    -11.241032
       7A    -11.239951     8A    -11.239516     9A    -11.238336
      10A    -11.237338    11A    -11.217758    12A    -11.208804
      13A     -1.290533    14A     -1.155001    15A     -1.087247
      16A     -1.042260    17A     -1.016498    18A     -0.953924
      19A     -0.927263    20A     -0.833429    21A     -0.830741
      22A     -0.768423    23A     -0.746482    24A     -0.713324
      25A     -0.675850    26A     -0.642254    27A     -0.631188
      28A     -0.624040    29A     -0.599770    30A     -0.591523
      31A     -0.587345    32A     -0.558953    33A     -0.537210
      34A     -0.521447    35A     -0.515617    36A     -0.498154
      37A     -0.494183    38A     -0.488158    39A     -0.352603
      40A     -0.341301    41A     -0.337532    42A     -0.275836

  @DF-RHF Final Energy:  -477.53199313407032

   => Energetics <=

    Nuclear Repulsion Energy =            638.9247466182870312
    One-Electron Energy =               -1913.1227749290919746
    Two-Electron Energy =                 796.6660351767347947
    Total Energy =                       -477.5319931340702624
  Basis Set: (AUG-CC-PVTZ AUX)
    Blend: AUG-CC-PVTZ-RI
    Molecular point group: c1

    Geometry (in Angstrom), charge = 0, multiplicity = 1:

       Center              X                  Y                   Z               Mass
    ------------   -----------------  -----------------  -----------------  -----------------
         N           -1.686686491902     0.721998746038     0.221906571310    14.003074004430
         C           -0.867858391902    -0.343354653962    -0.109882828690    12.000000000000
         C            0.586470608098    -0.178412653962    -0.062811828690    12.000000000000
         C           -1.618925391902    -1.467016653962    -0.448572828690    12.000000000000
         C           -3.045856391902     0.195846346038     0.064911171310    12.000000000000
         C           -2.984432391902    -1.126255653962    -0.342467828690    12.000000000000
         C           -1.430660391902     1.999896346038     0.675015171310    12.000000000000
         C            1.232526608098     0.900521346038    -0.691131828690    12.000000000000
         C            1.369292608098    -1.146387653962     0.589393171310    12.000000000000
         C            2.622152608098     1.017367346038    -0.648805828690    12.000000000000
         C            2.759524608098    -1.038642653962     0.611320171310    12.000000000000
         C            3.390499608098     0.048126346038     0.000498171310    12.000000000000
         H           -1.202499391902    -2.414468653962    -0.768152828690     1.007825032230
         H           -3.891742391902     0.835976346038     0.279853171310     1.007825032230
         H           -3.834727391902    -1.765688653962    -0.541811828690     1.007825032230
         H           -2.230682391902     2.344228346038     1.333100171310     1.007825032230
         H           -0.496438391902     1.965320346038     1.236370171310     1.007825032230
         H           -1.323337391902     2.704394346038    -0.154954828690     1.007825032230
         H            0.644195608098     1.631243346038    -1.242076828690     1.007825032230
         H            0.871840608098    -1.976782653962     1.085789171310     1.007825032230
         H            3.107967608098     1.857223346038    -1.140667828690     1.007825032230
         H            3.351647608098    -1.796394653962     1.119582171310     1.007825032230
         H            4.473913608098     0.136933346038     0.026365171310     1.007825032230

  Basis Set: AUG-CC-PVTZ
    Blend: AUG-CC-PVTZ
  Basis Set: (AUG-CC-PVTZ AUX)
    Blend: AUG-CC-PVTZ-JKFIT
	 Reference Energy          =    -477.5319931340703192 [Eh]
	 Singles Energy            =      -0.0000000000000000 [Eh]
	 Same-Spin Energy          =      -0.5394681492743971 [Eh]
	 Opposite-Spin Energy      =      -1.6848649788005168 [Eh]
	 Correlation Energy        =      -2.2243331280749139 [Eh]
	 Total Energy              =    -479.7563262621452509 [Eh]

	 ================> DF-SCS-MP2 Energies <==================
	-----------------------------------------------------------
	 SCS Same-Spin Scale       =       0.3333333333333333 [-]
	 SCS Opposite-Spin Scale   =       1.2000000000000000 [-]
	 SCS Same-Spin Energy      =      -0.1798227164247990 [Eh]
	 SCS Opposite-Spin Energy  =      -2.0218379745606199 [Eh]
	 SCS Correlation Energy    =      -2.2016606909854191 [Eh]
	 SCS Total Energy          =    -479.7336538250557396 [Eh]
	-----------------------------------------------------------

  Dipole Moment: [D]
     X:     0.3607      Y:     1.5739      Z:     0.5919     Total:     1.7198

*** Psi4 exiting successfully. Buy a developer a beer!
