                               Psi4 1.4a3.dev225

  ==> Input File <==

--------------------------------------------------------------------------
#psi4
#
memory 32 gb

molecule  {
0 1
  N       -1.7531090     0.6487580     0.1985890
  C       -0.8584400    -0.3593730    -0.1157050
  C        0.5760267    -0.1966837    -0.0692769
  C       -1.6095070    -1.4830350    -0.4543950
  C       -3.0364380     0.1798280     0.0590890
  C       -2.9750140    -1.1422740    -0.3482900
  C       -1.4212420     1.9838780     0.6691930
  C        1.2419450     0.8845030    -0.6969540
  C        1.3787110    -1.1624060     0.5835710
  C        2.6315710     1.0013490    -0.6546280
  C        2.7689430    -1.0546610     0.6054980
  C        3.3999180     0.0321080    -0.0053240
  H       -1.1930810    -2.4304870    -0.7739750
  H       -3.8823240     0.8199580     0.2740310
  H       -3.8253090    -1.7817070    -0.5476340
  H       -2.2212640     2.3282100     1.3272780
  H       -0.4870200     1.9493020     1.2305480
  H       -1.3139190     2.6883760    -0.1607770
  H        0.6536140     1.6152250    -1.2478990
  H        0.8812590    -1.9928010     1.0799670
  H        3.1173860     1.8412050    -1.1464900
  H        3.3610660    -1.8124130     1.1137600
  H        4.4833320     0.1209150     0.0205430
units angstrom
no_reorient  #important for SAPT in psi4, default
symmetry c1  #important for SAPT in psi4, default
}

set PROPERTIES_ORIGIN ["COM"]
properties('MP2/aug-cc-pvtz', properties = ['dipole'])
--------------------------------------------------------------------------

    Molecular point group: c1
  Charge       = 0
  Multiplicity = 1
  Basis Set: AUG-CC-PVTZ
    Blend: AUG-CC-PVTZ
  Basis Set: (AUG-CC-PVTZ AUX)
    Blend: AUG-CC-PVTZ-JKFIT

    Orbital Energies [Eh]
    ---------------------

    Doubly Occupied:

       1A    -15.607981     2A    -11.270812     3A    -11.255627
       4A    -11.250666     5A    -11.249262     6A    -11.241074
       7A    -11.239862     8A    -11.239289     9A    -11.238173
      10A    -11.237574    11A    -11.208902    12A    -11.207637
      13A     -1.299633    14A     -1.153121    15A     -1.074068
      16A     -1.045539    17A     -1.014929    18A     -0.955861
      19A     -0.933724    20A     -0.835089    21A     -0.829228
      22A     -0.771360    23A     -0.743529    24A     -0.712577
      25A     -0.678492    26A     -0.640299    27A     -0.632405
      28A     -0.621466    29A     -0.596812    30A     -0.585935
      31A     -0.570174    32A     -0.568964    33A     -0.538712
      34A     -0.527736    35A     -0.524215    36A     -0.503179
      37A     -0.495328    38A     -0.488959    39A     -0.353963
      40A     -0.339905    41A     -0.335624    42A     -0.274183

  @DF-RHF Final Energy:  -477.54473237693850

   => Energetics <=

    Nuclear Repulsion Energy =            639.0656640129082007
    One-Electron Energy =               -1913.4370639222620412
    Two-Electron Energy =                 796.8266675324153994
    Total Energy =                       -477.5447323769384411
  Basis Set: (AUG-CC-PVTZ AUX)
    Blend: AUG-CC-PVTZ-RI
    Molecular point group: c1

    Geometry (in Angstrom), charge = 0, multiplicity = 1:

       Center              X                  Y                   Z               Mass
    ------------   -----------------  -----------------  -----------------  -----------------
         N           -1.754249586970     0.670049287583     0.206019838630    14.003074004430
         C           -0.859580586970    -0.338081712417    -0.108274161370    12.000000000000
         C            0.574886113030    -0.175392412417    -0.061846061370    12.000000000000
         C           -1.610647586970    -1.461743712417    -0.446964161370    12.000000000000
         C           -3.037578586970     0.201119287583     0.066519838630    12.000000000000
         C           -2.976154586970    -1.120982712417    -0.340859161370    12.000000000000
         C           -1.422382586970     2.005169287583     0.676623838630    12.000000000000
         C            1.240804413030     0.905794287583    -0.689523161370    12.000000000000
         C            1.377570413030    -1.141114712417     0.591001838630    12.000000000000
         C            2.630430413030     1.022640287583    -0.647197161370    12.000000000000
         C            2.767802413030    -1.033369712417     0.612928838630    12.000000000000
         C            3.398777413030     0.053399287583     0.002106838630    12.000000000000
         H           -1.194221586970    -2.409195712417    -0.766544161370     1.007825032230
         H           -3.883464586970     0.841249287583     0.281461838630     1.007825032230
         H           -3.826449586970    -1.760415712417    -0.540203161370     1.007825032230
         H           -2.222404586970     2.349501287583     1.334708838630     1.007825032230
         H           -0.488160586970     1.970593287583     1.237978838630     1.007825032230
         H           -1.315059586970     2.709667287583    -0.153346161370     1.007825032230
         H            0.652473413030     1.636516287583    -1.240468161370     1.007825032230
         H            0.880118413030    -1.971509712417     1.087397838630     1.007825032230
         H            3.116245413030     1.862496287583    -1.139059161370     1.007825032230
         H            3.359925413030    -1.791121712417     1.121190838630     1.007825032230
         H            4.482191413030     0.142206287583     0.027973838630     1.007825032230

  Basis Set: AUG-CC-PVTZ
    Blend: AUG-CC-PVTZ
  Basis Set: (AUG-CC-PVTZ AUX)
    Blend: AUG-CC-PVTZ-JKFIT
	 Reference Energy          =    -477.5447323769384980 [Eh]
	 Singles Energy            =      -0.0000000000000000 [Eh]
	 Same-Spin Energy          =      -0.5395174066466623 [Eh]
	 Opposite-Spin Energy      =      -1.6837238041769536 [Eh]
	 Correlation Energy        =      -2.2232412108236157 [Eh]
	 Total Energy              =    -479.7679735877621283 [Eh]

	 ================> DF-SCS-MP2 Energies <==================
	-----------------------------------------------------------
	 SCS Same-Spin Scale       =       0.3333333333333333 [-]
	 SCS Opposite-Spin Scale   =       1.2000000000000000 [-]
	 SCS Same-Spin Energy      =      -0.1798391355488874 [Eh]
	 SCS Opposite-Spin Energy  =      -2.0204685650123442 [Eh]
	 SCS Correlation Energy    =      -2.2003077005612317 [Eh]
	 SCS Total Energy          =    -479.7450400774997092 [Eh]
	-----------------------------------------------------------

  Dipole Moment: [D]
     X:     0.4115      Y:     1.8545      Z:     0.6739     Total:     2.0156

*** Psi4 exiting successfully. Buy a developer a beer!
