                               Psi4 1.3.2 release

  ==> Input File <==

--------------------------------------------------------------------------
#psi4
#
memory 32 gb

molecule  {
0 1
  N       -1.7531090     0.6487580     0.1985890
  C       -0.8584400    -0.3593730    -0.1157050
  C        0.5958890    -0.1944310    -0.0686340
  C       -1.6095070    -1.4830350    -0.4543950
  C       -3.0364380     0.1798280     0.0590890
  C       -2.9794496    -1.0468019    -0.3188722
  C       -1.4212420     1.9838780     0.6691930
  C        1.2419450     0.8845030    -0.6969540
  C        1.3787110    -1.1624060     0.5835710
  C        2.6315710     1.0013490    -0.6546280
  C        2.7689430    -1.0546610     0.6054980
  C        3.3999180     0.0321080    -0.0053240
  H       -1.1930810    -2.4304870    -0.7739750
  H       -3.8823240     0.8199580     0.2740310
  H       -3.8253090    -1.7817070    -0.5476340
  H       -2.2212640     2.3282100     1.3272780
  H       -0.4870200     1.9493020     1.2305480
  H       -1.3139190     2.6883760    -0.1607770
  H        0.6536140     1.6152250    -1.2478990
  H        0.8812590    -1.9928010     1.0799670
  H        3.1173860     1.8412050    -1.1464900
  H        3.3610660    -1.8124130     1.1137600
  H        4.4833320     0.1209150     0.0205430
units angstrom
no_reorient  #important for SAPT in psi4, default
symmetry c1  #important for SAPT in psi4, default
}

set PROPERTIES_ORIGIN ["COM"]
properties('MP2/aug-cc-pvtz', properties = ['dipole'])
--------------------------------------------------------------------------

    Molecular point group: c1
  Charge       = 0
  Multiplicity = 1
  Basis Set: AUG-CC-PVTZ
    Blend: AUG-CC-PVTZ
  Basis Set: (AUG-CC-PVTZ AUX)
    Blend: AUG-CC-PVTZ-JKFIT

    Orbital Energies [Eh]
    ---------------------

    Doubly Occupied:

       1A    -15.598249     2A    -11.267855     3A    -11.259176
       4A    -11.250241     5A    -11.241204     6A    -11.240159
       7A    -11.239767     8A    -11.238632     9A    -11.237795
      10A    -11.235641    11A    -11.206529    12A    -11.203234
      13A     -1.300616    14A     -1.155743    15A     -1.075170
      16A     -1.048226    17A     -1.016702    18A     -0.964517
      19A     -0.925494    20A     -0.836732    21A     -0.830822
      22A     -0.768436    23A     -0.741879    24A     -0.708416
      25A     -0.678829    26A     -0.639793    27A     -0.632327
      28A     -0.621748    29A     -0.593899    30A     -0.587646
      31A     -0.574066    32A     -0.564823    33A     -0.541938
      34A     -0.528109    35A     -0.515591    36A     -0.502881
      37A     -0.493268    38A     -0.487178    39A     -0.356595
      40A     -0.340536    41A     -0.333081    42A     -0.285151

  @DF-RHF Final Energy:  -477.53531990709047

   => Energetics <=

    Nuclear Repulsion Energy =            640.4234273309531318
    One-Electron Energy =               -1916.1801074938500733
    Two-Electron Energy =                 798.2213602558064167
    Total Energy =                       -477.5353199070904111
  Basis Set: (AUG-CC-PVTZ AUX)
    Blend: AUG-CC-PVTZ-RI
    Molecular point group: c1

    Geometry (in Angstrom), charge = 0, multiplicity = 1:

       Center              X                  Y                   Z               Mass
    ------------   -----------------  -----------------  -----------------  -----------------
         N           -1.755428028643     0.662584115070     0.203723509435    14.003074004430
         C           -0.860759028643    -0.345546884930    -0.110570490565    12.000000000000
         C            0.593569971357    -0.180604884930    -0.063499490565    12.000000000000
         C           -1.611826028643    -1.469208884930    -0.449260490565    12.000000000000
         C           -3.038757028643     0.193654115070     0.064223509435    12.000000000000
         C           -2.981768628643    -1.032975784930    -0.313737690565    12.000000000000
         C           -1.423561028643     1.997704115070     0.674327509435    12.000000000000
         C            1.239625971357     0.898329115070    -0.691819490565    12.000000000000
         C            1.376391971357    -1.148579884930     0.588705509435    12.000000000000
         C            2.629251971357     1.015175115070    -0.649493490565    12.000000000000
         C            2.766623971357    -1.040834884930     0.610632509435    12.000000000000
         C            3.397598971357     0.045934115070    -0.000189490565    12.000000000000
         H           -1.195400028643    -2.416660884930    -0.768840490565     1.007825032230
         H           -3.884643028643     0.833784115070     0.279165509435     1.007825032230
         H           -3.827628028643    -1.767880884930    -0.542499490565     1.007825032230
         H           -2.223583028643     2.342036115070     1.332412509435     1.007825032230
         H           -0.489339028643     1.963128115070     1.235682509435     1.007825032230
         H           -1.316238028643     2.702202115070    -0.155642490565     1.007825032230
         H            0.651294971357     1.629051115070    -1.242764490565     1.007825032230
         H            0.878939971357    -1.978974884930     1.085101509435     1.007825032230
         H            3.115066971357     1.855031115070    -1.141355490565     1.007825032230
         H            3.358746971357    -1.798586884930     1.118894509435     1.007825032230
         H            4.481012971357     0.134741115070     0.025677509435     1.007825032230

  Basis Set: AUG-CC-PVTZ
    Blend: AUG-CC-PVTZ
  Basis Set: (AUG-CC-PVTZ AUX)
    Blend: AUG-CC-PVTZ-JKFIT
	 Reference Energy          =    -477.5353199070904680 [Eh]
	 Singles Energy            =      -0.0000000000000000 [Eh]
	 Same-Spin Energy          =      -0.5377909450541125 [Eh]
	 Opposite-Spin Energy      =      -1.6812711622787102 [Eh]
	 Correlation Energy        =      -2.2190621073328227 [Eh]
	 Total Energy              =    -479.7543820144232996 [Eh]

	 ================> DF-SCS-MP2 Energies <==================
	-----------------------------------------------------------
	 SCS Same-Spin Scale       =       0.3333333333333333 [-]
	 SCS Opposite-Spin Scale   =       1.2000000000000000 [-]
	 SCS Same-Spin Energy      =      -0.1792636483513708 [Eh]
	 SCS Opposite-Spin Energy  =      -2.0175253947344522 [Eh]
	 SCS Correlation Energy    =      -2.1967890430858232 [Eh]
	 SCS Total Energy          =    -479.7321089501762685 [Eh]
	-----------------------------------------------------------

  Dipole Moment: [D]
     X:     0.4602      Y:     1.8026      Z:     0.6586     Total:     1.9736

*** Psi4 exiting successfully. Buy a developer a beer!
