                               Psi4 1.3.2 release

  ==> Input File <==

--------------------------------------------------------------------------
#psi4
#
memory 32 gb

molecule  {
0 1
  N       -1.7531090     0.6487580     0.1985890
  C       -0.9342804    -0.4166389    -0.1330593
  C        0.5958890    -0.1944310    -0.0686340
  C       -1.6095070    -1.4830350    -0.4543950
  C       -3.0364380     0.1798280     0.0590890
  C       -2.9750140    -1.1422740    -0.3482900
  C       -1.4212420     1.9838780     0.6691930
  C        1.2419450     0.8845030    -0.6969540
  C        1.3787110    -1.1624060     0.5835710
  C        2.6315710     1.0013490    -0.6546280
  C        2.7689430    -1.0546610     0.6054980
  C        3.3999180     0.0321080    -0.0053240
  H       -1.1930810    -2.4304870    -0.7739750
  H       -3.8823240     0.8199580     0.2740310
  H       -3.8253090    -1.7817070    -0.5476340
  H       -2.2212640     2.3282100     1.3272780
  H       -0.4870200     1.9493020     1.2305480
  H       -1.3139190     2.6883760    -0.1607770
  H        0.6536140     1.6152250    -1.2478990
  H        0.8812590    -1.9928010     1.0799670
  H        3.1173860     1.8412050    -1.1464900
  H        3.3610660    -1.8124130     1.1137600
  H        4.4833320     0.1209150     0.0205430
units angstrom
no_reorient  #important for SAPT in psi4, default
symmetry c1  #important for SAPT in psi4, default
}

set PROPERTIES_ORIGIN ["COM"]
properties('MP2/aug-cc-pvtz', properties = ['dipole'])
--------------------------------------------------------------------------

    Molecular point group: c1
  Charge       = 0
  Multiplicity = 1
  Basis Set: AUG-CC-PVTZ
    Blend: AUG-CC-PVTZ
  Basis Set: (AUG-CC-PVTZ AUX)
    Blend: AUG-CC-PVTZ-JKFIT

    Orbital Energies [Eh]
    ---------------------

    Doubly Occupied:

       1A    -15.601159     2A    -11.271941     3A    -11.253258
       4A    -11.252424     5A    -11.248074     6A    -11.240268
       7A    -11.239028     8A    -11.238504     9A    -11.237107
      10A    -11.235732    11A    -11.206001    12A    -11.197369
      13A     -1.301265    14A     -1.151873    15A     -1.085273
      16A     -1.034040    17A     -1.015172    18A     -0.959827
      19A     -0.935901    20A     -0.828521    21A     -0.825413
      22A     -0.775992    23A     -0.739077    24A     -0.713503
      25A     -0.676364    26A     -0.638794    27A     -0.628030
      28A     -0.621057    29A     -0.594968    30A     -0.586407
      31A     -0.581212    32A     -0.560562    33A     -0.538712
      34A     -0.531315    35A     -0.527200    36A     -0.500144
      37A     -0.492243    38A     -0.484045    39A     -0.353391
      40A     -0.339498    41A     -0.336746    42A     -0.285394

  @DF-RHF Final Energy:  -477.53759132213418

   => Energetics <=

    Nuclear Repulsion Energy =            639.0018209642240663
    One-Electron Energy =               -1913.3532204430778165
    Two-Electron Energy =                 796.8138081567194604
    Total Energy =                       -477.5375913221341762
  Basis Set: (AUG-CC-PVTZ AUX)
    Blend: AUG-CC-PVTZ-RI
    Molecular point group: c1

    Geometry (in Angstrom), charge = 0, multiplicity = 1:

       Center              X                  Y                   Z               Mass
    ------------   -----------------  -----------------  -----------------  -----------------
         N           -1.749973434208     0.674251731881     0.207296418208    14.003074004430
         C           -0.931144834208    -0.391145168119    -0.124351881792    12.000000000000
         C            0.599024565792    -0.168937268119    -0.059926581792    12.000000000000
         C           -1.606371434208    -1.457541268119    -0.445687581792    12.000000000000
         C           -3.033302434208     0.205321731881     0.067796418208    12.000000000000
         C           -2.971878434208    -1.116780268119    -0.339582581792    12.000000000000
         C           -1.418106434208     2.009371731881     0.677900418208    12.000000000000
         C            1.245080565792     0.909996731881    -0.688246581792    12.000000000000
         C            1.381846565792    -1.136912268119     0.592278418208    12.000000000000
         C            2.634706565792     1.026842731881    -0.645920581792    12.000000000000
         C            2.772078565792    -1.029167268119     0.614205418208    12.000000000000
         C            3.403053565792     0.057601731881     0.003383418208    12.000000000000
         H           -1.189945434208    -2.404993268119    -0.765267581792     1.007825032230
         H           -3.879188434208     0.845451731881     0.282738418208     1.007825032230
         H           -3.822173434208    -1.756213268119    -0.538926581792     1.007825032230
         H           -2.218128434208     2.353703731881     1.335985418208     1.007825032230
         H           -0.483884434208     1.974795731881     1.239255418208     1.007825032230
         H           -1.310783434208     2.713869731881    -0.152069581792     1.007825032230
         H            0.656749565792     1.640718731881    -1.239191581792     1.007825032230
         H            0.884394565792    -1.967307268119     1.088674418208     1.007825032230
         H            3.120521565792     1.866698731881    -1.137782581792     1.007825032230
         H            3.364201565792    -1.786919268119     1.122467418208     1.007825032230
         H            4.486467565792     0.146408731881     0.029250418208     1.007825032230

  Basis Set: AUG-CC-PVTZ
    Blend: AUG-CC-PVTZ
  Basis Set: (AUG-CC-PVTZ AUX)
    Blend: AUG-CC-PVTZ-JKFIT
	 Reference Energy          =    -477.5375913221341762 [Eh]
	 Singles Energy            =      -0.0000000000000000 [Eh]
	 Same-Spin Energy          =      -0.5370274988696527 [Eh]
	 Opposite-Spin Energy      =      -1.6805453138842457 [Eh]
	 Correlation Energy        =      -2.2175728127538985 [Eh]
	 Total Energy              =    -479.7551641348880480 [Eh]

	 ================> DF-SCS-MP2 Energies <==================
	-----------------------------------------------------------
	 SCS Same-Spin Scale       =       0.3333333333333333 [-]
	 SCS Opposite-Spin Scale   =       1.2000000000000000 [-]
	 SCS Same-Spin Energy      =      -0.1790091662898842 [Eh]
	 SCS Opposite-Spin Energy  =      -2.0166543766610947 [Eh]
	 SCS Correlation Energy    =      -2.1956635429509790 [Eh]
	 SCS Total Energy          =    -479.7332548650851436 [Eh]
	-----------------------------------------------------------

  Dipole Moment: [D]
     X:     0.5360      Y:     1.7925      Z:     0.6531     Total:     1.9816

*** Psi4 exiting successfully. Buy a developer a beer!
