                               Psi4 1.3.2 release

  ==> Input File <==

--------------------------------------------------------------------------
#psi4
#
memory 32 gb

molecule  {
0 1
  N       -1.7714016     0.6336386     0.1940862
  C       -0.8584400    -0.3593730    -0.1157050
  C        0.5958890    -0.1944310    -0.0686340
  C       -1.6095070    -1.4830350    -0.4543950
  C       -3.0364380     0.1798280     0.0590890
  C       -2.9750140    -1.1422740    -0.3482900
  C       -1.4212420     1.9838780     0.6691930
  C        1.2419450     0.8845030    -0.6969540
  C        1.3787110    -1.1624060     0.5835710
  C        2.6315710     1.0013490    -0.6546280
  C        2.7689430    -1.0546610     0.6054980
  C        3.3999180     0.0321080    -0.0053240
  H       -1.1930810    -2.4304870    -0.7739750
  H       -3.8823240     0.8199580     0.2740310
  H       -3.8253090    -1.7817070    -0.5476340
  H       -2.2212640     2.3282100     1.3272780
  H       -0.4870200     1.9493020     1.2305480
  H       -1.3139190     2.6883760    -0.1607770
  H        0.6536140     1.6152250    -1.2478990
  H        0.8812590    -1.9928010     1.0799670
  H        3.1173860     1.8412050    -1.1464900
  H        3.3610660    -1.8124130     1.1137600
  H        4.4833320     0.1209150     0.0205430
units angstrom
no_reorient  #important for SAPT in psi4, default
symmetry c1  #important for SAPT in psi4, default
}

set PROPERTIES_ORIGIN ["COM"]
properties('MP2/aug-cc-pvtz', properties = ['dipole'])
--------------------------------------------------------------------------

    Molecular point group: c1
  Charge       = 0
  Multiplicity = 1
  Basis Set: AUG-CC-PVTZ
    Blend: AUG-CC-PVTZ
  Basis Set: (AUG-CC-PVTZ AUX)
    Blend: AUG-CC-PVTZ-JKFIT

    Orbital Energies [Eh]
    ---------------------

    Doubly Occupied:

       1A    -15.608510     2A    -11.272828     3A    -11.254383
       4A    -11.250487     5A    -11.247061     6A    -11.240623
       7A    -11.239456     8A    -11.239150     9A    -11.237825
      10A    -11.236944    11A    -11.207085    12A    -11.205444
      13A     -1.302413    14A     -1.155121    15A     -1.069960
      16A     -1.044472    17A     -1.016075    18A     -0.957654
      19A     -0.934066    20A     -0.833328    21A     -0.830516
      22A     -0.771600    23A     -0.742188    24A     -0.711823
      25A     -0.678590    26A     -0.639803    27A     -0.632606
      28A     -0.622187    29A     -0.596276    30A     -0.587126
      31A     -0.571717    32A     -0.563682    33A     -0.537885
      34A     -0.528002    35A     -0.526138    36A     -0.502805
      37A     -0.494821    38A     -0.492044    39A     -0.354595
      40A     -0.340100    41A     -0.334439    42A     -0.274763

  @DF-RHF Final Energy:  -477.54549462939610

   => Energetics <=

    Nuclear Repulsion Energy =            639.1125644020678465
    One-Electron Energy =               -1913.5429315523199421
    Two-Electron Energy =                 796.8848725208559927
    Total Energy =                       -477.5454946293961029
  Basis Set: (AUG-CC-PVTZ AUX)
    Blend: AUG-CC-PVTZ-RI
    Molecular point group: c1

    Geometry (in Angstrom), charge = 0, multiplicity = 1:

       Center              X                  Y                   Z               Mass
    ------------   -----------------  -----------------  -----------------  -----------------
         N           -1.772428843486     0.656105561892     0.201869311476    14.003074004430
         C           -0.859467243486    -0.336906038108    -0.107921888524    12.000000000000
         C            0.594861756514    -0.171964038108    -0.060850888524    12.000000000000
         C           -1.610534243486    -1.460568038108    -0.446611888524    12.000000000000
         C           -3.037465243486     0.202294961892     0.066872111476    12.000000000000
         C           -2.976041243486    -1.119807038108    -0.340506888524    12.000000000000
         C           -1.422269243486     2.006344961892     0.676976111476    12.000000000000
         C            1.240917756514     0.906969961892    -0.689170888524    12.000000000000
         C            1.377683756514    -1.139939038108     0.591354111476    12.000000000000
         C            2.630543756514     1.023815961892    -0.646844888524    12.000000000000
         C            2.767915756514    -1.032194038108     0.613281111476    12.000000000000
         C            3.398890756514     0.054574961892     0.002459111476    12.000000000000
         H           -1.194108243486    -2.408020038108    -0.766191888524     1.007825032230
         H           -3.883351243486     0.842424961892     0.281814111476     1.007825032230
         H           -3.826336243486    -1.759240038108    -0.539850888524     1.007825032230
         H           -2.222291243486     2.350676961892     1.335061111476     1.007825032230
         H           -0.488047243486     1.971768961892     1.238331111476     1.007825032230
         H           -1.314946243486     2.710842961892    -0.152993888524     1.007825032230
         H            0.652586756514     1.637691961892    -1.240115888524     1.007825032230
         H            0.880231756514    -1.970334038108     1.087750111476     1.007825032230
         H            3.116358756514     1.863671961892    -1.138706888524     1.007825032230
         H            3.360038756514    -1.789946038108     1.121543111476     1.007825032230
         H            4.482304756514     0.143381961892     0.028326111476     1.007825032230

  Basis Set: AUG-CC-PVTZ
    Blend: AUG-CC-PVTZ
  Basis Set: (AUG-CC-PVTZ AUX)
    Blend: AUG-CC-PVTZ-JKFIT
	 Reference Energy          =    -477.5454946293961029 [Eh]
	 Singles Energy            =      -0.0000000000000000 [Eh]
	 Same-Spin Energy          =      -0.5392044268808793 [Eh]
	 Opposite-Spin Energy      =      -1.6830365027489593 [Eh]
	 Correlation Energy        =      -2.2222409296298387 [Eh]
	 Total Energy              =    -479.7677355590259367 [Eh]

	 ================> DF-SCS-MP2 Energies <==================
	-----------------------------------------------------------
	 SCS Same-Spin Scale       =       0.3333333333333333 [-]
	 SCS Opposite-Spin Scale   =       1.2000000000000000 [-]
	 SCS Same-Spin Energy      =      -0.1797348089602931 [Eh]
	 SCS Opposite-Spin Energy  =      -2.0196438032987509 [Eh]
	 SCS Correlation Energy    =      -2.1993786122590442 [Eh]
	 SCS Total Energy          =    -479.7448732416551707 [Eh]
	-----------------------------------------------------------

  Dipole Moment: [D]
     X:     0.4930      Y:     1.9320      Z:     0.6988     Total:     2.1128

*** Psi4 exiting successfully. Buy a developer a beer!
