                               Psi4 1.3.2 release

  ==> Input File <==

--------------------------------------------------------------------------
#psi4
#
memory 32 gb

molecule  {
0 1
  N       -1.7709641     0.6912581     0.2117453
  C       -0.8584400    -0.3593730    -0.1157050
  C        0.5958890    -0.1944310    -0.0686340
  C       -1.6095070    -1.4830350    -0.4543950
  C       -3.0364380     0.1798280     0.0590890
  C       -2.9750140    -1.1422740    -0.3482900
  C       -1.4212420     1.9838780     0.6691930
  C        1.2419450     0.8845030    -0.6969540
  C        1.3787110    -1.1624060     0.5835710
  C        2.6315710     1.0013490    -0.6546280
  C        2.7689430    -1.0546610     0.6054980
  C        3.3999180     0.0321080    -0.0053240
  H       -1.1930810    -2.4304870    -0.7739750
  H       -3.8823240     0.8199580     0.2740310
  H       -3.8253090    -1.7817070    -0.5476340
  H       -2.2212640     2.3282100     1.3272780
  H       -0.4870200     1.9493020     1.2305480
  H       -1.3139190     2.6883760    -0.1607770
  H        0.6536140     1.6152250    -1.2478990
  H        0.8812590    -1.9928010     1.0799670
  H        3.1173860     1.8412050    -1.1464900
  H        3.3610660    -1.8124130     1.1137600
  H        4.4833320     0.1209150     0.0205430
units angstrom
no_reorient  #important for SAPT in psi4, default
symmetry c1  #important for SAPT in psi4, default
}

set PROPERTIES_ORIGIN ["COM"]
properties('MP2/aug-cc-pvtz', properties = ['dipole'])
--------------------------------------------------------------------------

    Molecular point group: c1
  Charge       = 0
  Multiplicity = 1
  Basis Set: AUG-CC-PVTZ
    Blend: AUG-CC-PVTZ
  Basis Set: (AUG-CC-PVTZ AUX)
    Blend: AUG-CC-PVTZ-JKFIT

    Orbital Energies [Eh]
    ---------------------

    Doubly Occupied:

       1A    -15.606171     2A    -11.266545     3A    -11.259544
       4A    -11.252796     5A    -11.249841     6A    -11.240319
       7A    -11.239202     8A    -11.238843     9A    -11.237599
      10A    -11.236747    11A    -11.212311    12A    -11.209016
      13A     -1.293759    14A     -1.154905    15A     -1.080915
      16A     -1.042923    17A     -1.015880    18A     -0.953101
      19A     -0.932154    20A     -0.832547    21A     -0.830117
      22A     -0.769373    23A     -0.745065    24A     -0.712843
      25A     -0.677119    26A     -0.640448    27A     -0.631405
      28A     -0.623512    29A     -0.597845    30A     -0.586914
      31A     -0.580771    32A     -0.562908    33A     -0.537440
      34A     -0.525846    35A     -0.518872    36A     -0.500326
      37A     -0.494991    38A     -0.490543    39A     -0.355142
      40A     -0.339980    41A     -0.335722    42A     -0.274680

  @DF-RHF Final Energy:  -477.54202819178352

   => Energetics <=

    Nuclear Repulsion Energy =            638.4141519905906534
    One-Electron Energy =               -1912.1383994459404221
    Two-Electron Energy =                 796.1822192635662532
    Total Energy =                       -477.5420281917835155
  Basis Set: (AUG-CC-PVTZ AUX)
    Blend: AUG-CC-PVTZ-RI
    Molecular point group: c1

    Geometry (in Angstrom), charge = 0, multiplicity = 1:

       Center              X                  Y                   Z               Mass
    ------------   -----------------  -----------------  -----------------  -----------------
         N           -1.772030342646     0.708588805659     0.217954262751    14.003074004430
         C           -0.859506242646    -0.342042294341    -0.109496037249    12.000000000000
         C            0.594822757354    -0.177100294341    -0.062425037249    12.000000000000
         C           -1.610573242646    -1.465704294341    -0.448186037249    12.000000000000
         C           -3.037504242646     0.197158705659     0.065297962751    12.000000000000
         C           -2.976080242646    -1.124943294341    -0.342081037249    12.000000000000
         C           -1.422308242646     2.001208705659     0.675401962751    12.000000000000
         C            1.240878757354     0.901833705659    -0.690745037249    12.000000000000
         C            1.377644757354    -1.145075294341     0.589779962751    12.000000000000
         C            2.630504757354     1.018679705659    -0.648419037249    12.000000000000
         C            2.767876757354    -1.037330294341     0.611706962751    12.000000000000
         C            3.398851757354     0.049438705659     0.000884962751    12.000000000000
         H           -1.194147242646    -2.413156294341    -0.767766037249     1.007825032230
         H           -3.883390242646     0.837288705659     0.280239962751     1.007825032230
         H           -3.826375242646    -1.764376294341    -0.541425037249     1.007825032230
         H           -2.222330242646     2.345540705659     1.333486962751     1.007825032230
         H           -0.488086242646     1.966632705659     1.236756962751     1.007825032230
         H           -1.314985242646     2.705706705659    -0.154568037249     1.007825032230
         H            0.652547757354     1.632555705659    -1.241690037249     1.007825032230
         H            0.880192757354    -1.975470294341     1.086175962751     1.007825032230
         H            3.116319757354     1.858535705659    -1.140281037249     1.007825032230
         H            3.359999757354    -1.795082294341     1.119968962751     1.007825032230
         H            4.482265757354     0.138245705659     0.026751962751     1.007825032230

  Basis Set: AUG-CC-PVTZ
    Blend: AUG-CC-PVTZ
  Basis Set: (AUG-CC-PVTZ AUX)
    Blend: AUG-CC-PVTZ-JKFIT
	 Reference Energy          =    -477.5420281917835155 [Eh]
	 Singles Energy            =      -0.0000000000000000 [Eh]
	 Same-Spin Energy          =      -0.5393191938172730 [Eh]
	 Opposite-Spin Energy      =      -1.6838450726015575 [Eh]
	 Correlation Energy        =      -2.2231642664188307 [Eh]
	 Total Energy              =    -479.7651924582023639 [Eh]

	 ================> DF-SCS-MP2 Energies <==================
	-----------------------------------------------------------
	 SCS Same-Spin Scale       =       0.3333333333333333 [-]
	 SCS Opposite-Spin Scale   =       1.2000000000000000 [-]
	 SCS Same-Spin Energy      =      -0.1797730646057576 [Eh]
	 SCS Opposite-Spin Energy  =      -2.0206140871218690 [Eh]
	 SCS Correlation Energy    =      -2.2003871517276266 [Eh]
	 SCS Total Energy          =    -479.7424153435111407 [Eh]
	-----------------------------------------------------------

  Dipole Moment: [D]
     X:     0.4583      Y:     1.7168      Z:     0.6334     Total:     1.8865

*** Psi4 exiting successfully. Buy a developer a beer!
