                               Psi4 1.3.2 release

  ==> Input File <==

--------------------------------------------------------------------------
#psi4
#
memory 32 gb

molecule  {
0 1
  N       -1.7531090     0.6487580     0.1985890
  C       -0.8998280    -0.3354910    -0.1066489
  C        0.5958890    -0.1944310    -0.0686340
  C       -1.6095070    -1.4830350    -0.4543950
  C       -3.0364380     0.1798280     0.0590890
  C       -2.9750140    -1.1422740    -0.3482900
  C       -1.4212420     1.9838780     0.6691930
  C        1.2419450     0.8845030    -0.6969540
  C        1.3787110    -1.1624060     0.5835710
  C        2.6315710     1.0013490    -0.6546280
  C        2.7689430    -1.0546610     0.6054980
  C        3.3999180     0.0321080    -0.0053240
  H       -1.1930810    -2.4304870    -0.7739750
  H       -3.8823240     0.8199580     0.2740310
  H       -3.8253090    -1.7817070    -0.5476340
  H       -2.2212640     2.3282100     1.3272780
  H       -0.4870200     1.9493020     1.2305480
  H       -1.3139190     2.6883760    -0.1607770
  H        0.6536140     1.6152250    -1.2478990
  H        0.8812590    -1.9928010     1.0799670
  H        3.1173860     1.8412050    -1.1464900
  H        3.3610660    -1.8124130     1.1137600
  H        4.4833320     0.1209150     0.0205430
units angstrom
no_reorient  #important for SAPT in psi4, default
symmetry c1  #important for SAPT in psi4, default
}

set PROPERTIES_ORIGIN ["COM"]
properties('MP2/aug-cc-pvtz', properties = ['dipole'])
--------------------------------------------------------------------------

    Molecular point group: c1
  Charge       = 0
  Multiplicity = 1
  Basis Set: AUG-CC-PVTZ
    Blend: AUG-CC-PVTZ
  Basis Set: (AUG-CC-PVTZ AUX)
    Blend: AUG-CC-PVTZ-JKFIT

    Orbital Energies [Eh]
    ---------------------

    Doubly Occupied:

       1A    -15.609787     2A    -11.273433     3A    -11.256446
       4A    -11.252290     5A    -11.244520     6A    -11.240444
       7A    -11.239433     8A    -11.238942     9A    -11.237725
      10A    -11.237034    11A    -11.208604    12A    -11.203533
      13A     -1.312394    14A     -1.153684    15A     -1.075183
      16A     -1.039871    17A     -1.015899    18A     -0.958366
      19A     -0.937705    20A     -0.829985    21A     -0.829582
      22A     -0.775166    23A     -0.740826    24A     -0.714526
      25A     -0.677511    26A     -0.643290    27A     -0.631480
      28A     -0.622574    29A     -0.597108    30A     -0.587178
      31A     -0.577128    32A     -0.564915    33A     -0.536102
      34A     -0.530321    35A     -0.526810    36A     -0.502563
      37A     -0.492323    38A     -0.489207    39A     -0.351056
      40A     -0.340460    41A     -0.337084    42A     -0.275867

  @DF-RHF Final Energy:  -477.54516133733460

   => Energetics <=

    Nuclear Repulsion Energy =            639.3147751825119940
    One-Electron Energy =               -1913.9031723418631827
    Two-Electron Energy =                 797.0432358220166407
    Total Energy =                       -477.5451613373345481
  Basis Set: (AUG-CC-PVTZ AUX)
    Blend: AUG-CC-PVTZ-RI
    Molecular point group: c1

    Geometry (in Angstrom), charge = 0, multiplicity = 1:

       Center              X                  Y                   Z               Mass
    ------------   -----------------  -----------------  -----------------  -----------------
         N           -1.752605244245     0.668052864525     0.205278934497    14.003074004430
         C           -0.899324244245    -0.316196135475    -0.099958965503    12.000000000000
         C            0.596392755755    -0.175136135475    -0.061944065503    12.000000000000
         C           -1.609003244245    -1.463740135475    -0.447705065503    12.000000000000
         C           -3.035934244245     0.199122864525     0.065778934497    12.000000000000
         C           -2.974510244245    -1.122979135475    -0.341600065503    12.000000000000
         C           -1.420738244245     2.003172864525     0.675882934497    12.000000000000
         C            1.242448755755     0.903797864525    -0.690264065503    12.000000000000
         C            1.379214755755    -1.143111135475     0.590260934497    12.000000000000
         C            2.632074755755     1.020643864525    -0.647938065503    12.000000000000
         C            2.769446755755    -1.035366135475     0.612187934497    12.000000000000
         C            3.400421755755     0.051402864525     0.001365934497    12.000000000000
         H           -1.192577244245    -2.411192135475    -0.767285065503     1.007825032230
         H           -3.881820244245     0.839252864525     0.280720934497     1.007825032230
         H           -3.824805244245    -1.762412135475    -0.540944065503     1.007825032230
         H           -2.220760244245     2.347504864525     1.333967934497     1.007825032230
         H           -0.486516244245     1.968596864525     1.237237934497     1.007825032230
         H           -1.313415244245     2.707670864525    -0.154087065503     1.007825032230
         H            0.654117755755     1.634519864525    -1.241209065503     1.007825032230
         H            0.881762755755    -1.973506135475     1.086656934497     1.007825032230
         H            3.117889755755     1.860499864525    -1.139800065503     1.007825032230
         H            3.361569755755    -1.793118135475     1.120449934497     1.007825032230
         H            4.483835755755     0.140209864525     0.027232934497     1.007825032230

  Basis Set: AUG-CC-PVTZ
    Blend: AUG-CC-PVTZ
  Basis Set: (AUG-CC-PVTZ AUX)
    Blend: AUG-CC-PVTZ-JKFIT
	 Reference Energy          =    -477.5451613373346049 [Eh]
	 Singles Energy            =      -0.0000000000000000 [Eh]
	 Same-Spin Energy          =      -0.5386225335746426 [Eh]
	 Opposite-Spin Energy      =      -1.6820240480398629 [Eh]
	 Correlation Energy        =      -2.2206465816145053 [Eh]
	 Total Energy              =    -479.7658079189491218 [Eh]

	 ================> DF-SCS-MP2 Energies <==================
	-----------------------------------------------------------
	 SCS Same-Spin Scale       =       0.3333333333333333 [-]
	 SCS Opposite-Spin Scale   =       1.2000000000000000 [-]
	 SCS Same-Spin Energy      =      -0.1795408445248809 [Eh]
	 SCS Opposite-Spin Energy  =      -2.0184288576478355 [Eh]
	 SCS Correlation Energy    =      -2.1979697021727165 [Eh]
	 SCS Total Energy          =    -479.7431310395073183 [Eh]
	-----------------------------------------------------------

  Dipole Moment: [D]
     X:     0.4662      Y:     1.9232      Z:     0.7037     Total:     2.1003

*** Psi4 exiting successfully. Buy a developer a beer!
