                               Psi4 1.3.2 release

  ==> Input File <==

--------------------------------------------------------------------------
#psi4
#
memory 32 gb

molecule  {
0 1
  N       -1.7531090     0.6487580     0.1985890
  C       -0.8536243    -0.4018924    -0.0877471
  C        0.5958890    -0.1944310    -0.0686340
  C       -1.6095070    -1.4830350    -0.4543950
  C       -3.0364380     0.1798280     0.0590890
  C       -2.9750140    -1.1422740    -0.3482900
  C       -1.4212420     1.9838780     0.6691930
  C        1.2419450     0.8845030    -0.6969540
  C        1.3787110    -1.1624060     0.5835710
  C        2.6315710     1.0013490    -0.6546280
  C        2.7689430    -1.0546610     0.6054980
  C        3.3999180     0.0321080    -0.0053240
  H       -1.1930810    -2.4304870    -0.7739750
  H       -3.8823240     0.8199580     0.2740310
  H       -3.8253090    -1.7817070    -0.5476340
  H       -2.2212640     2.3282100     1.3272780
  H       -0.4870200     1.9493020     1.2305480
  H       -1.3139190     2.6883760    -0.1607770
  H        0.6536140     1.6152250    -1.2478990
  H        0.8812590    -1.9928010     1.0799670
  H        3.1173860     1.8412050    -1.1464900
  H        3.3610660    -1.8124130     1.1137600
  H        4.4833320     0.1209150     0.0205430
units angstrom
no_reorient  #important for SAPT in psi4, default
symmetry c1  #important for SAPT in psi4, default
}

set PROPERTIES_ORIGIN ["COM"]
properties('MP2/aug-cc-pvtz', properties = ['dipole'])
--------------------------------------------------------------------------

    Molecular point group: c1
  Charge       = 0
  Multiplicity = 1
  Basis Set: AUG-CC-PVTZ
    Blend: AUG-CC-PVTZ
  Basis Set: (AUG-CC-PVTZ AUX)
    Blend: AUG-CC-PVTZ-JKFIT

    Orbital Energies [Eh]
    ---------------------

    Doubly Occupied:

       1A    -15.604240     2A    -11.269304     3A    -11.255750
       4A    -11.250845     5A    -11.250085     6A    -11.241045
       7A    -11.239871     8A    -11.239012     9A    -11.237722
      10A    -11.236234    11A    -11.207868    12A    -11.206771
      13A     -1.291932    14A     -1.154992    15A     -1.075268
      16A     -1.043463    17A     -1.016059    18A     -0.956371
      19A     -0.930972    20A     -0.833477    21A     -0.830225
      22A     -0.769590    23A     -0.743381    24A     -0.711376
      25A     -0.677650    26A     -0.637909    27A     -0.631319
      28A     -0.622110    29A     -0.595471    30A     -0.586860
      31A     -0.571292    32A     -0.564951    33A     -0.539871
      34A     -0.526674    35A     -0.522631    36A     -0.501175
      37A     -0.496789    38A     -0.490508    39A     -0.355694
      40A     -0.340051    41A     -0.334579    42A     -0.277308

  @DF-RHF Final Energy:  -477.54450449770411

   => Energetics <=

    Nuclear Repulsion Energy =            638.8487599385823614
    One-Electron Energy =               -1913.0491398784770354
    Two-Electron Energy =                 796.6558754421905633
    Total Energy =                       -477.5445044977041107
  Basis Set: (AUG-CC-PVTZ AUX)
    Blend: AUG-CC-PVTZ-RI
    Molecular point group: c1

    Geometry (in Angstrom), charge = 0, multiplicity = 1:

       Center              X                  Y                   Z               Mass
    ------------   -----------------  -----------------  -----------------  -----------------
         N           -1.756134733088     0.673125250512     0.203835030823    14.003074004430
         C           -0.856650033088    -0.377525149488    -0.082501069177    12.000000000000
         C            0.592863266912    -0.170063749488    -0.063387969177    12.000000000000
         C           -1.612532733088    -1.458667749488    -0.449148969177    12.000000000000
         C           -3.039463733088     0.204195250512     0.064335030823    12.000000000000
         C           -2.978039733088    -1.117906749488    -0.343043969177    12.000000000000
         C           -1.424267733088     2.008245250512     0.674439030823    12.000000000000
         C            1.238919266912     0.908870250512    -0.691707969177    12.000000000000
         C            1.375685266912    -1.138038749488     0.588817030823    12.000000000000
         C            2.628545266912     1.025716250512    -0.649381969177    12.000000000000
         C            2.765917266912    -1.030293749488     0.610744030823    12.000000000000
         C            3.396892266912     0.056475250512    -0.000077969177    12.000000000000
         H           -1.196106733088    -2.406119749488    -0.768728969177     1.007825032230
         H           -3.885349733088     0.844325250512     0.279277030823     1.007825032230
         H           -3.828334733088    -1.757339749488    -0.542387969177     1.007825032230
         H           -2.224289733088     2.352577250512     1.332524030823     1.007825032230
         H           -0.490045733088     1.973669250512     1.235794030823     1.007825032230
         H           -1.316944733088     2.712743250512    -0.155530969177     1.007825032230
         H            0.650588266912     1.639592250512    -1.242652969177     1.007825032230
         H            0.878233266912    -1.968433749488     1.085213030823     1.007825032230
         H            3.114360266912     1.865572250512    -1.141243969177     1.007825032230
         H            3.358040266912    -1.788045749488     1.119006030823     1.007825032230
         H            4.480306266912     0.145282250512     0.025789030823     1.007825032230

  Basis Set: AUG-CC-PVTZ
    Blend: AUG-CC-PVTZ
  Basis Set: (AUG-CC-PVTZ AUX)
    Blend: AUG-CC-PVTZ-JKFIT
	 Reference Energy          =    -477.5445044977041107 [Eh]
	 Singles Energy            =      -0.0000000000000000 [Eh]
	 Same-Spin Energy          =      -0.5388858043509976 [Eh]
	 Opposite-Spin Energy      =      -1.6831790012285166 [Eh]
	 Correlation Energy        =      -2.2220648055795142 [Eh]
	 Total Energy              =    -479.7665693032836316 [Eh]

	 ================> DF-SCS-MP2 Energies <==================
	-----------------------------------------------------------
	 SCS Same-Spin Scale       =       0.3333333333333333 [-]
	 SCS Opposite-Spin Scale   =       1.2000000000000000 [-]
	 SCS Same-Spin Energy      =      -0.1796286014503325 [Eh]
	 SCS Opposite-Spin Energy  =      -2.0198148014742197 [Eh]
	 SCS Correlation Energy    =      -2.1994434029245520 [Eh]
	 SCS Total Energy          =    -479.7439479006286547 [Eh]
	-----------------------------------------------------------

  Dipole Moment: [D]
     X:     0.4877      Y:     1.8065      Z:     0.6432     Total:     1.9786

*** Psi4 exiting successfully. Buy a developer a beer!
