                               Psi4 1.3.2 release

  ==> Input File <==

--------------------------------------------------------------------------
#psi4
#
memory 32 gb

molecule  {
0 1
  N       -1.7903610     0.7331351     0.2247156
  C       -0.8584400    -0.3593730    -0.1157050
  C        0.5958890    -0.1944310    -0.0686340
  C       -1.6095070    -1.4830350    -0.4543950
  C       -3.0364380     0.1798280     0.0590890
  C       -2.9750140    -1.1422740    -0.3482900
  C       -1.4212420     1.9838780     0.6691930
  C        1.2419450     0.8845030    -0.6969540
  C        1.3787110    -1.1624060     0.5835710
  C        2.6315710     1.0013490    -0.6546280
  C        2.7689430    -1.0546610     0.6054980
  C        3.3999180     0.0321080    -0.0053240
  H       -1.1930810    -2.4304870    -0.7739750
  H       -3.8823240     0.8199580     0.2740310
  H       -3.8253090    -1.7817070    -0.5476340
  H       -2.2212640     2.3282100     1.3272780
  H       -0.4870200     1.9493020     1.2305480
  H       -1.3139190     2.6883760    -0.1607770
  H        0.6536140     1.6152250    -1.2478990
  H        0.8812590    -1.9928010     1.0799670
  H        3.1173860     1.8412050    -1.1464900
  H        3.3610660    -1.8124130     1.1137600
  H        4.4833320     0.1209150     0.0205430
units angstrom
no_reorient  #important for SAPT in psi4, default
symmetry c1  #important for SAPT in psi4, default
}

set PROPERTIES_ORIGIN ["COM"]
properties('MP2/aug-cc-pvtz', properties = ['dipole'])
--------------------------------------------------------------------------

    Molecular point group: c1
  Charge       = 0
  Multiplicity = 1
  Basis Set: AUG-CC-PVTZ
    Blend: AUG-CC-PVTZ
  Basis Set: (AUG-CC-PVTZ AUX)
    Blend: AUG-CC-PVTZ-JKFIT

    Orbital Energies [Eh]
    ---------------------

    Doubly Occupied:

       1A    -15.604646     2A    -11.262594     3A    -11.262357
       4A    -11.257128     5A    -11.249659     6A    -11.240017
       7A    -11.238969     8A    -11.238500     9A    -11.237351
      10A    -11.236566    11A    -11.217057    12A    -11.210064
      13A     -1.290878    14A     -1.154889    15A     -1.088151
      16A     -1.042191    17A     -1.015664    18A     -0.953035
      19A     -0.929210    20A     -0.832070    21A     -0.829565
      22A     -0.768039    23A     -0.747110    24A     -0.713190
      25A     -0.676555    26A     -0.641693    27A     -0.631155
      28A     -0.624724    29A     -0.599414    30A     -0.591104
      31A     -0.586739    32A     -0.558926    33A     -0.538289
      34A     -0.521472    35A     -0.514461    36A     -0.497453
      37A     -0.495004    38A     -0.488620    39A     -0.356753
      40A     -0.339706    41A     -0.335819    42A     -0.273971

  @DF-RHF Final Energy:  -477.53213219035479

   => Energetics <=

    Nuclear Repulsion Energy =            637.8175164206161298
    One-Electron Energy =               -1910.9177766533277918
    Two-Electron Energy =                 795.5681280423568751
    Total Energy =                       -477.5321321903547869
  Basis Set: (AUG-CC-PVTZ AUX)
    Blend: AUG-CC-PVTZ-RI
    Molecular point group: c1

    Geometry (in Angstrom), charge = 0, multiplicity = 1:

       Center              X                  Y                   Z               Mass
    ------------   -----------------  -----------------  -----------------  -----------------
         N           -1.789698184800     0.746732850630     0.229768378052    14.003074004430
         C           -0.857777184800    -0.345775249370    -0.110652221948    12.000000000000
         C            0.596551815200    -0.180833249370    -0.063581221948    12.000000000000
         C           -1.608844184800    -1.469437249370    -0.449342221948    12.000000000000
         C           -3.035775184800     0.193425750630     0.064141778052    12.000000000000
         C           -2.974351184800    -1.128676249370    -0.343237221948    12.000000000000
         C           -1.420579184800     1.997475750630     0.674245778052    12.000000000000
         C            1.242607815200     0.898100750630    -0.691901221948    12.000000000000
         C            1.379373815200    -1.148808249370     0.588623778052    12.000000000000
         C            2.632233815200     1.014946750630    -0.649575221948    12.000000000000
         C            2.769605815200    -1.041063249370     0.610550778052    12.000000000000
         C            3.400580815200     0.045705750630    -0.000271221948    12.000000000000
         H           -1.192418184800    -2.416889249370    -0.768922221948     1.007825032230
         H           -3.881661184800     0.833555750630     0.279083778052     1.007825032230
         H           -3.824646184800    -1.768109249370    -0.542581221948     1.007825032230
         H           -2.220601184800     2.341807750630     1.332330778052     1.007825032230
         H           -0.486357184800     1.962899750630     1.235600778052     1.007825032230
         H           -1.313256184800     2.701973750630    -0.155724221948     1.007825032230
         H            0.654276815200     1.628822750630    -1.242846221948     1.007825032230
         H            0.881921815200    -1.979203249370     1.085019778052     1.007825032230
         H            3.118048815200     1.854802750630    -1.141437221948     1.007825032230
         H            3.361728815200    -1.798815249370     1.118812778052     1.007825032230
         H            4.483994815200     0.134512750630     0.025595778052     1.007825032230

  Basis Set: AUG-CC-PVTZ
    Blend: AUG-CC-PVTZ
  Basis Set: (AUG-CC-PVTZ AUX)
    Blend: AUG-CC-PVTZ-JKFIT
	 Reference Energy          =    -477.5321321903547869 [Eh]
	 Singles Energy            =      -0.0000000000000000 [Eh]
	 Same-Spin Energy          =      -0.5396429153815577 [Eh]
	 Opposite-Spin Energy      =      -1.6848364386094372 [Eh]
	 Correlation Energy        =      -2.2244793539909948 [Eh]
	 Total Energy              =    -479.7566115443457875 [Eh]

	 ================> DF-SCS-MP2 Energies <==================
	-----------------------------------------------------------
	 SCS Same-Spin Scale       =       0.3333333333333333 [-]
	 SCS Opposite-Spin Scale   =       1.2000000000000000 [-]
	 SCS Same-Spin Energy      =      -0.1798809717938526 [Eh]
	 SCS Opposite-Spin Energy  =      -2.0218037263313247 [Eh]
	 SCS Correlation Energy    =      -2.2016846981251774 [Eh]
	 SCS Total Energy          =    -479.7338168884799643 [Eh]
	-----------------------------------------------------------

  Dipole Moment: [D]
     X:     0.4608      Y:     1.5772      Z:     0.5912     Total:     1.7462

*** Psi4 exiting successfully. Buy a developer a beer!
