                               Psi4 1.3.2 release

  ==> Input File <==

--------------------------------------------------------------------------
#psi4
#
memory 32 gb

molecule  {
0 1
  N       -1.7531090     0.6487580     0.1985890
  C       -0.8584400    -0.3593730    -0.1157050
  C        0.5958890    -0.1944310    -0.0686340
  C       -1.5796815    -1.3447525    -0.4118157
  C       -3.0364380     0.1798280     0.0590890
  C       -2.9750140    -1.1422740    -0.3482900
  C       -1.4212420     1.9838780     0.6691930
  C        1.2419450     0.8845030    -0.6969540
  C        1.3787110    -1.1624060     0.5835710
  C        2.6315710     1.0013490    -0.6546280
  C        2.7689430    -1.0546610     0.6054980
  C        3.3999180     0.0321080    -0.0053240
  H       -1.1930810    -2.4304870    -0.7739750
  H       -3.8823240     0.8199580     0.2740310
  H       -3.8253090    -1.7817070    -0.5476340
  H       -2.2212640     2.3282100     1.3272780
  H       -0.4870200     1.9493020     1.2305480
  H       -1.3139190     2.6883760    -0.1607770
  H        0.6536140     1.6152250    -1.2478990
  H        0.8812590    -1.9928010     1.0799670
  H        3.1173860     1.8412050    -1.1464900
  H        3.3610660    -1.8124130     1.1137600
  H        4.4833320     0.1209150     0.0205430
units angstrom
no_reorient  #important for SAPT in psi4, default
symmetry c1  #important for SAPT in psi4, default
}

set PROPERTIES_ORIGIN ["COM"]
properties('MP2/aug-cc-pvtz', properties = ['dipole'])
--------------------------------------------------------------------------

    Molecular point group: c1
  Charge       = 0
  Multiplicity = 1
  Basis Set: AUG-CC-PVTZ
    Blend: AUG-CC-PVTZ
  Basis Set: (AUG-CC-PVTZ AUX)
    Blend: AUG-CC-PVTZ-JKFIT

    Orbital Energies [Eh]
    ---------------------

    Doubly Occupied:

       1A    -15.596935     2A    -11.266867     3A    -11.252340
       4A    -11.250697     5A    -11.240999     6A    -11.239935
       7A    -11.239505     8A    -11.238369     9A    -11.237591
      10A    -11.237496    11A    -11.205032    12A    -11.201295
      13A     -1.306225    14A     -1.155516    15A     -1.084331
      16A     -1.045910    17A     -1.016453    18A     -0.968501
      19A     -0.925543    20A     -0.834676    21A     -0.831283
      22A     -0.775910    23A     -0.739338    24A     -0.706891
      25A     -0.679711    26A     -0.640549    27A     -0.633031
      28A     -0.621502    29A     -0.594601    30A     -0.587156
      31A     -0.578647    32A     -0.560699    33A     -0.546465
      34A     -0.532590    35A     -0.505824    36A     -0.501596
      37A     -0.493695    38A     -0.479934    39A     -0.359414
      40A     -0.340069    41A     -0.333704    42A     -0.289359

  @DF-RHF Final Energy:  -477.51731160597859

   => Energetics <=

    Nuclear Repulsion Energy =            642.3144034850721482
    One-Electron Energy =               -1919.9110658435088226
    Two-Electron Energy =                 800.0793507524581401
    Total Energy =                       -477.5173116059786480
  Basis Set: (AUG-CC-PVTZ AUX)
    Blend: AUG-CC-PVTZ-RI
    Molecular point group: c1

    Geometry (in Angstrom), charge = 0, multiplicity = 1:

       Center              X                  Y                   Z               Mass
    ------------   -----------------  -----------------  -----------------  -----------------
         N           -1.758045225322     0.659313839547     0.202718105811    14.003074004430
         C           -0.863376225322    -0.348817160453    -0.111575894189    12.000000000000
         C            0.590952774678    -0.183875160453    -0.064504894189    12.000000000000
         C           -1.584617725322    -1.334196660453    -0.407686594189    12.000000000000
         C           -3.041374225322     0.190383839547     0.063218105811    12.000000000000
         C           -2.979950225322    -1.131718160453    -0.344160894189    12.000000000000
         C           -1.426178225322     1.994433839547     0.673322105811    12.000000000000
         C            1.237008774678     0.895058839547    -0.692824894189    12.000000000000
         C            1.373774774678    -1.151850160453     0.587700105811    12.000000000000
         C            2.626634774678     1.011904839547    -0.650498894189    12.000000000000
         C            2.764006774678    -1.044105160453     0.609627105811    12.000000000000
         C            3.394981774678     0.042663839547    -0.001194894189    12.000000000000
         H           -1.198017225322    -2.419931160453    -0.769845894189     1.007825032230
         H           -3.887260225322     0.830513839547     0.278160105811     1.007825032230
         H           -3.830245225322    -1.771151160453    -0.543504894189     1.007825032230
         H           -2.226200225322     2.338765839547     1.331407105811     1.007825032230
         H           -0.491956225322     1.959857839547     1.234677105811     1.007825032230
         H           -1.318855225322     2.698931839547    -0.156647894189     1.007825032230
         H            0.648677774678     1.625780839547    -1.243769894189     1.007825032230
         H            0.876322774678    -1.982245160453     1.084096105811     1.007825032230
         H            3.112449774678     1.851760839547    -1.142360894189     1.007825032230
         H            3.356129774678    -1.801857160453     1.117889105811     1.007825032230
         H            4.478395774678     0.131470839547     0.024672105811     1.007825032230

  Basis Set: AUG-CC-PVTZ
    Blend: AUG-CC-PVTZ
  Basis Set: (AUG-CC-PVTZ AUX)
    Blend: AUG-CC-PVTZ-JKFIT
	 Reference Energy          =    -477.5173116059785912 [Eh]
	 Singles Energy            =      -0.0000000000000000 [Eh]
	 Same-Spin Energy          =      -0.5379399109054580 [Eh]
	 Opposite-Spin Energy      =      -1.6816658153672153 [Eh]
	 Correlation Energy        =      -2.2196057262726732 [Eh]
	 Total Energy              =    -479.7369173322512665 [Eh]

	 ================> DF-SCS-MP2 Energies <==================
	-----------------------------------------------------------
	 SCS Same-Spin Scale       =       0.3333333333333333 [-]
	 SCS Opposite-Spin Scale   =       1.2000000000000000 [-]
	 SCS Same-Spin Energy      =      -0.1793133036351527 [Eh]
	 SCS Opposite-Spin Energy  =      -2.0179989784406582 [Eh]
	 SCS Correlation Energy    =      -2.1973122820758109 [Eh]
	 SCS Total Energy          =    -479.7146238880544047 [Eh]
	-----------------------------------------------------------

  Dipole Moment: [D]
     X:     0.5349      Y:     1.7871      Z:     0.6645     Total:     1.9802

*** Psi4 exiting successfully. Buy a developer a beer!
