                               Psi4 1.3.2 release

  ==> Input File <==

--------------------------------------------------------------------------
#psi4
#
memory 32 gb

molecule  {
0 1
  N       -1.7531090     0.6487580     0.1985890
  C       -0.8584400    -0.3593730    -0.1157050
  C        0.6839845    -0.2248396    -0.0379305
  C       -1.6095070    -1.4830350    -0.4543950
  C       -3.0364380     0.1798280     0.0590890
  C       -2.9750140    -1.1422740    -0.3482900
  C       -1.4212420     1.9838780     0.6691930
  C        1.2419450     0.8845030    -0.6969540
  C        1.3787110    -1.1624060     0.5835710
  C        2.6315710     1.0013490    -0.6546280
  C        2.7689430    -1.0546610     0.6054980
  C        3.3999180     0.0321080    -0.0053240
  H       -1.1930810    -2.4304870    -0.7739750
  H       -3.8823240     0.8199580     0.2740310
  H       -3.8253090    -1.7817070    -0.5476340
  H       -2.2212640     2.3282100     1.3272780
  H       -0.4870200     1.9493020     1.2305480
  H       -1.3139190     2.6883760    -0.1607770
  H        0.6536140     1.6152250    -1.2478990
  H        0.8812590    -1.9928010     1.0799670
  H        3.1173860     1.8412050    -1.1464900
  H        3.3610660    -1.8124130     1.1137600
  H        4.4833320     0.1209150     0.0205430
units angstrom
no_reorient  #important for SAPT in psi4, default
symmetry c1  #important for SAPT in psi4, default
}

set PROPERTIES_ORIGIN ["COM"]
properties('MP2/aug-cc-pvtz', properties = ['dipole'])
--------------------------------------------------------------------------

    Molecular point group: c1
  Charge       = 0
  Multiplicity = 1
  Basis Set: AUG-CC-PVTZ
    Blend: AUG-CC-PVTZ
  Basis Set: (AUG-CC-PVTZ AUX)
    Blend: AUG-CC-PVTZ-JKFIT

    Orbital Energies [Eh]
    ---------------------

    Doubly Occupied:

       1A    -15.606397     2A    -11.270115     3A    -11.258582
       4A    -11.247983     5A    -11.245867     6A    -11.241525
       7A    -11.240646     8A    -11.240091     9A    -11.237820
      10A    -11.228489    11A    -11.206120    12A    -11.203594
      13A     -1.295870    14A     -1.164925    15A     -1.070886
      16A     -1.040001    17A     -1.021082    18A     -0.955387
      19A     -0.931847    20A     -0.838117    21A     -0.825269
      22A     -0.768026    23A     -0.741157    24A     -0.711561
      25A     -0.675379    26A     -0.639836    27A     -0.630865
      28A     -0.626759    29A     -0.599623    30A     -0.589222
      31A     -0.567933    32A     -0.565071    33A     -0.536203
      34A     -0.525118    35A     -0.521989    36A     -0.508138
      37A     -0.502464    38A     -0.478159    39A     -0.356802
      40A     -0.341076    41A     -0.333419    42A     -0.277883

  @DF-RHF Final Energy:  -477.53657443578049

   => Energetics <=

    Nuclear Repulsion Energy =            638.9899558490486697
    One-Electron Energy =               -1913.3184636997314101
    Two-Electron Energy =                 796.7919334149023598
    Total Energy =                       -477.5365744357804942
  Basis Set: (AUG-CC-PVTZ AUX)
    Blend: AUG-CC-PVTZ-RI
    Molecular point group: c1

    Geometry (in Angstrom), charge = 0, multiplicity = 1:

       Center              X                  Y                   Z               Mass
    ------------   -----------------  -----------------  -----------------  -----------------
         N           -1.762496455741     0.672200109594     0.203625295140    14.003074004430
         C           -0.867827455741    -0.335930890406    -0.110668704860    12.000000000000
         C            0.674597044259    -0.201397490406    -0.032894204860    12.000000000000
         C           -1.618894455741    -1.459592890406    -0.449358704860    12.000000000000
         C           -3.045825455741     0.203270109594     0.064125295140    12.000000000000
         C           -2.984401455741    -1.118831890406    -0.343253704860    12.000000000000
         C           -1.430629455741     2.007320109594     0.674229295140    12.000000000000
         C            1.232557544259     0.907945109594    -0.691917704860    12.000000000000
         C            1.369323544259    -1.138963890406     0.588607295140    12.000000000000
         C            2.622183544259     1.024791109594    -0.649591704860    12.000000000000
         C            2.759555544259    -1.031218890406     0.610534295140    12.000000000000
         C            3.390530544259     0.055550109594    -0.000287704860    12.000000000000
         H           -1.202468455741    -2.407044890406    -0.768938704860     1.007825032230
         H           -3.891711455741     0.843400109594     0.279067295140     1.007825032230
         H           -3.834696455741    -1.758264890406    -0.542597704860     1.007825032230
         H           -2.230651455741     2.351652109594     1.332314295140     1.007825032230
         H           -0.496407455741     1.972744109594     1.235584295140     1.007825032230
         H           -1.323306455741     2.711818109594    -0.155740704860     1.007825032230
         H            0.644226544259     1.638667109594    -1.242862704860     1.007825032230
         H            0.871871544259    -1.969358890406     1.085003295140     1.007825032230
         H            3.107998544259     1.864647109594    -1.141453704860     1.007825032230
         H            3.351678544259    -1.788970890406     1.118796295140     1.007825032230
         H            4.473944544259     0.144357109594     0.025579295140     1.007825032230

  Basis Set: AUG-CC-PVTZ
    Blend: AUG-CC-PVTZ
  Basis Set: (AUG-CC-PVTZ AUX)
    Blend: AUG-CC-PVTZ-JKFIT
	 Reference Energy          =    -477.5365744357804942 [Eh]
	 Singles Energy            =      -0.0000000000000000 [Eh]
	 Same-Spin Energy          =      -0.5381492630465196 [Eh]
	 Opposite-Spin Energy      =      -1.6820502730599822 [Eh]
	 Correlation Energy        =      -2.2201995361065019 [Eh]
	 Total Energy              =    -479.7567739718870143 [Eh]

	 ================> DF-SCS-MP2 Energies <==================
	-----------------------------------------------------------
	 SCS Same-Spin Scale       =       0.3333333333333333 [-]
	 SCS Opposite-Spin Scale   =       1.2000000000000000 [-]
	 SCS Same-Spin Energy      =      -0.1793830876821732 [Eh]
	 SCS Opposite-Spin Energy  =      -2.0184603276719786 [Eh]
	 SCS Correlation Energy    =      -2.1978434153541517 [Eh]
	 SCS Total Energy          =    -479.7344178511346513 [Eh]
	-----------------------------------------------------------

  Dipole Moment: [D]
     X:     0.7041      Y:     1.8804      Z:     0.6971     Total:     2.1255

*** Psi4 exiting successfully. Buy a developer a beer!
