                               Psi4 1.4a3.dev225

  ==> Input File <==

--------------------------------------------------------------------------
#psi4
#
memory 32 gb

molecule  {
0 1
  N       -1.7531090     0.6487580     0.1985890
  C       -0.8584400    -0.3593730    -0.1157050
  C        0.5958890    -0.1944310    -0.0686340
  C       -1.6095070    -1.4830350    -0.4543950
  C       -3.0364380     0.1798280     0.0590890
  C       -2.9772318    -1.0945380    -0.3335811
  C       -1.4212420     1.9838780     0.6691930
  C        1.2419450     0.8845030    -0.6969540
  C        1.3787110    -1.1624060     0.5835710
  C        2.6315710     1.0013490    -0.6546280
  C        2.7689430    -1.0546610     0.6054980
  C        3.3999180     0.0321080    -0.0053240
  H       -1.1930810    -2.4304870    -0.7739750
  H       -3.8823240     0.8199580     0.2740310
  H       -3.8253090    -1.7817070    -0.5476340
  H       -2.2212640     2.3282100     1.3272780
  H       -0.4870200     1.9493020     1.2305480
  H       -1.3139190     2.6883760    -0.1607770
  H        0.6536140     1.6152250    -1.2478990
  H        0.8812590    -1.9928010     1.0799670
  H        3.1173860     1.8412050    -1.1464900
  H        3.3610660    -1.8124130     1.1137600
  H        4.4833320     0.1209150     0.0205430
units angstrom
no_reorient  #important for SAPT in psi4, default
symmetry c1  #important for SAPT in psi4, default
}

set PROPERTIES_ORIGIN ["COM"]
properties('MP2/aug-cc-pvtz', properties = ['dipole'])
--------------------------------------------------------------------------

    Molecular point group: c1
  Charge       = 0
  Multiplicity = 1
  Basis Set: AUG-CC-PVTZ
    Blend: AUG-CC-PVTZ
  Basis Set: (AUG-CC-PVTZ AUX)
    Blend: AUG-CC-PVTZ-JKFIT

    Orbital Energies [Eh]
    ---------------------

    Doubly Occupied:

       1A    -15.602877     2A    -11.269247     3A    -11.257814
       4A    -11.250203     5A    -11.242350     6A    -11.240962
       7A    -11.239866     8A    -11.239521     9A    -11.238302
      10A    -11.237434    11A    -11.206919    12A    -11.205508
      13A     -1.299523    14A     -1.155398    15A     -1.073877
      16A     -1.046035    17A     -1.016445    18A     -0.960048
      19A     -0.929430    20A     -0.834919    21A     -0.830730
      22A     -0.769035    23A     -0.742798    24A     -0.710663
      25A     -0.678285    26A     -0.639843    27A     -0.632154
      28A     -0.622037    29A     -0.595075    30A     -0.587406
      31A     -0.570599    32A     -0.566635    33A     -0.537752
      34A     -0.528170    35A     -0.522460    36A     -0.502533
      37A     -0.493290    38A     -0.491452    39A     -0.354917
      40A     -0.340383    41A     -0.333900    42A     -0.280356

  @DF-RHF Final Energy:  -477.54451454940056

   => Energetics <=

    Nuclear Repulsion Energy =            639.7177585524805181
    One-Electron Energy =               -1914.7702471482327837
    Two-Electron Energy =                 797.5079740463517055
    Total Energy =                       -477.5445145494005601
  Basis Set: (AUG-CC-PVTZ AUX)
    Blend: AUG-CC-PVTZ-RI
    Molecular point group: c1

    Geometry (in Angstrom), charge = 0, multiplicity = 1:

       Center              X                  Y                   Z               Mass
    ------------   -----------------  -----------------  -----------------  -----------------
         N           -1.755597445819     0.666230663557     0.204847118549    14.003074004430
         C           -0.860928445819    -0.341900336443    -0.109446881451    12.000000000000
         C            0.593400554181    -0.176958336443    -0.062375881451    12.000000000000
         C           -1.611995445819    -1.465562336443    -0.448136881451    12.000000000000
         C           -3.038926445819     0.197300663557     0.065347118549    12.000000000000
         C           -2.979720245819    -1.077065336443    -0.327322981451    12.000000000000
         C           -1.423730445819     2.001350663557     0.675451118549    12.000000000000
         C            1.239456554181     0.901975663557    -0.690695881451    12.000000000000
         C            1.376222554181    -1.144933336443     0.589829118549    12.000000000000
         C            2.629082554181     1.018821663557    -0.648369881451    12.000000000000
         C            2.766454554181    -1.037188336443     0.611756118549    12.000000000000
         C            3.397429554181     0.049580663557     0.000934118549    12.000000000000
         H           -1.195569445819    -2.413014336443    -0.767716881451     1.007825032230
         H           -3.884812445819     0.837430663557     0.280289118549     1.007825032230
         H           -3.827797445819    -1.764234336443    -0.541375881451     1.007825032230
         H           -2.223752445819     2.345682663557     1.333536118549     1.007825032230
         H           -0.489508445819     1.966774663557     1.236806118549     1.007825032230
         H           -1.316407445819     2.705848663557    -0.154518881451     1.007825032230
         H            0.651125554181     1.632697663557    -1.241640881451     1.007825032230
         H            0.878770554181    -1.975328336443     1.086225118549     1.007825032230
         H            3.114897554181     1.858677663557    -1.140231881451     1.007825032230
         H            3.358577554181    -1.794940336443     1.120018118549     1.007825032230
         H            4.480843554181     0.138387663557     0.026801118549     1.007825032230

  Basis Set: AUG-CC-PVTZ
    Blend: AUG-CC-PVTZ
  Basis Set: (AUG-CC-PVTZ AUX)
    Blend: AUG-CC-PVTZ-JKFIT
	 Reference Energy          =    -477.5445145494005601 [Eh]
	 Singles Energy            =      -0.0000000000000000 [Eh]
	 Same-Spin Energy          =      -0.5384434067112051 [Eh]
	 Opposite-Spin Energy      =      -1.6821226339244069 [Eh]
	 Correlation Energy        =      -2.2205660406356120 [Eh]
	 Total Energy              =    -479.7650805900361775 [Eh]

	 ================> DF-SCS-MP2 Energies <==================
	-----------------------------------------------------------
	 SCS Same-Spin Scale       =       0.3333333333333333 [-]
	 SCS Opposite-Spin Scale   =       1.2000000000000000 [-]
	 SCS Same-Spin Energy      =      -0.1794811355704017 [Eh]
	 SCS Opposite-Spin Energy  =      -2.0185471607092880 [Eh]
	 SCS Correlation Energy    =      -2.1980282962796895 [Eh]
	 SCS Total Energy          =    -479.7425428456802479 [Eh]
	-----------------------------------------------------------

  Dipole Moment: [D]
     X:     0.4639      Y:     1.8320      Z:     0.6681     Total:     2.0044

*** Psi4 exiting successfully. Buy a developer a beer!
