                               Psi4 1.3.2 release

  ==> Input File <==

--------------------------------------------------------------------------
#psi4
#
memory 32 gb

molecule  {
0 1
  N       -1.7531090     0.6487580     0.1985890
  C       -0.8584400    -0.3593730    -0.1157050
  C        0.5109410    -0.1587659    -0.1023986
  C       -1.6095070    -1.4830350    -0.4543950
  C       -3.0364380     0.1798280     0.0590890
  C       -2.9750140    -1.1422740    -0.3482900
  C       -1.4212420     1.9838780     0.6691930
  C        1.2419450     0.8845030    -0.6969540
  C        1.3787110    -1.1624060     0.5835710
  C        2.6315710     1.0013490    -0.6546280
  C        2.7689430    -1.0546610     0.6054980
  C        3.3999180     0.0321080    -0.0053240
  H       -1.1930810    -2.4304870    -0.7739750
  H       -3.8823240     0.8199580     0.2740310
  H       -3.8253090    -1.7817070    -0.5476340
  H       -2.2212640     2.3282100     1.3272780
  H       -0.4870200     1.9493020     1.2305480
  H       -1.3139190     2.6883760    -0.1607770
  H        0.6536140     1.6152250    -1.2478990
  H        0.8812590    -1.9928010     1.0799670
  H        3.1173860     1.8412050    -1.1464900
  H        3.3610660    -1.8124130     1.1137600
  H        4.4833320     0.1209150     0.0205430
units angstrom
no_reorient  #important for SAPT in psi4, default
symmetry c1  #important for SAPT in psi4, default
}

set PROPERTIES_ORIGIN ["COM"]
properties('MP2/aug-cc-pvtz', properties = ['dipole'])
--------------------------------------------------------------------------

    Molecular point group: c1
  Charge       = 0
  Multiplicity = 1
  Basis Set: AUG-CC-PVTZ
    Blend: AUG-CC-PVTZ
  Basis Set: (AUG-CC-PVTZ AUX)
    Blend: AUG-CC-PVTZ-JKFIT

    Orbital Energies [Eh]
    ---------------------

    Doubly Occupied:

       1A    -15.608511     2A    -11.271131     3A    -11.253159
       4A    -11.251829     5A    -11.251453     6A    -11.244737
       7A    -11.240269     8A    -11.239238     9A    -11.238398
      10A    -11.237223    11A    -11.211405    12A    -11.210104
      13A     -1.302214    14A     -1.147817    15A     -1.076228
      16A     -1.052150    17A     -1.011343    18A     -0.955100
      19A     -0.934907    20A     -0.841429    21A     -0.824722
      22A     -0.773788    23A     -0.744465    24A     -0.713764
      25A     -0.680251    26A     -0.640849    27A     -0.633981
      28A     -0.620305    29A     -0.594996    30A     -0.582382
      31A     -0.571755    32A     -0.569996    33A     -0.541041
      34A     -0.529458    35A     -0.526027    36A     -0.510497
      37A     -0.492578    38A     -0.476626    39A     -0.356392
      40A     -0.337940    41A     -0.336068    42A     -0.270487

  @DF-RHF Final Energy:  -477.53091282128935

   => Energetics <=

    Nuclear Repulsion Energy =            639.2565175727979749
    One-Electron Energy =               -1913.7608407699437976
    Two-Electron Energy =                 796.9734103758564743
    Total Energy =                       -477.5309128212893484
  Basis Set: (AUG-CC-PVTZ AUX)
    Blend: AUG-CC-PVTZ-RI
    Molecular point group: c1

    Geometry (in Angstrom), charge = 0, multiplicity = 1:

       Center              X                  Y                   Z               Mass
    ------------   -----------------  -----------------  -----------------  -----------------
         N           -1.749277706970     0.667152756525     0.208549996834    14.003074004430
         C           -0.854608706970    -0.340978243475    -0.105744003166    12.000000000000
         C            0.514772293030    -0.140371143475    -0.092437603166    12.000000000000
         C           -1.605675706970    -1.464640243475    -0.444434003166    12.000000000000
         C           -3.032606706970     0.198222756525     0.069049996834    12.000000000000
         C           -2.971182706970    -1.123879243475    -0.338329003166    12.000000000000
         C           -1.417410706970     2.002272756525     0.679153996834    12.000000000000
         C            1.245776293030     0.902897756525    -0.686993003166    12.000000000000
         C            1.382542293030    -1.144011243475     0.593531996834    12.000000000000
         C            2.635402293030     1.019743756525    -0.644667003166    12.000000000000
         C            2.772774293030    -1.036266243475     0.615458996834    12.000000000000
         C            3.403749293030     0.050502756525     0.004636996834    12.000000000000
         H           -1.189249706970    -2.412092243475    -0.764014003166     1.007825032230
         H           -3.878492706970     0.838352756525     0.283991996834     1.007825032230
         H           -3.821477706970    -1.763312243475    -0.537673003166     1.007825032230
         H           -2.217432706970     2.346604756525     1.337238996834     1.007825032230
         H           -0.483188706970     1.967696756525     1.240508996834     1.007825032230
         H           -1.310087706970     2.706770756525    -0.150816003166     1.007825032230
         H            0.657445293030     1.633619756525    -1.237938003166     1.007825032230
         H            0.885090293030    -1.974406243475     1.089927996834     1.007825032230
         H            3.121217293030     1.859599756525    -1.136529003166     1.007825032230
         H            3.364897293030    -1.794018243475     1.123720996834     1.007825032230
         H            4.487163293030     0.139309756525     0.030503996834     1.007825032230

  Basis Set: AUG-CC-PVTZ
    Blend: AUG-CC-PVTZ
  Basis Set: (AUG-CC-PVTZ AUX)
    Blend: AUG-CC-PVTZ-JKFIT
	 Reference Energy          =    -477.5309128212893484 [Eh]
	 Singles Energy            =      -0.0000000000000000 [Eh]
	 Same-Spin Energy          =      -0.5409153762929089 [Eh]
	 Opposite-Spin Energy      =      -1.6860240522306376 [Eh]
	 Correlation Energy        =      -2.2269394285235462 [Eh]
	 Total Energy              =    -479.7578522498129132 [Eh]

	 ================> DF-SCS-MP2 Energies <==================
	-----------------------------------------------------------
	 SCS Same-Spin Scale       =       0.3333333333333333 [-]
	 SCS Opposite-Spin Scale   =       1.2000000000000000 [-]
	 SCS Same-Spin Energy      =      -0.1803051254309696 [Eh]
	 SCS Opposite-Spin Energy  =      -2.0232288626767652 [Eh]
	 SCS Correlation Energy    =      -2.2035339881077349 [Eh]
	 SCS Total Energy          =    -479.7344468093970704 [Eh]
	-----------------------------------------------------------

  Dipole Moment: [D]
     X:     0.2086      Y:     1.8318      Z:     0.6554     Total:     1.9567

*** Psi4 exiting successfully. Buy a developer a beer!
