                               Psi4 1.3.2 release

  ==> Input File <==

--------------------------------------------------------------------------
#psi4
#
memory 32 gb

molecule  {
0 1
  N       -1.7531090     0.6487580     0.1985890
  C       -0.8380724    -0.3720773    -0.1195958
  C        0.5958890    -0.1944310    -0.0686340
  C       -1.6095070    -1.4830350    -0.4543950
  C       -3.0364380     0.1798280     0.0590890
  C       -2.9750140    -1.1422740    -0.3482900
  C       -1.4212420     1.9838780     0.6691930
  C        1.2419450     0.8845030    -0.6969540
  C        1.3787110    -1.1624060     0.5835710
  C        2.6315710     1.0013490    -0.6546280
  C        2.7689430    -1.0546610     0.6054980
  C        3.3999180     0.0321080    -0.0053240
  H       -1.1930810    -2.4304870    -0.7739750
  H       -3.8823240     0.8199580     0.2740310
  H       -3.8253090    -1.7817070    -0.5476340
  H       -2.2212640     2.3282100     1.3272780
  H       -0.4870200     1.9493020     1.2305480
  H       -1.3139190     2.6883760    -0.1607770
  H        0.6536140     1.6152250    -1.2478990
  H        0.8812590    -1.9928010     1.0799670
  H        3.1173860     1.8412050    -1.1464900
  H        3.3610660    -1.8124130     1.1137600
  H        4.4833320     0.1209150     0.0205430
units angstrom
no_reorient  #important for SAPT in psi4, default
symmetry c1  #important for SAPT in psi4, default
}

set PROPERTIES_ORIGIN ["COM"]
properties('MP2/aug-cc-pvtz', properties = ['dipole'])
--------------------------------------------------------------------------

    Molecular point group: c1
  Charge       = 0
  Multiplicity = 1
  Basis Set: AUG-CC-PVTZ
    Blend: AUG-CC-PVTZ
  Basis Set: (AUG-CC-PVTZ AUX)
    Blend: AUG-CC-PVTZ-JKFIT

    Orbital Energies [Eh]
    ---------------------

    Doubly Occupied:

       1A    -15.606351     2A    -11.269337     3A    -11.256575
       4A    -11.250524     5A    -11.249040     6A    -11.240878
       7A    -11.239716     8A    -11.239346     9A    -11.238066
      10A    -11.237051    11A    -11.209337    12A    -11.207706
      13A     -1.292729    14A     -1.155846    15A     -1.072697
      16A     -1.045948    17A     -1.016326    18A     -0.955247
      19A     -0.931008    20A     -0.835221    21A     -0.830947
      22A     -0.768654    23A     -0.744239    24A     -0.711134
      25A     -0.678052    26A     -0.638960    27A     -0.632267
      28A     -0.622243    29A     -0.596614    30A     -0.587222
      31A     -0.569878    32A     -0.566242    33A     -0.539361
      34A     -0.525566    35A     -0.522190    36A     -0.502155
      37A     -0.496693    38A     -0.491410    39A     -0.355480
      40A     -0.340294    41A     -0.334458    42A     -0.274573

  @DF-RHF Final Energy:  -477.54415972645256

   => Energetics <=

    Nuclear Repulsion Energy =            638.9236952985000926
    One-Electron Energy =               -1913.1805493466383723
    Two-Electron Energy =                 796.7126943216858308
    Total Energy =                       -477.5441597264525626
  Basis Set: (AUG-CC-PVTZ AUX)
    Blend: AUG-CC-PVTZ-RI
    Molecular point group: c1

    Geometry (in Angstrom), charge = 0, multiplicity = 1:

       Center              X                  Y                   Z               Mass
    ------------   -----------------  -----------------  -----------------  -----------------
         N           -1.757322738757     0.670847682638     0.206267944882    14.003074004430
         C           -0.842286138757    -0.349987617362    -0.111916855118    12.000000000000
         C            0.591675261243    -0.172341317362    -0.060955055118    12.000000000000
         C           -1.613720738757    -1.460945317362    -0.446716055118    12.000000000000
         C           -3.040651738757     0.201917682638     0.066767944882    12.000000000000
         C           -2.979227738757    -1.120184317362    -0.340611055118    12.000000000000
         C           -1.425455738757     2.005967682638     0.676871944882    12.000000000000
         C            1.237731261243     0.906592682638    -0.689275055118    12.000000000000
         C            1.374497261243    -1.140316317362     0.591249944882    12.000000000000
         C            2.627357261243     1.023438682638    -0.646949055118    12.000000000000
         C            2.764729261243    -1.032571317362     0.613176944882    12.000000000000
         C            3.395704261243     0.054197682638     0.002354944882    12.000000000000
         H           -1.197294738757    -2.408397317362    -0.766296055118     1.007825032230
         H           -3.886537738757     0.842047682638     0.281709944882     1.007825032230
         H           -3.829522738757    -1.759617317362    -0.539955055118     1.007825032230
         H           -2.225477738757     2.350299682638     1.334956944882     1.007825032230
         H           -0.491233738757     1.971391682638     1.238226944882     1.007825032230
         H           -1.318132738757     2.710465682638    -0.153098055118     1.007825032230
         H            0.649400261243     1.637314682638    -1.240220055118     1.007825032230
         H            0.877045261243    -1.970711317362     1.087645944882     1.007825032230
         H            3.113172261243     1.863294682638    -1.138811055118     1.007825032230
         H            3.356852261243    -1.790323317362     1.121438944882     1.007825032230
         H            4.479118261243     0.143004682638     0.028221944882     1.007825032230

  Basis Set: AUG-CC-PVTZ
    Blend: AUG-CC-PVTZ
  Basis Set: (AUG-CC-PVTZ AUX)
    Blend: AUG-CC-PVTZ-JKFIT
	 Reference Energy          =    -477.5441597264525626 [Eh]
	 Singles Energy            =      -0.0000000000000000 [Eh]
	 Same-Spin Energy          =      -0.5394983243783422 [Eh]
	 Opposite-Spin Energy      =      -1.6839142406182439 [Eh]
	 Correlation Energy        =      -2.2234125649965861 [Eh]
	 Total Energy              =    -479.7675722914491416 [Eh]

	 ================> DF-SCS-MP2 Energies <==================
	-----------------------------------------------------------
	 SCS Same-Spin Scale       =       0.3333333333333333 [-]
	 SCS Opposite-Spin Scale   =       1.2000000000000000 [-]
	 SCS Same-Spin Energy      =      -0.1798327747927807 [Eh]
	 SCS Opposite-Spin Energy  =      -2.0206970887418927 [Eh]
	 SCS Correlation Energy    =      -2.2005298635346735 [Eh]
	 SCS Total Energy          =    -479.7446895899872175 [Eh]
	-----------------------------------------------------------

  Dipole Moment: [D]
     X:     0.4761      Y:     1.8283      Z:     0.6635     Total:     2.0023

*** Psi4 exiting successfully. Buy a developer a beer!
