                               Psi4 1.3.2 release

  ==> Input File <==

--------------------------------------------------------------------------
#psi4
#
memory 32 gb

molecule  {
0 1
  N       -1.7531090     0.6487580     0.1985890
  C       -0.8584400    -0.3593730    -0.1157050
  C        0.5742659    -0.1855342    -0.0760691
  C       -1.6095070    -1.4830350    -0.4543950
  C       -3.0364380     0.1798280     0.0590890
  C       -2.9750140    -1.1422740    -0.3482900
  C       -1.4212420     1.9838780     0.6691930
  C        1.2419450     0.8845030    -0.6969540
  C        1.3787110    -1.1624060     0.5835710
  C        2.6315710     1.0013490    -0.6546280
  C        2.7689430    -1.0546610     0.6054980
  C        3.3999180     0.0321080    -0.0053240
  H       -1.1930810    -2.4304870    -0.7739750
  H       -3.8823240     0.8199580     0.2740310
  H       -3.8253090    -1.7817070    -0.5476340
  H       -2.2212640     2.3282100     1.3272780
  H       -0.4870200     1.9493020     1.2305480
  H       -1.3139190     2.6883760    -0.1607770
  H        0.6536140     1.6152250    -1.2478990
  H        0.8812590    -1.9928010     1.0799670
  H        3.1173860     1.8412050    -1.1464900
  H        3.3610660    -1.8124130     1.1137600
  H        4.4833320     0.1209150     0.0205430
units angstrom
no_reorient  #important for SAPT in psi4, default
symmetry c1  #important for SAPT in psi4, default
}

set PROPERTIES_ORIGIN ["COM"]
properties('MP2/aug-cc-pvtz', properties = ['dipole'])
--------------------------------------------------------------------------

    Molecular point group: c1
  Charge       = 0
  Multiplicity = 1
  Basis Set: AUG-CC-PVTZ
    Blend: AUG-CC-PVTZ
  Basis Set: (AUG-CC-PVTZ AUX)
    Blend: AUG-CC-PVTZ-JKFIT

    Orbital Energies [Eh]
    ---------------------

    Doubly Occupied:

       1A    -15.607836     2A    -11.270785     3A    -11.255683
       4A    -11.250689     5A    -11.249242     6A    -11.240577
       7A    -11.239762     8A    -11.239317     9A    -11.238662
      10A    -11.237718    11A    -11.209018    12A    -11.207815
      13A     -1.299669    14A     -1.153034    15A     -1.074030
      16A     -1.045722    17A     -1.014849    18A     -0.955867
      19A     -0.933742    20A     -0.835223    21A     -0.829062
      22A     -0.771489    23A     -0.743520    24A     -0.712583
      25A     -0.678521    26A     -0.640174    27A     -0.632447
      28A     -0.621777    29A     -0.596255    30A     -0.586070
      31A     -0.570090    32A     -0.568980    33A     -0.538745
      34A     -0.527771    35A     -0.524272    36A     -0.503281
      37A     -0.495680    38A     -0.488473    39A     -0.354220
      40A     -0.339553    41A     -0.335759    42A     -0.274145

  @DF-RHF Final Energy:  -477.54443700772583

   => Energetics <=

    Nuclear Repulsion Energy =            639.0848189028488378
    One-Electron Energy =               -1913.4742963596033860
    Two-Electron Energy =                 796.8450404490287156
    Total Energy =                       -477.5444370077258327
  Basis Set: (AUG-CC-PVTZ AUX)
    Blend: AUG-CC-PVTZ-RI
    Molecular point group: c1

    Geometry (in Angstrom), charge = 0, multiplicity = 1:

       Center              X                  Y                   Z               Mass
    ------------   -----------------  -----------------  -----------------  -----------------
         N           -1.754115079908     0.669197580126     0.206538693054    14.003074004430
         C           -0.859446079908    -0.338933419874    -0.107755306946    12.000000000000
         C            0.573259820092    -0.165094619874    -0.068119406946    12.000000000000
         C           -1.610513079908    -1.462595419874    -0.446445306946    12.000000000000
         C           -3.037444079908     0.200267580126     0.067038693054    12.000000000000
         C           -2.976020079908    -1.121834419874    -0.340340306946    12.000000000000
         C           -1.422248079908     2.004317580126     0.677142693054    12.000000000000
         C            1.240938920092     0.904942580126    -0.689004306946    12.000000000000
         C            1.377704920092    -1.141966419874     0.591520693054    12.000000000000
         C            2.630564920092     1.021788580126    -0.646678306946    12.000000000000
         C            2.767936920092    -1.034221419874     0.613447693054    12.000000000000
         C            3.398911920092     0.052547580126     0.002625693054    12.000000000000
         H           -1.194087079908    -2.410047419874    -0.766025306946     1.007825032230
         H           -3.883330079908     0.840397580126     0.281980693054     1.007825032230
         H           -3.826315079908    -1.761267419874    -0.539684306946     1.007825032230
         H           -2.222270079908     2.348649580126     1.335227693054     1.007825032230
         H           -0.488026079908     1.969741580126     1.238497693054     1.007825032230
         H           -1.314925079908     2.708815580126    -0.152827306946     1.007825032230
         H            0.652607920092     1.635664580126    -1.239949306946     1.007825032230
         H            0.880252920092    -1.972361419874     1.087916693054     1.007825032230
         H            3.116379920092     1.861644580126    -1.138540306946     1.007825032230
         H            3.360059920092    -1.791973419874     1.121709693054     1.007825032230
         H            4.482325920092     0.141354580126     0.028492693054     1.007825032230

  Basis Set: AUG-CC-PVTZ
    Blend: AUG-CC-PVTZ
  Basis Set: (AUG-CC-PVTZ AUX)
    Blend: AUG-CC-PVTZ-JKFIT
	 Reference Energy          =    -477.5444370077258327 [Eh]
	 Singles Energy            =      -0.0000000000000000 [Eh]
	 Same-Spin Energy          =      -0.5395445460923201 [Eh]
	 Opposite-Spin Energy      =      -1.6837764010337517 [Eh]
	 Correlation Energy        =      -2.2233209471260720 [Eh]
	 Total Energy              =    -479.7677579548519020 [Eh]

	 ================> DF-SCS-MP2 Energies <==================
	-----------------------------------------------------------
	 SCS Same-Spin Scale       =       0.3333333333333333 [-]
	 SCS Opposite-Spin Scale   =       1.2000000000000000 [-]
	 SCS Same-Spin Energy      =      -0.1798481820307734 [Eh]
	 SCS Opposite-Spin Energy  =      -2.0205316812405019 [Eh]
	 SCS Correlation Energy    =      -2.2003798632712752 [Eh]
	 SCS Total Energy          =    -479.7448168709971128 [Eh]
	-----------------------------------------------------------

  Dipole Moment: [D]
     X:     0.4080      Y:     1.8523      Z:     0.6714     Total:     2.0121

*** Psi4 exiting successfully. Buy a developer a beer!
