                               Psi4 1.3.2 release

  ==> Input File <==

--------------------------------------------------------------------------
#psi4
#
memory 32 gb

molecule  {
0 1
  N       -1.7531090     0.6487580     0.1985890
  C       -0.8584400    -0.3593730    -0.1157050
  C        0.5699949    -0.0498464    -0.0248127
  C       -1.6095070    -1.4830350    -0.4543950
  C       -3.0364380     0.1798280     0.0590890
  C       -2.9750140    -1.1422740    -0.3482900
  C       -1.4212420     1.9838780     0.6691930
  C        1.2419450     0.8845030    -0.6969540
  C        1.3787110    -1.1624060     0.5835710
  C        2.6315710     1.0013490    -0.6546280
  C        2.7689430    -1.0546610     0.6054980
  C        3.3999180     0.0321080    -0.0053240
  H       -1.1930810    -2.4304870    -0.7739750
  H       -3.8823240     0.8199580     0.2740310
  H       -3.8253090    -1.7817070    -0.5476340
  H       -2.2212640     2.3282100     1.3272780
  H       -0.4870200     1.9493020     1.2305480
  H       -1.3139190     2.6883760    -0.1607770
  H        0.6536140     1.6152250    -1.2478990
  H        0.8812590    -1.9928010     1.0799670
  H        3.1173860     1.8412050    -1.1464900
  H        3.3610660    -1.8124130     1.1137600
  H        4.4833320     0.1209150     0.0205430
units angstrom
no_reorient  #important for SAPT in psi4, default
symmetry c1  #important for SAPT in psi4, default
}

set PROPERTIES_ORIGIN ["COM"]
properties('MP2/aug-cc-pvtz', properties = ['dipole'])
--------------------------------------------------------------------------

    Molecular point group: c1
  Charge       = 0
  Multiplicity = 1
  Basis Set: AUG-CC-PVTZ
    Blend: AUG-CC-PVTZ
  Basis Set: (AUG-CC-PVTZ AUX)
    Blend: AUG-CC-PVTZ-JKFIT

    Orbital Energies [Eh]
    ---------------------

    Doubly Occupied:

       1A    -15.604720     2A    -11.269967     3A    -11.258060
       4A    -11.250460     5A    -11.247398     6A    -11.246700
       7A    -11.240915     8A    -11.239743     9A    -11.237853
      10A    -11.233457    11A    -11.209951    12A    -11.208438
      13A     -1.298906    14A     -1.154791    15A     -1.072601
      16A     -1.047558    17A     -1.014031    18A     -0.955919
      19A     -0.933262    20A     -0.838526    21A     -0.824031
      22A     -0.772330    23A     -0.741265    24A     -0.711883
      25A     -0.679839    26A     -0.638921    27A     -0.631149
      28A     -0.623801    29A     -0.593793    30A     -0.587311
      31A     -0.570007    32A     -0.565714    33A     -0.538515
      34A     -0.527368    35A     -0.523532    36A     -0.508278
      37A     -0.498504    38A     -0.476618    39A     -0.361124
      40A     -0.335916    41A     -0.333162    42A     -0.275446

  @DF-RHF Final Energy:  -477.52761955338747

   => Energetics <=

    Nuclear Repulsion Energy =            639.2495035942723689
    One-Electron Energy =               -1913.7907201709235778
    Two-Electron Energy =                 797.0135970232636282
    Total Energy =                       -477.5276195533874670
  Basis Set: (AUG-CC-PVTZ AUX)
    Blend: AUG-CC-PVTZ-RI
    Molecular point group: c1

    Geometry (in Angstrom), charge = 0, multiplicity = 1:

       Center              X                  Y                   Z               Mass
    ------------   -----------------  -----------------  -----------------  -----------------
         N           -1.753788819309     0.658832423738     0.202623229748    14.003074004430
         C           -0.859119819309    -0.349298576262    -0.111670770252    12.000000000000
         C            0.569315080691    -0.039771976262    -0.020778470252    12.000000000000
         C           -1.610186819309    -1.472960576262    -0.450360770252    12.000000000000
         C           -3.037117819309     0.189902423738     0.063123229748    12.000000000000
         C           -2.975693819309    -1.132199576262    -0.344255770252    12.000000000000
         C           -1.421921819309     1.993952423738     0.673227229748    12.000000000000
         C            1.241265180691     0.894577423738    -0.692919770252    12.000000000000
         C            1.378031180691    -1.152331576262     0.587605229748    12.000000000000
         C            2.630891180691     1.011423423738    -0.650593770252    12.000000000000
         C            2.768263180691    -1.044586576262     0.609532229748    12.000000000000
         C            3.399238180691     0.042182423738    -0.001289770252    12.000000000000
         H           -1.193760819309    -2.420412576262    -0.769940770252     1.007825032230
         H           -3.883003819309     0.830032423738     0.278065229748     1.007825032230
         H           -3.825988819309    -1.771632576262    -0.543599770252     1.007825032230
         H           -2.221943819309     2.338284423738     1.331312229748     1.007825032230
         H           -0.487699819309     1.959376423738     1.234582229748     1.007825032230
         H           -1.314598819309     2.698450423738    -0.156742770252     1.007825032230
         H            0.652934180691     1.625299423738    -1.243864770252     1.007825032230
         H            0.880579180691    -1.982726576262     1.084001229748     1.007825032230
         H            3.116706180691     1.851279423738    -1.142455770252     1.007825032230
         H            3.360386180691    -1.802338576262     1.117794229748     1.007825032230
         H            4.482652180691     0.130989423738     0.024577229748     1.007825032230

  Basis Set: AUG-CC-PVTZ
    Blend: AUG-CC-PVTZ
  Basis Set: (AUG-CC-PVTZ AUX)
    Blend: AUG-CC-PVTZ-JKFIT
	 Reference Energy          =    -477.5276195533874670 [Eh]
	 Singles Energy            =      -0.0000000000000000 [Eh]
	 Same-Spin Energy          =      -0.5395711628954907 [Eh]
	 Opposite-Spin Energy      =      -1.6849768248466699 [Eh]
	 Correlation Energy        =      -2.2245479877421603 [Eh]
	 Total Energy              =    -479.7521675411296087 [Eh]

	 ================> DF-SCS-MP2 Energies <==================
	-----------------------------------------------------------
	 SCS Same-Spin Scale       =       0.3333333333333333 [-]
	 SCS Opposite-Spin Scale   =       1.2000000000000000 [-]
	 SCS Same-Spin Energy      =      -0.1798570542984969 [Eh]
	 SCS Opposite-Spin Energy  =      -2.0219721898160037 [Eh]
	 SCS Correlation Energy    =      -2.2018292441145006 [Eh]
	 SCS Total Energy          =    -479.7294487975019592 [Eh]
	-----------------------------------------------------------

  Dipole Moment: [D]
     X:     0.5071      Y:     1.8270      Z:     0.6481     Total:     2.0038

*** Psi4 exiting successfully. Buy a developer a beer!
