                               Psi4 1.3.2 release

  ==> Input File <==

--------------------------------------------------------------------------
#psi4
#
memory 32 gb

molecule  {
0 1
  N       -1.7531090     0.6487580     0.1985890
  C       -0.8584400    -0.3593730    -0.1157050
  C        0.5958890    -0.1944310    -0.0686340
  C       -1.6095070    -1.4830350    -0.4543950
  C       -3.0364380     0.1798280     0.0590890
  C       -2.9508842    -1.1409007    -0.3483915
  C       -1.4212420     1.9838780     0.6691930
  C        1.2419450     0.8845030    -0.6969540
  C        1.3787110    -1.1624060     0.5835710
  C        2.6315710     1.0013490    -0.6546280
  C        2.7689430    -1.0546610     0.6054980
  C        3.3999180     0.0321080    -0.0053240
  H       -1.1930810    -2.4304870    -0.7739750
  H       -3.8823240     0.8199580     0.2740310
  H       -3.8253090    -1.7817070    -0.5476340
  H       -2.2212640     2.3282100     1.3272780
  H       -0.4870200     1.9493020     1.2305480
  H       -1.3139190     2.6883760    -0.1607770
  H        0.6536140     1.6152250    -1.2478990
  H        0.8812590    -1.9928010     1.0799670
  H        3.1173860     1.8412050    -1.1464900
  H        3.3610660    -1.8124130     1.1137600
  H        4.4833320     0.1209150     0.0205430
units angstrom
no_reorient  #important for SAPT in psi4, default
symmetry c1  #important for SAPT in psi4, default
}

set PROPERTIES_ORIGIN ["COM"]
properties('MP2/aug-cc-pvtz', properties = ['dipole'])
--------------------------------------------------------------------------

    Molecular point group: c1
  Charge       = 0
  Multiplicity = 1
  Basis Set: AUG-CC-PVTZ
    Blend: AUG-CC-PVTZ
  Basis Set: (AUG-CC-PVTZ AUX)
    Blend: AUG-CC-PVTZ-JKFIT

    Orbital Energies [Eh]
    ---------------------

    Doubly Occupied:

       1A    -15.608270     2A    -11.270628     3A    -11.256003
       4A    -11.250004     5A    -11.247275     6A    -11.240613
       7A    -11.239461     8A    -11.239149     9A    -11.237838
      10A    -11.236948    11A    -11.207701    12A    -11.205077
      13A     -1.299878    14A     -1.154971    15A     -1.076299
      16A     -1.043912    17A     -1.016103    18A     -0.955412
      19A     -0.934842    20A     -0.833277    21A     -0.830421
      22A     -0.768799    23A     -0.744010    24A     -0.712117
      25A     -0.677875    26A     -0.640118    27A     -0.632138
      28A     -0.622314    29A     -0.595714    30A     -0.587090
      31A     -0.568788    32A     -0.567365    33A     -0.542356
      34A     -0.525167    35A     -0.523826    36A     -0.502155
      37A     -0.495031    38A     -0.491708    39A     -0.353741
      40A     -0.340718    41A     -0.337538    42A     -0.273804

  @DF-RHF Final Energy:  -477.54476771149348

   => Energetics <=

    Nuclear Repulsion Energy =            639.5161068855900339
    One-Electron Energy =               -1914.3488410817863041
    Two-Electron Energy =                 797.2879664847027925
    Total Energy =                       -477.5447677114934777
  Basis Set: (AUG-CC-PVTZ AUX)
    Blend: AUG-CC-PVTZ-RI
    Molecular point group: c1

    Geometry (in Angstrom), charge = 0, multiplicity = 1:

       Center              X                  Y                   Z               Mass
    ------------   -----------------  -----------------  -----------------  -----------------
         N           -1.757610132254     0.669772298369     0.205978481222    14.003074004430
         C           -0.862941132254    -0.338358701631    -0.108315518778    12.000000000000
         C            0.591387867746    -0.173416701631    -0.061244518778    12.000000000000
         C           -1.614008132254    -1.462020701631    -0.447005518778    12.000000000000
         C           -3.040939132254     0.200842298369     0.066478481222    12.000000000000
         C           -2.955385332254    -1.119886401631    -0.341002018778    12.000000000000
         C           -1.425743132254     2.004892298369     0.676582481222    12.000000000000
         C            1.237443867746     0.905517298369    -0.689564518778    12.000000000000
         C            1.374209867746    -1.141391701631     0.590960481222    12.000000000000
         C            2.627069867746     1.022363298369    -0.647238518778    12.000000000000
         C            2.764441867746    -1.033646701631     0.612887481222    12.000000000000
         C            3.395416867746     0.053122298369     0.002065481222    12.000000000000
         H           -1.197582132254    -2.409472701631    -0.766585518778     1.007825032230
         H           -3.886825132254     0.840972298369     0.281420481222     1.007825032230
         H           -3.829810132254    -1.760692701631    -0.540244518778     1.007825032230
         H           -2.225765132254     2.349224298369     1.334667481222     1.007825032230
         H           -0.491521132254     1.970316298369     1.237937481222     1.007825032230
         H           -1.318420132254     2.709390298369    -0.153387518778     1.007825032230
         H            0.649112867746     1.636239298369    -1.240509518778     1.007825032230
         H            0.876757867746    -1.971786701631     1.087356481222     1.007825032230
         H            3.112884867746     1.862219298369    -1.139100518778     1.007825032230
         H            3.356564867746    -1.791398701631     1.121149481222     1.007825032230
         H            4.478830867746     0.141929298369     0.027932481222     1.007825032230

  Basis Set: AUG-CC-PVTZ
    Blend: AUG-CC-PVTZ
  Basis Set: (AUG-CC-PVTZ AUX)
    Blend: AUG-CC-PVTZ-JKFIT
	 Reference Energy          =    -477.5447677114934777 [Eh]
	 Singles Energy            =      -0.0000000000000000 [Eh]
	 Same-Spin Energy          =      -0.5395077945119851 [Eh]
	 Opposite-Spin Energy      =      -1.6834604220656404 [Eh]
	 Correlation Energy        =      -2.2229682165776254 [Eh]
	 Total Energy              =    -479.7677359280710903 [Eh]

	 ================> DF-SCS-MP2 Energies <==================
	-----------------------------------------------------------
	 SCS Same-Spin Scale       =       0.3333333333333333 [-]
	 SCS Opposite-Spin Scale   =       1.2000000000000000 [-]
	 SCS Same-Spin Energy      =      -0.1798359315039950 [Eh]
	 SCS Opposite-Spin Energy  =      -2.0201525064787682 [Eh]
	 SCS Correlation Energy    =      -2.1999884379827632 [Eh]
	 SCS Total Energy          =    -479.7447561494762454 [Eh]
	-----------------------------------------------------------

  Dipole Moment: [D]
     X:     0.4581      Y:     1.8567      Z:     0.6758     Total:     2.0283

*** Psi4 exiting successfully. Buy a developer a beer!
