                               Psi4 1.3.2 release

  ==> Input File <==

--------------------------------------------------------------------------
#psi4
#
memory 32 gb

molecule  {
0 1
  N       -1.7531090     0.6487580     0.1985890
  C       -0.8221320    -0.3288798    -0.1064481
  C        0.5958890    -0.1944310    -0.0686340
  C       -1.6095070    -1.4830350    -0.4543950
  C       -3.0364380     0.1798280     0.0590890
  C       -2.9750140    -1.1422740    -0.3482900
  C       -1.4212420     1.9838780     0.6691930
  C        1.2419450     0.8845030    -0.6969540
  C        1.3787110    -1.1624060     0.5835710
  C        2.6315710     1.0013490    -0.6546280
  C        2.7689430    -1.0546610     0.6054980
  C        3.3999180     0.0321080    -0.0053240
  H       -1.1930810    -2.4304870    -0.7739750
  H       -3.8823240     0.8199580     0.2740310
  H       -3.8253090    -1.7817070    -0.5476340
  H       -2.2212640     2.3282100     1.3272780
  H       -0.4870200     1.9493020     1.2305480
  H       -1.3139190     2.6883760    -0.1607770
  H        0.6536140     1.6152250    -1.2478990
  H        0.8812590    -1.9928010     1.0799670
  H        3.1173860     1.8412050    -1.1464900
  H        3.3610660    -1.8124130     1.1137600
  H        4.4833320     0.1209150     0.0205430
units angstrom
no_reorient  #important for SAPT in psi4, default
symmetry c1  #important for SAPT in psi4, default
}

set PROPERTIES_ORIGIN ["COM"]
properties('MP2/aug-cc-pvtz', properties = ['dipole'])
--------------------------------------------------------------------------

    Molecular point group: c1
  Charge       = 0
  Multiplicity = 1
  Basis Set: AUG-CC-PVTZ
    Blend: AUG-CC-PVTZ
  Basis Set: (AUG-CC-PVTZ AUX)
    Blend: AUG-CC-PVTZ-JKFIT

    Orbital Energies [Eh]
    ---------------------

    Doubly Occupied:

       1A    -15.611152     2A    -11.270138     3A    -11.258385
       4A    -11.249021     5A    -11.248124     6A    -11.240763
       7A    -11.239789     8A    -11.239319     9A    -11.238188
      10A    -11.237537    11A    -11.211893    12A    -11.209409
      13A     -1.298333    14A     -1.156849    15A     -1.069172
      16A     -1.049300    17A     -1.016525    18A     -0.954589
      19A     -0.931850    20A     -0.837657    21A     -0.831555
      22A     -0.768629    23A     -0.744977    24A     -0.711398
      25A     -0.678492    26A     -0.641004    27A     -0.634529
      28A     -0.623102    29A     -0.598187    30A     -0.587573
      31A     -0.572630    32A     -0.564779    33A     -0.537674
      34A     -0.524820    35A     -0.522271    36A     -0.505256
      37A     -0.494515    38A     -0.490793    39A     -0.355157
      40A     -0.340580    41A     -0.334905    42A     -0.269268

  @DF-RHF Final Energy:  -477.53972139956403

   => Energetics <=

    Nuclear Repulsion Energy =            639.1369282893623449
    One-Electron Energy =               -1913.5531248887457423
    Two-Electron Energy =                 796.8764751998194242
    Total Energy =                       -477.5397213995640868
  Basis Set: (AUG-CC-PVTZ AUX)
    Blend: AUG-CC-PVTZ-RI
    Molecular point group: c1

    Geometry (in Angstrom), charge = 0, multiplicity = 1:

       Center              X                  Y                   Z               Mass
    ------------   -----------------  -----------------  -----------------  -----------------
         N           -1.758540421842     0.667547836645     0.205263595437    14.003074004430
         C           -0.827563421842    -0.310089963355    -0.099773504563    12.000000000000
         C            0.590457578158    -0.175641163355    -0.061959404563    12.000000000000
         C           -1.614938421842    -1.464245163355    -0.447720404563    12.000000000000
         C           -3.041869421842     0.198617836645     0.065763595437    12.000000000000
         C           -2.980445421842    -1.123484163355    -0.341615404563    12.000000000000
         C           -1.426673421842     2.002667836645     0.675867595437    12.000000000000
         C            1.236513578158     0.903292836645    -0.690279404563    12.000000000000
         C            1.373279578158    -1.143616163355     0.590245595437    12.000000000000
         C            2.626139578158     1.020138836645    -0.647953404563    12.000000000000
         C            2.763511578158    -1.035871163355     0.612172595437    12.000000000000
         C            3.394486578158     0.050897836645     0.001350595437    12.000000000000
         H           -1.198512421842    -2.411697163355    -0.767300404563     1.007825032230
         H           -3.887755421842     0.838747836645     0.280705595437     1.007825032230
         H           -3.830740421842    -1.762917163355    -0.540959404563     1.007825032230
         H           -2.226695421842     2.346999836645     1.333952595437     1.007825032230
         H           -0.492451421842     1.968091836645     1.237222595437     1.007825032230
         H           -1.319350421842     2.707165836645    -0.154102404563     1.007825032230
         H            0.648182578158     1.634014836645    -1.241224404563     1.007825032230
         H            0.875827578158    -1.974011163355     1.086641595437     1.007825032230
         H            3.111954578158     1.859994836645    -1.139815404563     1.007825032230
         H            3.355634578158    -1.793623163355     1.120434595437     1.007825032230
         H            4.477900578158     0.139704836645     0.027217595437     1.007825032230

  Basis Set: AUG-CC-PVTZ
    Blend: AUG-CC-PVTZ
  Basis Set: (AUG-CC-PVTZ AUX)
    Blend: AUG-CC-PVTZ-JKFIT
	 Reference Energy          =    -477.5397213995640300 [Eh]
	 Singles Energy            =      -0.0000000000000000 [Eh]
	 Same-Spin Energy          =      -0.5405831862940820 [Eh]
	 Opposite-Spin Energy      =      -1.6852042503344324 [Eh]
	 Correlation Energy        =      -2.2257874366285142 [Eh]
	 Total Energy              =    -479.7655088361925664 [Eh]

	 ================> DF-SCS-MP2 Energies <==================
	-----------------------------------------------------------
	 SCS Same-Spin Scale       =       0.3333333333333333 [-]
	 SCS Opposite-Spin Scale   =       1.2000000000000000 [-]
	 SCS Same-Spin Energy      =      -0.1801943954313606 [Eh]
	 SCS Opposite-Spin Energy  =      -2.0222451004013187 [Eh]
	 SCS Correlation Energy    =      -2.2024394958326794 [Eh]
	 SCS Total Energy          =    -479.7421608953966938 [Eh]
	-----------------------------------------------------------

  Dipole Moment: [D]
     X:     0.4093      Y:     1.8813      Z:     0.6845     Total:     2.0434

*** Psi4 exiting successfully. Buy a developer a beer!
