                               Psi4 1.4a3.dev225

  ==> Input File <==

--------------------------------------------------------------------------
#psi4
#
memory 32 gb

molecule  {
0 1
  N       -1.7531090     0.6487580     0.1985890
  C       -0.8584400    -0.3593730    -0.1157050
  C        0.5958890    -0.1944310    -0.0686340
  C       -1.6095070    -1.4830350    -0.4543950
  C       -3.0364380     0.1798280     0.0590890
  C       -2.9750140    -1.1422740    -0.3482900
  C       -1.4258068     1.9655134     0.6627198
  C        1.2419450     0.8845030    -0.6969540
  C        1.3787110    -1.1624060     0.5835710
  C        2.6315710     1.0013490    -0.6546280
  C        2.7689430    -1.0546610     0.6054980
  C        3.3999180     0.0321080    -0.0053240
  H       -1.1930810    -2.4304870    -0.7739750
  H       -3.8823240     0.8199580     0.2740310
  H       -3.8253090    -1.7817070    -0.5476340
  H       -2.2212640     2.3282100     1.3272780
  H       -0.4870200     1.9493020     1.2305480
  H       -1.3139190     2.6883760    -0.1607770
  H        0.6536140     1.6152250    -1.2478990
  H        0.8812590    -1.9928010     1.0799670
  H        3.1173860     1.8412050    -1.1464900
  H        3.3610660    -1.8124130     1.1137600
  H        4.4833320     0.1209150     0.0205430
units angstrom
no_reorient  #important for SAPT in psi4, default
symmetry c1  #important for SAPT in psi4, default
}

set PROPERTIES_ORIGIN ["COM"]
properties('MP2/aug-cc-pvtz', properties = ['dipole'])
--------------------------------------------------------------------------

    Molecular point group: c1
  Charge       = 0
  Multiplicity = 1
  Basis Set: AUG-CC-PVTZ
    Blend: AUG-CC-PVTZ
  Basis Set: (AUG-CC-PVTZ AUX)
    Blend: AUG-CC-PVTZ-JKFIT

    Orbital Energies [Eh]
    ---------------------

    Doubly Occupied:

       1A    -15.607851     2A    -11.270343     3A    -11.257133
       4A    -11.250334     5A    -11.249133     6A    -11.240773
       7A    -11.239655     8A    -11.239334     9A    -11.238069
      10A    -11.237216    11A    -11.209058    12A    -11.207628
      13A     -1.302270    14A     -1.155262    15A     -1.076099
      16A     -1.044303    17A     -1.016285    18A     -0.956591
      19A     -0.931750    20A     -0.833553    21A     -0.830781
      22A     -0.771959    23A     -0.744112    24A     -0.714162
      25A     -0.678328    26A     -0.640206    27A     -0.632249
      28A     -0.622326    29A     -0.595630    30A     -0.587237
      31A     -0.573636    32A     -0.567600    33A     -0.537933
      34A     -0.525738    35A     -0.521629    36A     -0.502299
      37A     -0.495018    38A     -0.491505    39A     -0.354208
      40A     -0.340339    41A     -0.335505    42A     -0.275664

  @DF-RHF Final Energy:  -477.54561766943112

   => Energetics <=

    Nuclear Repulsion Energy =            639.4366527664038813
    One-Electron Energy =               -1914.1631279504335907
    Two-Electron Energy =                 797.1808575145987561
    Total Energy =                       -477.5456176694310670
  Basis Set: (AUG-CC-PVTZ AUX)
    Blend: AUG-CC-PVTZ-RI
    Molecular point group: c1

    Geometry (in Angstrom), charge = 0, multiplicity = 1:

       Center              X                  Y                   Z               Mass
    ------------   -----------------  -----------------  -----------------  -----------------
         N           -1.755418159088     0.671280071509     0.206465213758    14.003074004430
         C           -0.860749159088    -0.336850928491    -0.107828786242    12.000000000000
         C            0.593579840912    -0.171908928491    -0.060757786242    12.000000000000
         C           -1.611816159088    -1.460512928491    -0.446518786242    12.000000000000
         C           -3.038747159088     0.202350071509     0.066965213758    12.000000000000
         C           -2.977323159088    -1.119751928491    -0.340413786242    12.000000000000
         C           -1.428115959088     1.988035471509     0.670596013758    12.000000000000
         C            1.239635840912     0.907025071509    -0.689077786242    12.000000000000
         C            1.376401840912    -1.139883928491     0.591447213758    12.000000000000
         C            2.629261840912     1.023871071509    -0.646751786242    12.000000000000
         C            2.766633840912    -1.032138928491     0.613374213758    12.000000000000
         C            3.397608840912     0.054630071509     0.002552213758    12.000000000000
         H           -1.195390159088    -2.407964928491    -0.766098786242     1.007825032230
         H           -3.884633159088     0.842480071509     0.281907213758     1.007825032230
         H           -3.827618159088    -1.759184928491    -0.539757786242     1.007825032230
         H           -2.223573159088     2.350732071509     1.335154213758     1.007825032230
         H           -0.489329159088     1.971824071509     1.238424213758     1.007825032230
         H           -1.316228159088     2.710898071509    -0.152900786242     1.007825032230
         H            0.651304840912     1.637747071509    -1.240022786242     1.007825032230
         H            0.878949840912    -1.970278928491     1.087843213758     1.007825032230
         H            3.115076840912     1.863727071509    -1.138613786242     1.007825032230
         H            3.358756840912    -1.789890928491     1.121636213758     1.007825032230
         H            4.481022840912     0.143437071509     0.028419213758     1.007825032230

  Basis Set: AUG-CC-PVTZ
    Blend: AUG-CC-PVTZ
  Basis Set: (AUG-CC-PVTZ AUX)
    Blend: AUG-CC-PVTZ-JKFIT
	 Reference Energy          =    -477.5456176694311239 [Eh]
	 Singles Energy            =      -0.0000000000000000 [Eh]
	 Same-Spin Energy          =      -0.5392756103122798 [Eh]
	 Opposite-Spin Energy      =      -1.6832334647632532 [Eh]
	 Correlation Energy        =      -2.2225090750755330 [Eh]
	 Total Energy              =    -479.7681267445066737 [Eh]

	 ================> DF-SCS-MP2 Energies <==================
	-----------------------------------------------------------
	 SCS Same-Spin Scale       =       0.3333333333333333 [-]
	 SCS Opposite-Spin Scale   =       1.2000000000000000 [-]
	 SCS Same-Spin Energy      =      -0.1797585367707599 [Eh]
	 SCS Opposite-Spin Energy  =      -2.0198801577159036 [Eh]
	 SCS Correlation Energy    =      -2.1996386944866635 [Eh]
	 SCS Total Energy          =    -479.7452563639178038 [Eh]
	-----------------------------------------------------------

  Dipole Moment: [D]
     X:     0.4649      Y:     1.8023      Z:     0.6609     Total:     1.9751

*** Psi4 exiting successfully. Buy a developer a beer!
