                               Psi4 1.3.2 release

  ==> Input File <==

--------------------------------------------------------------------------
#psi4
#
memory 32 gb

molecule  {
0 1
  N       -1.7531090     0.6487580     0.1985890
  C       -0.8584400    -0.3593730    -0.1157050
  C        0.5958890    -0.1944310    -0.0686340
  C       -1.6095070    -1.4830350    -0.4543950
  C       -3.0364380     0.1798280     0.0590890
  C       -2.9750140    -1.1422740    -0.3482900
  C       -1.4212420     1.9838780     0.6691930
  C        1.2200983     0.8932975    -0.7038367
  C        1.3787110    -1.1624060     0.5835710
  C        2.6315710     1.0013490    -0.6546280
  C        2.7689430    -1.0546610     0.6054980
  C        3.3999180     0.0321080    -0.0053240
  H       -1.1930810    -2.4304870    -0.7739750
  H       -3.8823240     0.8199580     0.2740310
  H       -3.8253090    -1.7817070    -0.5476340
  H       -2.2212640     2.3282100     1.3272780
  H       -0.4870200     1.9493020     1.2305480
  H       -1.3139190     2.6883760    -0.1607770
  H        0.6536140     1.6152250    -1.2478990
  H        0.8812590    -1.9928010     1.0799670
  H        3.1173860     1.8412050    -1.1464900
  H        3.3610660    -1.8124130     1.1137600
  H        4.4833320     0.1209150     0.0205430
units angstrom
no_reorient  #important for SAPT in psi4, default
symmetry c1  #important for SAPT in psi4, default
}

set PROPERTIES_ORIGIN ["COM"]
properties('MP2/aug-cc-pvtz', properties = ['dipole'])
--------------------------------------------------------------------------

    Molecular point group: c1
  Charge       = 0
  Multiplicity = 1
  Basis Set: AUG-CC-PVTZ
    Blend: AUG-CC-PVTZ
  Basis Set: (AUG-CC-PVTZ AUX)
    Blend: AUG-CC-PVTZ-JKFIT

    Orbital Energies [Eh]
    ---------------------

    Doubly Occupied:

       1A    -15.607442     2A    -11.270617     3A    -11.255948
       4A    -11.250573     5A    -11.248306     6A    -11.242892
       7A    -11.240216     8A    -11.239957     9A    -11.238162
      10A    -11.237248    11A    -11.208159    12A    -11.206620
      13A     -1.298745    14A     -1.153344    15A     -1.073144
      16A     -1.044223    17A     -1.014394    18A     -0.955735
      19A     -0.933258    20A     -0.833440    21A     -0.831337
      22A     -0.770645    23A     -0.742561    24A     -0.712185
      25A     -0.678932    26A     -0.639861    27A     -0.633449
      28A     -0.621637    29A     -0.597183    30A     -0.587728
      31A     -0.569636    32A     -0.568306    33A     -0.537854
      34A     -0.527200    35A     -0.523710    36A     -0.500997
      37A     -0.495086    38A     -0.492408    39A     -0.354520
      40A     -0.338411    41A     -0.334869    42A     -0.275112

  @DF-RHF Final Energy:  -477.54493559879040

   => Energetics <=

    Nuclear Repulsion Energy =            638.8825075916356582
    One-Electron Energy =               -1913.0827846435386164
    Two-Electron Energy =                 796.6553414531125554
    Total Energy =                       -477.5449355987904028
  Basis Set: (AUG-CC-PVTZ AUX)
    Blend: AUG-CC-PVTZ-RI
    Molecular point group: c1

    Geometry (in Angstrom), charge = 0, multiplicity = 1:

       Center              X                  Y                   Z               Mass
    ------------   -----------------  -----------------  -----------------  -----------------
         N           -1.754097999161     0.669205394797     0.206496495359    14.003074004430
         C           -0.859428999161    -0.338925605203    -0.107797504641    12.000000000000
         C            0.594900000839    -0.173983605203    -0.060726504641    12.000000000000
         C           -1.610495999161    -1.462587605203    -0.446487504641    12.000000000000
         C           -3.037426999161     0.200275394797     0.066996495359    12.000000000000
         C           -2.976002999161    -1.121826605203    -0.340382504641    12.000000000000
         C           -1.422230999161     2.004325394797     0.677100495359    12.000000000000
         C            1.219109300839     0.913744894797    -0.695929204641    12.000000000000
         C            1.377722000839    -1.141958605203     0.591478495359    12.000000000000
         C            2.630582000839     1.021796394797    -0.646720504641    12.000000000000
         C            2.767954000839    -1.034213605203     0.613405495359    12.000000000000
         C            3.398929000839     0.052555394797     0.002583495359    12.000000000000
         H           -1.194069999161    -2.410039605203    -0.766067504641     1.007825032230
         H           -3.883312999161     0.840405394797     0.281938495359     1.007825032230
         H           -3.826297999161    -1.761259605203    -0.539726504641     1.007825032230
         H           -2.222252999161     2.348657394797     1.335185495359     1.007825032230
         H           -0.488008999161     1.969749394797     1.238455495359     1.007825032230
         H           -1.314907999161     2.708823394797    -0.152869504641     1.007825032230
         H            0.652625000839     1.635672394797    -1.239991504641     1.007825032230
         H            0.880270000839    -1.972353605203     1.087874495359     1.007825032230
         H            3.116397000839     1.861652394797    -1.138582504641     1.007825032230
         H            3.360077000839    -1.791965605203     1.121667495359     1.007825032230
         H            4.482343000839     0.141362394797     0.028450495359     1.007825032230

  Basis Set: AUG-CC-PVTZ
    Blend: AUG-CC-PVTZ
  Basis Set: (AUG-CC-PVTZ AUX)
    Blend: AUG-CC-PVTZ-JKFIT
	 Reference Energy          =    -477.5449355987904028 [Eh]
	 Singles Energy            =      -0.0000000000000000 [Eh]
	 Same-Spin Energy          =      -0.5391780416803773 [Eh]
	 Opposite-Spin Energy      =      -1.6833788552215041 [Eh]
	 Correlation Energy        =      -2.2225568969018816 [Eh]
	 Total Energy              =    -479.7674924956922951 [Eh]

	 ================> DF-SCS-MP2 Energies <==================
	-----------------------------------------------------------
	 SCS Same-Spin Scale       =       0.3333333333333333 [-]
	 SCS Opposite-Spin Scale   =       1.2000000000000000 [-]
	 SCS Same-Spin Energy      =      -0.1797260138934591 [Eh]
	 SCS Opposite-Spin Energy  =      -2.0200546262658050 [Eh]
	 SCS Correlation Energy    =      -2.1997806401592639 [Eh]
	 SCS Total Energy          =    -479.7447162389496498 [Eh]
	-----------------------------------------------------------

  Dipole Moment: [D]
     X:     0.4849      Y:     1.8599      Z:     0.6749     Total:     2.0371

*** Psi4 exiting successfully. Buy a developer a beer!
