                               Psi4 1.3.2 release

  ==> Input File <==

--------------------------------------------------------------------------
#psi4
#
memory 32 gb

molecule  {
0 1
  N       -1.7531090     0.6487580     0.1985890
  C       -0.8584400    -0.3593730    -0.1157050
  C        0.7295255    -0.2408224    -0.0281177
  C       -1.6095070    -1.4830350    -0.4543950
  C       -3.0364380     0.1798280     0.0590890
  C       -2.9750140    -1.1422740    -0.3482900
  C       -1.4212420     1.9838780     0.6691930
  C        1.2419450     0.8845030    -0.6969540
  C        1.3787110    -1.1624060     0.5835710
  C        2.6315710     1.0013490    -0.6546280
  C        2.7689430    -1.0546610     0.6054980
  C        3.3999180     0.0321080    -0.0053240
  H       -1.1930810    -2.4304870    -0.7739750
  H       -3.8823240     0.8199580     0.2740310
  H       -3.8253090    -1.7817070    -0.5476340
  H       -2.2212640     2.3282100     1.3272780
  H       -0.4870200     1.9493020     1.2305480
  H       -1.3139190     2.6883760    -0.1607770
  H        0.6536140     1.6152250    -1.2478990
  H        0.8812590    -1.9928010     1.0799670
  H        3.1173860     1.8412050    -1.1464900
  H        3.3610660    -1.8124130     1.1137600
  H        4.4833320     0.1209150     0.0205430
units angstrom
no_reorient  #important for SAPT in psi4, default
symmetry c1  #important for SAPT in psi4, default
}

set PROPERTIES_ORIGIN ["COM"]
properties('MP2/aug-cc-pvtz', properties = ['dipole'])
--------------------------------------------------------------------------

    Molecular point group: c1
  Charge       = 0
  Multiplicity = 1
  Basis Set: AUG-CC-PVTZ
    Blend: AUG-CC-PVTZ
  Basis Set: (AUG-CC-PVTZ AUX)
    Blend: AUG-CC-PVTZ-JKFIT

    Orbital Energies [Eh]
    ---------------------

    Doubly Occupied:

       1A    -15.605642     2A    -11.269762     3A    -11.258782
       4A    -11.247046     5A    -11.244512     6A    -11.242121
       7A    -11.241533     8A    -11.240717     9A    -11.237749
      10A    -11.223976    11A    -11.204999    12A    -11.201814
      13A     -1.294358    14A     -1.171020    15A     -1.069687
      16A     -1.041073    17A     -1.022096    18A     -0.954571
      19A     -0.931018    20A     -0.841851    21A     -0.821754
      22A     -0.766625    23A     -0.740285    24A     -0.711490
      25A     -0.674214    26A     -0.640502    27A     -0.630995
      28A     -0.628834    29A     -0.601410    30A     -0.588947
      31A     -0.566893    32A     -0.563484    33A     -0.535782
      34A     -0.524089    35A     -0.521363    36A     -0.512211
      37A     -0.506370    38A     -0.466479    39A     -0.360371
      40A     -0.340448    41A     -0.332399    42A     -0.278465

  @DF-RHF Final Energy:  -477.52215491712087

   => Energetics <=

    Nuclear Repulsion Energy =            639.0182439807530272
    One-Electron Energy =               -1913.3653215790975537
    Two-Electron Energy =                 796.8249226812237112
    Total Energy =                       -477.5221549171209290
  Basis Set: (AUG-CC-PVTZ AUX)
    Blend: AUG-CC-PVTZ-RI
    Molecular point group: c1

    Geometry (in Angstrom), charge = 0, multiplicity = 1:

       Center              X                  Y                   Z               Mass
    ------------   -----------------  -----------------  -----------------  -----------------
         N           -1.765975321100     0.673421031604     0.202875697854    14.003074004430
         C           -0.871306321100    -0.334709968396    -0.111418302146    12.000000000000
         C            0.716659178900    -0.216159368396    -0.023831002146    12.000000000000
         C           -1.622373321100    -1.458371968396    -0.450108302146    12.000000000000
         C           -3.049304321100     0.204491031604     0.063375697854    12.000000000000
         C           -2.987880321100    -1.117610968396    -0.344003302146    12.000000000000
         C           -1.434108321100     2.008541031604     0.673479697854    12.000000000000
         C            1.229078678900     0.909166031604    -0.692667302146    12.000000000000
         C            1.365844678900    -1.137742968396     0.587857697854    12.000000000000
         C            2.618704678900     1.026012031604    -0.650341302146    12.000000000000
         C            2.756076678900    -1.029997968396     0.609784697854    12.000000000000
         C            3.387051678900     0.056771031604    -0.001037302146    12.000000000000
         H           -1.205947321100    -2.405823968396    -0.769688302146     1.007825032230
         H           -3.895190321100     0.844621031604     0.278317697854     1.007825032230
         H           -3.838175321100    -1.757043968396    -0.543347302146     1.007825032230
         H           -2.234130321100     2.352873031604     1.331564697854     1.007825032230
         H           -0.499886321100     1.973965031604     1.234834697854     1.007825032230
         H           -1.326785321100     2.713039031604    -0.156490302146     1.007825032230
         H            0.640747678900     1.639888031604    -1.243612302146     1.007825032230
         H            0.868392678900    -1.968137968396     1.084253697854     1.007825032230
         H            3.104519678900     1.865868031604    -1.142203302146     1.007825032230
         H            3.348199678900    -1.787749968396     1.118046697854     1.007825032230
         H            4.470465678900     0.145578031604     0.024829697854     1.007825032230

  Basis Set: AUG-CC-PVTZ
    Blend: AUG-CC-PVTZ
  Basis Set: (AUG-CC-PVTZ AUX)
    Blend: AUG-CC-PVTZ-JKFIT
	 Reference Energy          =    -477.5221549171208721 [Eh]
	 Singles Energy            =      -0.0000000000000000 [Eh]
	 Same-Spin Energy          =      -0.5379217539199448 [Eh]
	 Opposite-Spin Energy      =      -1.6820917373693844 [Eh]
	 Correlation Energy        =      -2.2200134912893290 [Eh]
	 Total Energy              =    -479.7421684084101798 [Eh]

	 ================> DF-SCS-MP2 Energies <==================
	-----------------------------------------------------------
	 SCS Same-Spin Scale       =       0.3333333333333333 [-]
	 SCS Opposite-Spin Scale   =       1.2000000000000000 [-]
	 SCS Same-Spin Energy      =      -0.1793072513066483 [Eh]
	 SCS Opposite-Spin Energy  =      -2.0185100848432613 [Eh]
	 SCS Correlation Energy    =      -2.1978173361499094 [Eh]
	 SCS Total Energy          =    -479.7199722532707824 [Eh]
	-----------------------------------------------------------

  Dipole Moment: [D]
     X:     0.8188      Y:     1.8899      Z:     0.7071     Total:     2.1777

*** Psi4 exiting successfully. Buy a developer a beer!
