                               Psi4 1.3.2 release

  ==> Input File <==

--------------------------------------------------------------------------
#psi4
#
memory 32 gb

molecule  {
0 1
  N       -1.6661627     0.6494532     0.1462460
  C       -0.8584400    -0.3593730    -0.1157050
  C        0.5958890    -0.1944310    -0.0686340
  C       -1.6095070    -1.4830350    -0.4543950
  C       -3.0364380     0.1798280     0.0590890
  C       -2.9750140    -1.1422740    -0.3482900
  C       -1.4212420     1.9838780     0.6691930
  C        1.2419450     0.8845030    -0.6969540
  C        1.3787110    -1.1624060     0.5835710
  C        2.6315710     1.0013490    -0.6546280
  C        2.7689430    -1.0546610     0.6054980
  C        3.3999180     0.0321080    -0.0053240
  H       -1.1930810    -2.4304870    -0.7739750
  H       -3.8823240     0.8199580     0.2740310
  H       -3.8253090    -1.7817070    -0.5476340
  H       -2.2212640     2.3282100     1.3272780
  H       -0.4870200     1.9493020     1.2305480
  H       -1.3139190     2.6883760    -0.1607770
  H        0.6536140     1.6152250    -1.2478990
  H        0.8812590    -1.9928010     1.0799670
  H        3.1173860     1.8412050    -1.1464900
  H        3.3610660    -1.8124130     1.1137600
  H        4.4833320     0.1209150     0.0205430
units angstrom
no_reorient  #important for SAPT in psi4, default
symmetry c1  #important for SAPT in psi4, default
}

set PROPERTIES_ORIGIN ["COM"]
properties('MP2/aug-cc-pvtz', properties = ['dipole'])
--------------------------------------------------------------------------

    Molecular point group: c1
  Charge       = 0
  Multiplicity = 1
  Basis Set: AUG-CC-PVTZ
    Blend: AUG-CC-PVTZ
  Basis Set: (AUG-CC-PVTZ AUX)
    Blend: AUG-CC-PVTZ-JKFIT

    Orbital Energies [Eh]
    ---------------------

    Doubly Occupied:

       1A    -15.606732     2A    -11.271214     3A    -11.258460
       4A    -11.249584     5A    -11.247363     6A    -11.241560
       7A    -11.240454     8A    -11.239943     9A    -11.238702
      10A    -11.237684    11A    -11.214542    12A    -11.200857
      13A     -1.300780    14A     -1.155088    15A     -1.072958
      16A     -1.043888    17A     -1.016832    18A     -0.962889
      19A     -0.926596    20A     -0.834396    21A     -0.831393
      22A     -0.770019    23A     -0.743070    24A     -0.712830
      25A     -0.676928    26A     -0.641153    27A     -0.631709
      28A     -0.623032    29A     -0.597194    30A     -0.587691
      31A     -0.585529    32A     -0.553953    33A     -0.538539
      34A     -0.525140    35A     -0.522474    36A     -0.501429
      37A     -0.494057    38A     -0.491032    39A     -0.353636
      40A     -0.341421    41A     -0.337755    42A     -0.273618

  @DF-RHF Final Energy:  -477.53635922788663

   => Energetics <=

    Nuclear Repulsion Energy =            639.8158414625255546
    One-Electron Energy =               -1914.9161513469628062
    Two-Electron Energy =                 797.5639506565505599
    Total Energy =                       -477.5363592278865781
  Basis Set: (AUG-CC-PVTZ AUX)
    Blend: AUG-CC-PVTZ-RI
    Molecular point group: c1

    Geometry (in Angstrom), charge = 0, multiplicity = 1:

       Center              X                  Y                   Z               Mass
    ------------   -----------------  -----------------  -----------------  -----------------
         N           -1.676571037666     0.670510433626     0.158293631741    14.003074004430
         C           -0.868848337666    -0.338315766374    -0.103657368259    12.000000000000
         C            0.585480662334    -0.173373766374    -0.056586368259    12.000000000000
         C           -1.619915337666    -1.461977766374    -0.442347368259    12.000000000000
         C           -3.046846337666     0.200885233626     0.071136631741    12.000000000000
         C           -2.985422337666    -1.121216766374    -0.336242368259    12.000000000000
         C           -1.431650337666     2.004935233626     0.681240631741    12.000000000000
         C            1.231536662334     0.905560233626    -0.684906368259    12.000000000000
         C            1.368302662334    -1.141348766374     0.595618631741    12.000000000000
         C            2.621162662334     1.022406233626    -0.642580368259    12.000000000000
         C            2.758534662334    -1.033603766374     0.617545631741    12.000000000000
         C            3.389509662334     0.053165233626     0.006723631741    12.000000000000
         H           -1.203489337666    -2.409429766374    -0.761927368259     1.007825032230
         H           -3.892732337666     0.841015233626     0.286078631741     1.007825032230
         H           -3.835717337666    -1.760649766374    -0.535586368259     1.007825032230
         H           -2.231672337666     2.349267233626     1.339325631741     1.007825032230
         H           -0.497428337666     1.970359233626     1.242595631741     1.007825032230
         H           -1.324327337666     2.709433233626    -0.148729368259     1.007825032230
         H            0.643205662334     1.636282233626    -1.235851368259     1.007825032230
         H            0.870850662334    -1.971743766374     1.092014631741     1.007825032230
         H            3.106977662334     1.862262233626    -1.134442368259     1.007825032230
         H            3.350657662334    -1.791355766374     1.125807631741     1.007825032230
         H            4.472923662334     0.141972233626     0.032590631741     1.007825032230

  Basis Set: AUG-CC-PVTZ
    Blend: AUG-CC-PVTZ
  Basis Set: (AUG-CC-PVTZ AUX)
    Blend: AUG-CC-PVTZ-JKFIT
	 Reference Energy          =    -477.5363592278866349 [Eh]
	 Singles Energy            =      -0.0000000000000000 [Eh]
	 Same-Spin Energy          =      -0.5391353473804135 [Eh]
	 Opposite-Spin Energy      =      -1.6837624175555628 [Eh]
	 Correlation Energy        =      -2.2228977649359765 [Eh]
	 Total Energy              =    -479.7592569928225998 [Eh]

	 ================> DF-SCS-MP2 Energies <==================
	-----------------------------------------------------------
	 SCS Same-Spin Scale       =       0.3333333333333333 [-]
	 SCS Opposite-Spin Scale   =       1.2000000000000000 [-]
	 SCS Same-Spin Energy      =      -0.1797117824601378 [Eh]
	 SCS Opposite-Spin Energy  =      -2.0205149010666754 [Eh]
	 SCS Correlation Energy    =      -2.2002266835268132 [Eh]
	 SCS Total Energy          =    -479.7365859114134423 [Eh]
	-----------------------------------------------------------

  Dipole Moment: [D]
     X:     0.4016      Y:     1.8451      Z:     0.7020     Total:     2.0146

*** Psi4 exiting successfully. Buy a developer a beer!
