                               Psi4 1.4a3.dev225

  ==> Input File <==

--------------------------------------------------------------------------
#psi4
#
memory 32 gb

molecule  {
0 1
  N       -1.7531090     0.6487580     0.1985890
  C       -0.8584400    -0.3593730    -0.1157050
  C        0.5958890    -0.1944310    -0.0686340
  C       -1.6095070    -1.4830350    -0.4543950
  C       -3.0364380     0.1798280     0.0590890
  C       -2.9750140    -1.1422740    -0.3482900
  C       -1.4326541     1.9379664     0.6530100
  C        1.2419450     0.8845030    -0.6969540
  C        1.3787110    -1.1624060     0.5835710
  C        2.6315710     1.0013490    -0.6546280
  C        2.7689430    -1.0546610     0.6054980
  C        3.3999180     0.0321080    -0.0053240
  H       -1.1930810    -2.4304870    -0.7739750
  H       -3.8823240     0.8199580     0.2740310
  H       -3.8253090    -1.7817070    -0.5476340
  H       -2.2212640     2.3282100     1.3272780
  H       -0.4870200     1.9493020     1.2305480
  H       -1.3139190     2.6883760    -0.1607770
  H        0.6536140     1.6152250    -1.2478990
  H        0.8812590    -1.9928010     1.0799670
  H        3.1173860     1.8412050    -1.1464900
  H        3.3610660    -1.8124130     1.1137600
  H        4.4833320     0.1209150     0.0205430
units angstrom
no_reorient  #important for SAPT in psi4, default
symmetry c1  #important for SAPT in psi4, default
}

set PROPERTIES_ORIGIN ["COM"]
properties('MP2/aug-cc-pvtz', properties = ['dipole'])
--------------------------------------------------------------------------

    Molecular point group: c1
  Charge       = 0
  Multiplicity = 1
  Basis Set: AUG-CC-PVTZ
    Blend: AUG-CC-PVTZ
  Basis Set: (AUG-CC-PVTZ AUX)
    Blend: AUG-CC-PVTZ-JKFIT

    Orbital Energies [Eh]
    ---------------------

    Doubly Occupied:

       1A    -15.608080     2A    -11.270104     3A    -11.258146
       4A    -11.250585     5A    -11.250015     6A    -11.240857
       7A    -11.239795     8A    -11.239448     9A    -11.238248
      10A    -11.237468    11A    -11.210122    12A    -11.208645
      13A     -1.307783    14A     -1.155560    15A     -1.080441
      16A     -1.044873    17A     -1.016442    18A     -0.957585
      19A     -0.929387    20A     -0.833927    21A     -0.831063
      22A     -0.773820    23A     -0.745822    24A     -0.716896
      25A     -0.678967    26A     -0.640812    27A     -0.632677
      28A     -0.622297    29A     -0.594496    30A     -0.587353
      31A     -0.579449    32A     -0.566448    33A     -0.538026
      34A     -0.522788    35A     -0.517997    36A     -0.502374
      37A     -0.495219    38A     -0.490814    39A     -0.354585
      40A     -0.340419    41A     -0.335671    42A     -0.276471

  @DF-RHF Final Energy:  -477.54349986344118

   => Energetics <=

    Nuclear Repulsion Energy =            640.0360115130373515
    One-Electron Energy =               -1915.3150753861423254
    Two-Electron Energy =                 797.7355640096636762
    Total Energy =                       -477.5434998634411841
  Basis Set: (AUG-CC-PVTZ AUX)
    Blend: AUG-CC-PVTZ-RI
    Molecular point group: c1

    Geometry (in Angstrom), charge = 0, multiplicity = 1:

       Center              X                  Y                   Z               Mass
    ------------   -----------------  -----------------  -----------------  -----------------
         N           -1.754895095590     0.673384379804     0.207206942900    14.003074004430
         C           -0.860226095590    -0.334746620196    -0.107087057100    12.000000000000
         C            0.594102904410    -0.169804620196    -0.060016057100    12.000000000000
         C           -1.611293095590    -1.458408620196    -0.445777057100    12.000000000000
         C           -3.038224095590     0.204454379804     0.067706942900    12.000000000000
         C           -2.976800095590    -1.117647620196    -0.339672057100    12.000000000000
         C           -1.434440195590     1.962592779804     0.661627942900    12.000000000000
         C            1.240158904410     0.909129379804    -0.688336057100    12.000000000000
         C            1.376924904410    -1.137779620196     0.592188942900    12.000000000000
         C            2.629784904410     1.025975379804    -0.646010057100    12.000000000000
         C            2.767156904410    -1.030034620196     0.614115942900    12.000000000000
         C            3.398131904410     0.056734379804     0.003293942900    12.000000000000
         H           -1.194867095590    -2.405860620196    -0.765357057100     1.007825032230
         H           -3.884110095590     0.844584379804     0.282648942900     1.007825032230
         H           -3.827095095590    -1.757080620196    -0.539016057100     1.007825032230
         H           -2.223050095590     2.352836379804     1.335895942900     1.007825032230
         H           -0.488806095590     1.973928379804     1.239165942900     1.007825032230
         H           -1.315705095590     2.713002379804    -0.152159057100     1.007825032230
         H            0.651827904410     1.639851379804    -1.239281057100     1.007825032230
         H            0.879472904410    -1.968174620196     1.088584942900     1.007825032230
         H            3.115599904410     1.865831379804    -1.137872057100     1.007825032230
         H            3.359279904410    -1.787786620196     1.122377942900     1.007825032230
         H            4.481545904410     0.145541379804     0.029160942900     1.007825032230

  Basis Set: AUG-CC-PVTZ
    Blend: AUG-CC-PVTZ
  Basis Set: (AUG-CC-PVTZ AUX)
    Blend: AUG-CC-PVTZ-JKFIT
	 Reference Energy          =    -477.5434998634411841 [Eh]
	 Singles Energy            =      -0.0000000000000000 [Eh]
	 Same-Spin Energy          =      -0.5394843280512265 [Eh]
	 Opposite-Spin Energy      =      -1.6833455422732329 [Eh]
	 Correlation Energy        =      -2.2228298703244596 [Eh]
	 Total Energy              =    -479.7663297337656445 [Eh]

	 ================> DF-SCS-MP2 Energies <==================
	-----------------------------------------------------------
	 SCS Same-Spin Scale       =       0.3333333333333333 [-]
	 SCS Opposite-Spin Scale   =       1.2000000000000000 [-]
	 SCS Same-Spin Energy      =      -0.1798281093504088 [Eh]
	 SCS Opposite-Spin Energy  =      -2.0200146507278793 [Eh]
	 SCS Correlation Energy    =      -2.1998427600782882 [Eh]
	 SCS Total Energy          =    -479.7433426235194815 [Eh]
	-----------------------------------------------------------

  Dipole Moment: [D]
     X:     0.4571      Y:     1.7137      Z:     0.6365     Total:     1.8844

*** Psi4 exiting successfully. Buy a developer a beer!
