                               Psi4 1.3.2 release

  ==> Input File <==

--------------------------------------------------------------------------
#psi4
#
memory 32 gb

molecule  {
0 1
  N       -1.6772702     0.7061202     0.2156296
  C       -0.8584400    -0.3593730    -0.1157050
  C        0.5958890    -0.1944310    -0.0686340
  C       -1.6095070    -1.4830350    -0.4543950
  C       -3.0364380     0.1798280     0.0590890
  C       -2.9750140    -1.1422740    -0.3482900
  C       -1.4212420     1.9838780     0.6691930
  C        1.2419450     0.8845030    -0.6969540
  C        1.3787110    -1.1624060     0.5835710
  C        2.6315710     1.0013490    -0.6546280
  C        2.7689430    -1.0546610     0.6054980
  C        3.3999180     0.0321080    -0.0053240
  H       -1.1930810    -2.4304870    -0.7739750
  H       -3.8823240     0.8199580     0.2740310
  H       -3.8253090    -1.7817070    -0.5476340
  H       -2.2212640     2.3282100     1.3272780
  H       -0.4870200     1.9493020     1.2305480
  H       -1.3139190     2.6883760    -0.1607770
  H        0.6536140     1.6152250    -1.2478990
  H        0.8812590    -1.9928010     1.0799670
  H        3.1173860     1.8412050    -1.1464900
  H        3.3610660    -1.8124130     1.1137600
  H        4.4833320     0.1209150     0.0205430
units angstrom
no_reorient  #important for SAPT in psi4, default
symmetry c1  #important for SAPT in psi4, default
}

set PROPERTIES_ORIGIN ["COM"]
properties('MP2/aug-cc-pvtz', properties = ['dipole'])
--------------------------------------------------------------------------

    Molecular point group: c1
  Charge       = 0
  Multiplicity = 1
  Basis Set: AUG-CC-PVTZ
    Blend: AUG-CC-PVTZ
  Basis Set: (AUG-CC-PVTZ AUX)
    Blend: AUG-CC-PVTZ-JKFIT

    Orbital Energies [Eh]
    ---------------------

    Doubly Occupied:

       1A    -15.603837     2A    -11.265270     3A    -11.262413
       4A    -11.254139     5A    -11.248872     6A    -11.241031
       7A    -11.239949     8A    -11.239515     9A    -11.238334
      10A    -11.237337    11A    -11.217758    12A    -11.208805
      13A     -1.290531    14A     -1.155000    15A     -1.087244
      16A     -1.042259    17A     -1.016497    18A     -0.953924
      19A     -0.927263    20A     -0.833428    21A     -0.830741
      22A     -0.768421    23A     -0.746482    24A     -0.713325
      25A     -0.675848    26A     -0.642252    27A     -0.631187
      28A     -0.624045    29A     -0.599769    30A     -0.591513
      31A     -0.587344    32A     -0.558952    33A     -0.537213
      34A     -0.521449    35A     -0.515619    36A     -0.498154
      37A     -0.494185    38A     -0.488156    39A     -0.352610
      40A     -0.341299    41A     -0.337533    42A     -0.275830

  @DF-RHF Final Energy:  -477.53199528209581

   => Energetics <=

    Nuclear Repulsion Energy =            638.9246733935576685
    One-Electron Energy =               -1913.1226696892792916
    Two-Electron Energy =                 796.6660010136258734
    Total Energy =                       -477.5319952820957496
  Basis Set: (AUG-CC-PVTZ AUX)
    Blend: AUG-CC-PVTZ-RI
    Molecular point group: c1

    Geometry (in Angstrom), charge = 0, multiplicity = 1:

       Center              X                  Y                   Z               Mass
    ------------   -----------------  -----------------  -----------------  -----------------
         N           -1.686688404706     0.722126084135     0.221492312608    14.003074004430
         C           -0.867858204706    -0.343367115865    -0.109842287392    12.000000000000
         C            0.586470795294    -0.178425115865    -0.062771287392    12.000000000000
         C           -1.618925204706    -1.467029115865    -0.448532287392    12.000000000000
         C           -3.045856204706     0.195833884135     0.064951712608    12.000000000000
         C           -2.984432204706    -1.126268115865    -0.342427287392    12.000000000000
         C           -1.430660204706     1.999883884135     0.675055712608    12.000000000000
         C            1.232526795294     0.900508884135    -0.691091287392    12.000000000000
         C            1.369292795294    -1.146400115865     0.589433712608    12.000000000000
         C            2.622152795294     1.017354884135    -0.648765287392    12.000000000000
         C            2.759524795294    -1.038655115865     0.611360712608    12.000000000000
         C            3.390499795294     0.048113884135     0.000538712608    12.000000000000
         H           -1.202499204706    -2.414481115865    -0.768112287392     1.007825032230
         H           -3.891742204706     0.835963884135     0.279893712608     1.007825032230
         H           -3.834727204706    -1.765701115865    -0.541771287392     1.007825032230
         H           -2.230682204706     2.344215884135     1.333140712608     1.007825032230
         H           -0.496438204706     1.965307884135     1.236410712608     1.007825032230
         H           -1.323337204706     2.704381884135    -0.154914287392     1.007825032230
         H            0.644195795294     1.631230884135    -1.242036287392     1.007825032230
         H            0.871840795294    -1.976795115865     1.085829712608     1.007825032230
         H            3.107967795294     1.857210884135    -1.140627287392     1.007825032230
         H            3.351647795294    -1.796407115865     1.119622712608     1.007825032230
         H            4.473913795294     0.136920884135     0.026405712608     1.007825032230

  Basis Set: AUG-CC-PVTZ
    Blend: AUG-CC-PVTZ
  Basis Set: (AUG-CC-PVTZ AUX)
    Blend: AUG-CC-PVTZ-JKFIT
	 Reference Energy          =    -477.5319952820958065 [Eh]
	 Singles Energy            =      -0.0000000000000000 [Eh]
	 Same-Spin Energy          =      -0.5394682536521591 [Eh]
	 Opposite-Spin Energy      =      -1.6848652457344762 [Eh]
	 Correlation Energy        =      -2.2243334993866353 [Eh]
	 Total Energy              =    -479.7563287814824662 [Eh]

	 ================> DF-SCS-MP2 Energies <==================
	-----------------------------------------------------------
	 SCS Same-Spin Scale       =       0.3333333333333333 [-]
	 SCS Opposite-Spin Scale   =       1.2000000000000000 [-]
	 SCS Same-Spin Energy      =      -0.1798227512173864 [Eh]
	 SCS Opposite-Spin Energy  =      -2.0218382948813711 [Eh]
	 SCS Correlation Energy    =      -2.2016610460987573 [Eh]
	 SCS Total Energy          =    -479.7336563281945701 [Eh]
	-----------------------------------------------------------

  Dipole Moment: [D]
     X:     0.3605      Y:     1.5739      Z:     0.5922     Total:     1.7198

*** Psi4 exiting successfully. Buy a developer a beer!
