                               Psi4 1.3.2 release

  ==> Input File <==

--------------------------------------------------------------------------
#psi4
#
memory 32 gb

molecule  {
0 1
  N       -1.7531090     0.6487580     0.1985890
  C       -0.8584400    -0.3593730    -0.1157050
  C        0.5958890    -0.1944310    -0.0686340
  C       -1.6034863    -1.4602067    -0.4473667
  C       -3.0364380     0.1798280     0.0590890
  C       -2.9750140    -1.1422740    -0.3482900
  C       -1.4212420     1.9838780     0.6691930
  C        1.2419450     0.8845030    -0.6969540
  C        1.3787110    -1.1624060     0.5835710
  C        2.6315710     1.0013490    -0.6546280
  C        2.7689430    -1.0546610     0.6054980
  C        3.3999180     0.0321080    -0.0053240
  H       -1.1930810    -2.4304870    -0.7739750
  H       -3.8823240     0.8199580     0.2740310
  H       -3.8253090    -1.7817070    -0.5476340
  H       -2.2212640     2.3282100     1.3272780
  H       -0.4870200     1.9493020     1.2305480
  H       -1.3139190     2.6883760    -0.1607770
  H        0.6536140     1.6152250    -1.2478990
  H        0.8812590    -1.9928010     1.0799670
  H        3.1173860     1.8412050    -1.1464900
  H        3.3610660    -1.8124130     1.1137600
  H        4.4833320     0.1209150     0.0205430
units angstrom
no_reorient  #important for SAPT in psi4, default
symmetry c1  #important for SAPT in psi4, default
}

set PROPERTIES_ORIGIN ["COM"]
properties('MP2/aug-cc-pvtz', properties = ['dipole'])
--------------------------------------------------------------------------

    Molecular point group: c1
  Charge       = 0
  Multiplicity = 1
  Basis Set: AUG-CC-PVTZ
    Blend: AUG-CC-PVTZ
  Basis Set: (AUG-CC-PVTZ AUX)
    Blend: AUG-CC-PVTZ-JKFIT

    Orbital Energies [Eh]
    ---------------------

    Doubly Occupied:

       1A    -15.605711     2A    -11.269994     3A    -11.253469
       4A    -11.250154     5A    -11.249120     6A    -11.240719
       7A    -11.239576     8A    -11.239261     9A    -11.237981
      10A    -11.237081    11A    -11.207571    12A    -11.205964
      13A     -1.299618    14A     -1.155098    15A     -1.074956
      16A     -1.044155    17A     -1.016186    18A     -0.957714
      19A     -0.932013    20A     -0.833365    21A     -0.830661
      22A     -0.770716    23A     -0.742647    24A     -0.711755
      25A     -0.678072    26A     -0.639868    27A     -0.631873
      28A     -0.622310    29A     -0.596137    30A     -0.587122
      31A     -0.569491    32A     -0.567872    33A     -0.539241
      34A     -0.526347    35A     -0.521666    36A     -0.502137
      37A     -0.495766    38A     -0.491787    39A     -0.354626
      40A     -0.340192    41A     -0.334916    42A     -0.277490

  @DF-RHF Final Energy:  -477.54598177967773

   => Energetics <=

    Nuclear Repulsion Energy =            639.5666270992419413
    One-Electron Energy =               -1914.4604276178702094
    Two-Electron Energy =                 797.3478187389505365
    Total Energy =                       -477.5459817796777315
  Basis Set: (AUG-CC-PVTZ AUX)
    Blend: AUG-CC-PVTZ-RI
    Molecular point group: c1

    Geometry (in Angstrom), charge = 0, multiplicity = 1:

       Center              X                  Y                   Z               Mass
    ------------   -----------------  -----------------  -----------------  -----------------
         N           -1.756226782730     0.668133356399     0.205433837621    14.003074004430
         C           -0.861557782730    -0.339997643601    -0.108860162379    12.000000000000
         C            0.592771217270    -0.175055643601    -0.061789162379    12.000000000000
         C           -1.606604082730    -1.440831343601    -0.440521862379    12.000000000000
         C           -3.039555782730     0.199203356399     0.065933837621    12.000000000000
         C           -2.978131782730    -1.122898643601    -0.341445162379    12.000000000000
         C           -1.424359782730     2.003253356399     0.676037837621    12.000000000000
         C            1.238827217270     0.903878356399    -0.690109162379    12.000000000000
         C            1.375593217270    -1.143030643601     0.590415837621    12.000000000000
         C            2.628453217270     1.020724356399    -0.647783162379    12.000000000000
         C            2.765825217270    -1.035285643601     0.612342837621    12.000000000000
         C            3.396800217270     0.051483356399     0.001520837621    12.000000000000
         H           -1.196198782730    -2.411111643601    -0.767130162379     1.007825032230
         H           -3.885441782730     0.839333356399     0.280875837621     1.007825032230
         H           -3.828426782730    -1.762331643601    -0.540789162379     1.007825032230
         H           -2.224381782730     2.347585356399     1.334122837621     1.007825032230
         H           -0.490137782730     1.968677356399     1.237392837621     1.007825032230
         H           -1.317036782730     2.707751356399    -0.153932162379     1.007825032230
         H            0.650496217270     1.634600356399    -1.241054162379     1.007825032230
         H            0.878141217270    -1.973425643601     1.086811837621     1.007825032230
         H            3.114268217270     1.860580356399    -1.139645162379     1.007825032230
         H            3.357948217270    -1.793037643601     1.120604837621     1.007825032230
         H            4.480214217270     0.140290356399     0.027387837621     1.007825032230

  Basis Set: AUG-CC-PVTZ
    Blend: AUG-CC-PVTZ
  Basis Set: (AUG-CC-PVTZ AUX)
    Blend: AUG-CC-PVTZ-JKFIT
	 Reference Energy          =    -477.5459817796777315 [Eh]
	 Singles Energy            =      -0.0000000000000000 [Eh]
	 Same-Spin Energy          =      -0.5388910430739734 [Eh]
	 Opposite-Spin Energy      =      -1.6827723744260292 [Eh]
	 Correlation Energy        =      -2.2216634175000025 [Eh]
	 Total Energy              =    -479.7676451971777283 [Eh]

	 ================> DF-SCS-MP2 Energies <==================
	-----------------------------------------------------------
	 SCS Same-Spin Scale       =       0.3333333333333333 [-]
	 SCS Opposite-Spin Scale   =       1.2000000000000000 [-]
	 SCS Same-Spin Energy      =      -0.1796303476913245 [Eh]
	 SCS Opposite-Spin Energy  =      -2.0193268493112351 [Eh]
	 SCS Correlation Energy    =      -2.1989571970025596 [Eh]
	 SCS Total Energy          =    -479.7449389766803165 [Eh]
	-----------------------------------------------------------

  Dipole Moment: [D]
     X:     0.4830      Y:     1.8415      Z:     0.6730     Total:     2.0193

*** Psi4 exiting successfully. Buy a developer a beer!
