                               Psi4 1.3.2 release

  ==> Input File <==

--------------------------------------------------------------------------
#psi4
#
memory 32 gb

molecule  {
0 1
  N       -1.7531090     0.6487580     0.1985890
  C       -0.8584400    -0.3593730    -0.1157050
  C        0.5958890    -0.1944310    -0.0686340
  C       -1.6095070    -1.4830350    -0.4543950
  C       -3.0364380     0.1798280     0.0590890
  C       -2.9750140    -1.1422740    -0.3482900
  C       -1.4212420     1.9838780     0.6691930
  C        1.1980615     0.9017606    -0.7105259
  C        1.3787110    -1.1624060     0.5835710
  C        2.6315710     1.0013490    -0.6546280
  C        2.7689430    -1.0546610     0.6054980
  C        3.3999180     0.0321080    -0.0053240
  H       -1.1930810    -2.4304870    -0.7739750
  H       -3.8823240     0.8199580     0.2740310
  H       -3.8253090    -1.7817070    -0.5476340
  H       -2.2212640     2.3282100     1.3272780
  H       -0.4870200     1.9493020     1.2305480
  H       -1.3139190     2.6883760    -0.1607770
  H        0.6536140     1.6152250    -1.2478990
  H        0.8812590    -1.9928010     1.0799670
  H        3.1173860     1.8412050    -1.1464900
  H        3.3610660    -1.8124130     1.1137600
  H        4.4833320     0.1209150     0.0205430
units angstrom
no_reorient  #important for SAPT in psi4, default
symmetry c1  #important for SAPT in psi4, default
}

set PROPERTIES_ORIGIN ["COM"]
properties('MP2/aug-cc-pvtz', properties = ['dipole'])
--------------------------------------------------------------------------

    Molecular point group: c1
  Charge       = 0
  Multiplicity = 1
  Basis Set: AUG-CC-PVTZ
    Blend: AUG-CC-PVTZ
  Basis Set: (AUG-CC-PVTZ AUX)
    Blend: AUG-CC-PVTZ-JKFIT

    Orbital Energies [Eh]
    ---------------------

    Doubly Occupied:

       1A    -15.607275     2A    -11.270551     3A    -11.255442
       4A    -11.251065     5A    -11.248054     6A    -11.245265
       7A    -11.240874     8A    -11.240547     9A    -11.238323
      10A    -11.237462    11A    -11.207947    12A    -11.206256
      13A     -1.298608    14A     -1.151779    15A     -1.072924
      16A     -1.044649    17A     -1.012652    18A     -0.955519
      19A     -0.933141    20A     -0.835495    21A     -0.830318
      22A     -0.770523    23A     -0.742104    24A     -0.712127
      25A     -0.680232    26A     -0.639998    27A     -0.634854
      28A     -0.620991    29A     -0.597866    30A     -0.587537
      31A     -0.569570    32A     -0.568299    33A     -0.537614
      34A     -0.527197    35A     -0.523667    36A     -0.501318
      37A     -0.496425    38A     -0.489804    39A     -0.355142
      40A     -0.336987    41A     -0.334045    42A     -0.275079

  @DF-RHF Final Energy:  -477.54225878001972

   => Energetics <=

    Nuclear Repulsion Energy =            638.7324707189700348
    One-Electron Energy =               -1912.7784072698598266
    Two-Electron Energy =                 796.5036777708700129
    Total Energy =                       -477.5422587800197789
  Basis Set: (AUG-CC-PVTZ AUX)
    Blend: AUG-CC-PVTZ-RI
    Molecular point group: c1

    Geometry (in Angstrom), charge = 0, multiplicity = 1:

       Center              X                  Y                   Z               Mass
    ------------   -----------------  -----------------  -----------------  -----------------
         N           -1.752414613637     0.668558900749     0.207007481638    14.003074004430
         C           -0.857745613637    -0.339572099251    -0.107286518362    12.000000000000
         C            0.596583386363    -0.174630099251    -0.060215518362    12.000000000000
         C           -1.608812613637    -1.463234099251    -0.445976518362    12.000000000000
         C           -3.035743613637     0.199628900749     0.067507481638    12.000000000000
         C           -2.974319613637    -1.122473099251    -0.339871518362    12.000000000000
         C           -1.420547613637     2.003678900749     0.677611481638    12.000000000000
         C            1.198755886363     0.921561500749    -0.702107418362    12.000000000000
         C            1.379405386363    -1.142605099251     0.591989481638    12.000000000000
         C            2.632265386363     1.021149900749    -0.646209518362    12.000000000000
         C            2.769637386363    -1.034860099251     0.613916481638    12.000000000000
         C            3.400612386363     0.051908900749     0.003094481638    12.000000000000
         H           -1.192386613637    -2.410686099251    -0.765556518362     1.007825032230
         H           -3.881629613637     0.839758900749     0.282449481638     1.007825032230
         H           -3.824614613637    -1.761906099251    -0.539215518362     1.007825032230
         H           -2.220569613637     2.348010900749     1.335696481638     1.007825032230
         H           -0.486325613637     1.969102900749     1.238966481638     1.007825032230
         H           -1.313224613637     2.708176900749    -0.152358518362     1.007825032230
         H            0.654308386363     1.635025900749    -1.239480518362     1.007825032230
         H            0.881953386363    -1.973000099251     1.088385481638     1.007825032230
         H            3.118080386363     1.861005900749    -1.138071518362     1.007825032230
         H            3.361760386363    -1.792612099251     1.122178481638     1.007825032230
         H            4.484026386363     0.140715900749     0.028961481638     1.007825032230

  Basis Set: AUG-CC-PVTZ
    Blend: AUG-CC-PVTZ
  Basis Set: (AUG-CC-PVTZ AUX)
    Blend: AUG-CC-PVTZ-JKFIT
	 Reference Energy          =    -477.5422587800197221 [Eh]
	 Singles Energy            =      -0.0000000000000000 [Eh]
	 Same-Spin Energy          =      -0.5392037791976535 [Eh]
	 Opposite-Spin Energy      =      -1.6836294270714243 [Eh]
	 Correlation Energy        =      -2.2228332062690779 [Eh]
	 Total Energy              =    -479.7650919862887804 [Eh]

	 ================> DF-SCS-MP2 Energies <==================
	-----------------------------------------------------------
	 SCS Same-Spin Scale       =       0.3333333333333333 [-]
	 SCS Opposite-Spin Scale   =       1.2000000000000000 [-]
	 SCS Same-Spin Energy      =      -0.1797345930658845 [Eh]
	 SCS Opposite-Spin Energy  =      -2.0203553124857092 [Eh]
	 SCS Correlation Energy    =      -2.2000899055515939 [Eh]
	 SCS Total Energy          =    -479.7423486855713008 [Eh]
	-----------------------------------------------------------

  Dipole Moment: [D]
     X:     0.5010      Y:     1.8591      Z:     0.6744     Total:     2.0401

*** Psi4 exiting successfully. Buy a developer a beer!
