                               Psi4 1.3.2 release

  ==> Input File <==

--------------------------------------------------------------------------
#psi4
#
memory 32 gb

molecule  {
0 1
  N       -1.7531090     0.6487580     0.1985890
  C       -0.8584400    -0.3593730    -0.1157050
  C        0.5958890    -0.1944310    -0.0686340
  C       -1.5978833    -1.4372815    -0.4403083
  C       -3.0364380     0.1798280     0.0590890
  C       -2.9750140    -1.1422740    -0.3482900
  C       -1.4212420     1.9838780     0.6691930
  C        1.2419450     0.8845030    -0.6969540
  C        1.3787110    -1.1624060     0.5835710
  C        2.6315710     1.0013490    -0.6546280
  C        2.7689430    -1.0546610     0.6054980
  C        3.3999180     0.0321080    -0.0053240
  H       -1.1930810    -2.4304870    -0.7739750
  H       -3.8823240     0.8199580     0.2740310
  H       -3.8253090    -1.7817070    -0.5476340
  H       -2.2212640     2.3282100     1.3272780
  H       -0.4870200     1.9493020     1.2305480
  H       -1.3139190     2.6883760    -0.1607770
  H        0.6536140     1.6152250    -1.2478990
  H        0.8812590    -1.9928010     1.0799670
  H        3.1173860     1.8412050    -1.1464900
  H        3.3610660    -1.8124130     1.1137600
  H        4.4833320     0.1209150     0.0205430
units angstrom
no_reorient  #important for SAPT in psi4, default
symmetry c1  #important for SAPT in psi4, default
}

set PROPERTIES_ORIGIN ["COM"]
properties('MP2/aug-cc-pvtz', properties = ['dipole'])
--------------------------------------------------------------------------

    Molecular point group: c1
  Charge       = 0
  Multiplicity = 1
  Basis Set: AUG-CC-PVTZ
    Blend: AUG-CC-PVTZ
  Basis Set: (AUG-CC-PVTZ AUX)
    Blend: AUG-CC-PVTZ-JKFIT

    Orbital Energies [Eh]
    ---------------------

    Doubly Occupied:

       1A    -15.603848     2A    -11.269328     3A    -11.250684
       4A    -11.249882     5A    -11.249707     6A    -11.240736
       7A    -11.239606     8A    -11.239280     9A    -11.238024
      10A    -11.237130    11A    -11.206862    12A    -11.204967
      13A     -1.300524    14A     -1.155141    15A     -1.076644
      16A     -1.044415    17A     -1.016207    18A     -0.959615
      19A     -0.930672    20A     -0.833491    21A     -0.830744
      22A     -0.771128    23A     -0.742043    24A     -0.711073
      25A     -0.678299    26A     -0.639819    27A     -0.631844
      28A     -0.622121    29A     -0.595653    30A     -0.587087
      31A     -0.570751    32A     -0.566368    33A     -0.540918
      34A     -0.527204    35A     -0.517000    36A     -0.502039
      37A     -0.496224    38A     -0.491658    39A     -0.355379
      40A     -0.340130    41A     -0.334561    42A     -0.279865

  @DF-RHF Final Energy:  -477.54418434425156

   => Energetics <=

    Nuclear Repulsion Energy =            640.0978764269590329
    One-Electron Energy =               -1915.5267777780206870
    Two-Electron Energy =                 797.8847170068099786
    Total Energy =                       -477.5441843442515619
  Basis Set: (AUG-CC-PVTZ AUX)
    Blend: AUG-CC-PVTZ-RI
    Molecular point group: c1

    Geometry (in Angstrom), charge = 0, multiplicity = 1:

       Center              X                  Y                   Z               Mass
    ------------   -----------------  -----------------  -----------------  -----------------
         N           -1.756654794469     0.666382106226     0.204894648248    14.003074004430
         C           -0.861985794469    -0.341748893774    -0.109399351752    12.000000000000
         C            0.592343205531    -0.176806893774    -0.062328351752    12.000000000000
         C           -1.601429094469    -1.419657393774    -0.434002651752    12.000000000000
         C           -3.039983794469     0.197452106226     0.065394648248    12.000000000000
         C           -2.978559794469    -1.124649893774    -0.341984351752    12.000000000000
         C           -1.424787794469     2.001502106226     0.675498648248    12.000000000000
         C            1.238399205531     0.902127106226    -0.690648351752    12.000000000000
         C            1.375165205531    -1.144781893774     0.589876648248    12.000000000000
         C            2.628025205531     1.018973106226    -0.648322351752    12.000000000000
         C            2.765397205531    -1.037036893774     0.611803648248    12.000000000000
         C            3.396372205531     0.049732106226     0.000981648248    12.000000000000
         H           -1.196626794469    -2.412862893774    -0.767669351752     1.007825032230
         H           -3.885869794469     0.837582106226     0.280336648248     1.007825032230
         H           -3.828854794469    -1.764082893774    -0.541328351752     1.007825032230
         H           -2.224809794469     2.345834106226     1.333583648248     1.007825032230
         H           -0.490565794469     1.966926106226     1.236853648248     1.007825032230
         H           -1.317464794469     2.706000106226    -0.154471351752     1.007825032230
         H            0.650068205531     1.632849106226    -1.241593351752     1.007825032230
         H            0.877713205531    -1.975176893774     1.086272648248     1.007825032230
         H            3.113840205531     1.858829106226    -1.140184351752     1.007825032230
         H            3.357520205531    -1.794788893774     1.120065648248     1.007825032230
         H            4.479786205531     0.138539106226     0.026848648248     1.007825032230

  Basis Set: AUG-CC-PVTZ
    Blend: AUG-CC-PVTZ
  Basis Set: (AUG-CC-PVTZ AUX)
    Blend: AUG-CC-PVTZ-JKFIT
	 Reference Energy          =    -477.5441843442515619 [Eh]
	 Singles Energy            =      -0.0000000000000000 [Eh]
	 Same-Spin Energy          =      -0.5386372439318060 [Eh]
	 Opposite-Spin Energy      =      -1.6824003866767341 [Eh]
	 Correlation Energy        =      -2.2210376306085400 [Eh]
	 Total Energy              =    -479.7652219748600828 [Eh]

	 ================> DF-SCS-MP2 Energies <==================
	-----------------------------------------------------------
	 SCS Same-Spin Scale       =       0.3333333333333333 [-]
	 SCS Opposite-Spin Scale   =       1.2000000000000000 [-]
	 SCS Same-Spin Energy      =      -0.1795457479772687 [Eh]
	 SCS Opposite-Spin Energy  =      -2.0188804640120810 [Eh]
	 SCS Correlation Energy    =      -2.1984262119893496 [Eh]
	 SCS Total Energy          =    -479.7426105562408907 [Eh]
	-----------------------------------------------------------

  Dipole Moment: [D]
     X:     0.4952      Y:     1.8258      Z:     0.6697     Total:     2.0068

*** Psi4 exiting successfully. Buy a developer a beer!
