                               Psi4 1.4a3.dev225

  ==> Input File <==

--------------------------------------------------------------------------
#psi4
#
memory 32 gb

molecule  {
0 1
  N       -1.7531090     0.6487580     0.1985890
  C       -0.8584400    -0.3593730    -0.1157050
  C        0.5958890    -0.1944310    -0.0686340
  C       -1.6095070    -1.4830350    -0.4543950
  C       -3.0364380     0.1798280     0.0590890
  C       -2.9750140    -1.1422740    -0.3482900
  C       -1.4212420     1.9838780     0.6691930
  C        1.2189668     0.8461286    -0.6746066
  C        1.3787110    -1.1624060     0.5835710
  C        2.6315710     1.0013490    -0.6546280
  C        2.7689430    -1.0546610     0.6054980
  C        3.3999180     0.0321080    -0.0053240
  H       -1.1930810    -2.4304870    -0.7739750
  H       -3.8823240     0.8199580     0.2740310
  H       -3.8253090    -1.7817070    -0.5476340
  H       -2.2212640     2.3282100     1.3272780
  H       -0.4870200     1.9493020     1.2305480
  H       -1.3139190     2.6883760    -0.1607770
  H        0.6536140     1.6152250    -1.2478990
  H        0.8812590    -1.9928010     1.0799670
  H        3.1173860     1.8412050    -1.1464900
  H        3.3610660    -1.8124130     1.1137600
  H        4.4833320     0.1209150     0.0205430
units angstrom
no_reorient  #important for SAPT in psi4, default
symmetry c1  #important for SAPT in psi4, default
}

set PROPERTIES_ORIGIN ["COM"]
properties('MP2/aug-cc-pvtz', properties = ['dipole'])
--------------------------------------------------------------------------

    Molecular point group: c1
  Charge       = 0
  Multiplicity = 1
  Basis Set: AUG-CC-PVTZ
    Blend: AUG-CC-PVTZ
  Basis Set: (AUG-CC-PVTZ AUX)
    Blend: AUG-CC-PVTZ-JKFIT

    Orbital Energies [Eh]
    ---------------------

    Doubly Occupied:

       1A    -15.607435     2A    -11.270394     3A    -11.256145
       4A    -11.248132     5A    -11.244832     6A    -11.242864
       7A    -11.239344     8A    -11.239047     9A    -11.238243
      10A    -11.237368    11A    -11.208087    12A    -11.206595
      13A     -1.298724    14A     -1.158618    15A     -1.073065
      16A     -1.047495    17A     -1.012533    18A     -0.957434
      19A     -0.933099    20A     -0.834888    21A     -0.829242
      22A     -0.770756    23A     -0.744465    24A     -0.712297
      25A     -0.675315    26A     -0.639363    27A     -0.633262
      28A     -0.624800    29A     -0.597124    30A     -0.582518
      31A     -0.569545    32A     -0.568992    33A     -0.538425
      34A     -0.526775    35A     -0.523543    36A     -0.502521
      37A     -0.498484    38A     -0.487420    39A     -0.358441
      40A     -0.337044    41A     -0.334605    42A     -0.276578

  @DF-RHF Final Energy:  -477.54315325070922

   => Energetics <=

    Nuclear Repulsion Energy =            639.7957710875216435
    One-Electron Energy =               -1914.9061360760565549
    Two-Electron Energy =                 797.5672117378256871
    Total Energy =                       -477.5431532507092243
  Basis Set: (AUG-CC-PVTZ AUX)
    Blend: AUG-CC-PVTZ-RI
    Molecular point group: c1

    Geometry (in Angstrom), charge = 0, multiplicity = 1:

       Center              X                  Y                   Z               Mass
    ------------   -----------------  -----------------  -----------------  -----------------
         N           -1.754011564165     0.672808615021     0.204263615485    14.003074004430
         C           -0.859342564165    -0.335322384979    -0.110030384515    12.000000000000
         C            0.594986435835    -0.170380384979    -0.062959384515    12.000000000000
         C           -1.610409564165    -1.458984384979    -0.448720384515    12.000000000000
         C           -3.037340564165     0.203878615021     0.064763615485    12.000000000000
         C           -2.975916564165    -1.118223384979    -0.342615384515    12.000000000000
         C           -1.422144564165     2.007928615021     0.674867615485    12.000000000000
         C            1.218064235835     0.870179215021    -0.668931984515    12.000000000000
         C            1.377808435835    -1.138355384979     0.589245615485    12.000000000000
         C            2.630668435835     1.025399615021    -0.648953384515    12.000000000000
         C            2.768040435835    -1.030610384979     0.611172615485    12.000000000000
         C            3.399015435835     0.056158615021     0.000350615485    12.000000000000
         H           -1.193983564165    -2.406436384979    -0.768300384515     1.007825032230
         H           -3.883226564165     0.844008615021     0.279705615485     1.007825032230
         H           -3.826211564165    -1.757656384979    -0.541959384515     1.007825032230
         H           -2.222166564165     2.352260615021     1.332952615485     1.007825032230
         H           -0.487922564165     1.973352615021     1.236222615485     1.007825032230
         H           -1.314821564165     2.712426615021    -0.155102384515     1.007825032230
         H            0.652711435835     1.639275615021    -1.242224384515     1.007825032230
         H            0.880356435835    -1.968750384979     1.085641615485     1.007825032230
         H            3.116483435835     1.865255615021    -1.140815384515     1.007825032230
         H            3.360163435835    -1.788362384979     1.119434615485     1.007825032230
         H            4.482429435835     0.144965615021     0.026217615485     1.007825032230

  Basis Set: AUG-CC-PVTZ
    Blend: AUG-CC-PVTZ
  Basis Set: (AUG-CC-PVTZ AUX)
    Blend: AUG-CC-PVTZ-JKFIT
	 Reference Energy          =    -477.5431532507092243 [Eh]
	 Singles Energy            =      -0.0000000000000000 [Eh]
	 Same-Spin Energy          =      -0.5391014794884859 [Eh]
	 Opposite-Spin Energy      =      -1.6832654327380956 [Eh]
	 Correlation Energy        =      -2.2223669122265814 [Eh]
	 Total Energy              =    -479.7655201629357862 [Eh]

	 ================> DF-SCS-MP2 Energies <==================
	-----------------------------------------------------------
	 SCS Same-Spin Scale       =       0.3333333333333333 [-]
	 SCS Opposite-Spin Scale   =       1.2000000000000000 [-]
	 SCS Same-Spin Energy      =      -0.1797004931628286 [Eh]
	 SCS Opposite-Spin Energy  =      -2.0199185192857145 [Eh]
	 SCS Correlation Energy    =      -2.1996190124485433 [Eh]
	 SCS Total Energy          =    -479.7427722631577467 [Eh]
	-----------------------------------------------------------

  Dipole Moment: [D]
     X:     0.5143      Y:     1.8640      Z:     0.6785     Total:     2.0492

*** Psi4 exiting successfully. Buy a developer a beer!
