                               Psi4 1.3.2 release

  ==> Input File <==

--------------------------------------------------------------------------
#psi4
#
memory 32 gb

molecule  {
0 1
  N       -1.7531090     0.6487580     0.1985890
  C       -0.8584400    -0.3593730    -0.1157050
  C        0.5958890    -0.1944310    -0.0686340
  C       -1.6095070    -1.4830350    -0.4543950
  C       -3.1298782     0.1456848     0.0489319
  C       -2.9750140    -1.1422740    -0.3482900
  C       -1.4212420     1.9838780     0.6691930
  C        1.2419450     0.8845030    -0.6969540
  C        1.3787110    -1.1624060     0.5835710
  C        2.6315710     1.0013490    -0.6546280
  C        2.7689430    -1.0546610     0.6054980
  C        3.3999180     0.0321080    -0.0053240
  H       -1.1930810    -2.4304870    -0.7739750
  H       -3.8823240     0.8199580     0.2740310
  H       -3.8253090    -1.7817070    -0.5476340
  H       -2.2212640     2.3282100     1.3272780
  H       -0.4870200     1.9493020     1.2305480
  H       -1.3139190     2.6883760    -0.1607770
  H        0.6536140     1.6152250    -1.2478990
  H        0.8812590    -1.9928010     1.0799670
  H        3.1173860     1.8412050    -1.1464900
  H        3.3610660    -1.8124130     1.1137600
  H        4.4833320     0.1209150     0.0205430
units angstrom
no_reorient  #important for SAPT in psi4, default
symmetry c1  #important for SAPT in psi4, default
}

set PROPERTIES_ORIGIN ["COM"]
properties('MP2/aug-cc-pvtz', properties = ['dipole'])
--------------------------------------------------------------------------

    Molecular point group: c1
  Charge       = 0
  Multiplicity = 1
  Basis Set: AUG-CC-PVTZ
    Blend: AUG-CC-PVTZ
  Basis Set: (AUG-CC-PVTZ AUX)
    Blend: AUG-CC-PVTZ-JKFIT

    Orbital Energies [Eh]
    ---------------------

    Doubly Occupied:

       1A    -15.599552     2A    -11.265435     3A    -11.263880
       4A    -11.251645     5A    -11.247472     6A    -11.242258
       7A    -11.241273     8A    -11.240715     9A    -11.239804
      10A    -11.239054    11A    -11.212918    12A    -11.204744
      13A     -1.274881    14A     -1.155961    15A     -1.071032
      16A     -1.044813    17A     -1.017644    18A     -0.959889
      19A     -0.922246    20A     -0.837710    21A     -0.831560
      22A     -0.768786    23A     -0.745039    24A     -0.707913
      25A     -0.678415    26A     -0.638071    27A     -0.630747
      28A     -0.619612    29A     -0.596405    30A     -0.588122
      31A     -0.576160    32A     -0.556448    33A     -0.547376
      34A     -0.519878    35A     -0.517600    36A     -0.500653
      37A     -0.496440    38A     -0.490785    39A     -0.354683
      40A     -0.341399    41A     -0.334631    42A     -0.279546

  @DF-RHF Final Energy:  -477.53490955829733

   => Energetics <=

    Nuclear Repulsion Energy =            637.1681466694449227
    One-Electron Energy =               -1909.6997232606179296
    Two-Electron Energy =                 794.9966670328756209
    Total Energy =                       -477.5349095582973860
  Basis Set: (AUG-CC-PVTZ AUX)
    Blend: AUG-CC-PVTZ-RI
    Molecular point group: c1

    Geometry (in Angstrom), charge = 0, multiplicity = 1:

       Center              X                  Y                   Z               Mass
    ------------   -----------------  -----------------  -----------------  -----------------
         N           -1.748628989981     0.672485394734     0.206746625938    14.003074004430
         C           -0.853959989981    -0.335645605266    -0.107547374062    12.000000000000
         C            0.600369010019    -0.170703605266    -0.060476374062    12.000000000000
         C           -1.605026989981    -1.459307605266    -0.446237374062    12.000000000000
         C           -3.125398189981     0.169412194734     0.057089525938    12.000000000000
         C           -2.970533989981    -1.118546605266    -0.340132374062    12.000000000000
         C           -1.416761989981     2.007605394734     0.677350625938    12.000000000000
         C            1.246425010019     0.908230394734    -0.688796374062    12.000000000000
         C            1.383191010019    -1.138678605266     0.591728625938    12.000000000000
         C            2.636051010019     1.025076394734    -0.646470374062    12.000000000000
         C            2.773423010019    -1.030933605266     0.613655625938    12.000000000000
         C            3.404398010019     0.055835394734     0.002833625938    12.000000000000
         H           -1.188600989981    -2.406759605266    -0.765817374062     1.007825032230
         H           -3.877843989981     0.843685394734     0.282188625938     1.007825032230
         H           -3.820828989981    -1.757979605266    -0.539476374062     1.007825032230
         H           -2.216783989981     2.351937394734     1.335435625938     1.007825032230
         H           -0.482539989981     1.973029394734     1.238705625938     1.007825032230
         H           -1.309438989981     2.712103394734    -0.152619374062     1.007825032230
         H            0.658094010019     1.638952394734    -1.239741374062     1.007825032230
         H            0.885739010019    -1.969073605266     1.088124625938     1.007825032230
         H            3.121866010019     1.864932394734    -1.138332374062     1.007825032230
         H            3.365546010019    -1.788685605266     1.121917625938     1.007825032230
         H            4.487812010019     0.144642394734     0.028700625938     1.007825032230

  Basis Set: AUG-CC-PVTZ
    Blend: AUG-CC-PVTZ
  Basis Set: (AUG-CC-PVTZ AUX)
    Blend: AUG-CC-PVTZ-JKFIT
	 Reference Energy          =    -477.5349095582973291 [Eh]
	 Singles Energy            =      -0.0000000000000000 [Eh]
	 Same-Spin Energy          =      -0.5387367765771909 [Eh]
	 Opposite-Spin Energy      =      -1.6841269600199631 [Eh]
	 Correlation Energy        =      -2.2228637365971542 [Eh]
	 Total Energy              =    -479.7577732948944913 [Eh]

	 ================> DF-SCS-MP2 Energies <==================
	-----------------------------------------------------------
	 SCS Same-Spin Scale       =       0.3333333333333333 [-]
	 SCS Opposite-Spin Scale   =       1.2000000000000000 [-]
	 SCS Same-Spin Energy      =      -0.1795789255257303 [Eh]
	 SCS Opposite-Spin Energy  =      -2.0209523520239556 [Eh]
	 SCS Correlation Energy    =      -2.2005312775496861 [Eh]
	 SCS Total Energy          =    -479.7354408358470437 [Eh]
	-----------------------------------------------------------

  Dipole Moment: [D]
     X:     0.4776      Y:     1.7358      Z:     0.6363     Total:     1.9095

*** Psi4 exiting successfully. Buy a developer a beer!
