                               Psi4 1.4a3.dev225

  ==> Input File <==

--------------------------------------------------------------------------
#psi4
#
memory 32 gb

molecule  {
0 1
  N       -1.7531090     0.6487580     0.1985890
  C       -0.8584400    -0.3593730    -0.1157050
  C        0.5958890    -0.1944310    -0.0686340
  C       -1.5825552    -1.4427127    -0.4422412
  C       -3.0364380     0.1798280     0.0590890
  C       -2.9750140    -1.1422740    -0.3482900
  C       -1.4212420     1.9838780     0.6691930
  C        1.2419450     0.8845030    -0.6969540
  C        1.3787110    -1.1624060     0.5835710
  C        2.6315710     1.0013490    -0.6546280
  C        2.7689430    -1.0546610     0.6054980
  C        3.3999180     0.0321080    -0.0053240
  H       -1.1930810    -2.4304870    -0.7739750
  H       -3.8823240     0.8199580     0.2740310
  H       -3.8253090    -1.7817070    -0.5476340
  H       -2.2212640     2.3282100     1.3272780
  H       -0.4870200     1.9493020     1.2305480
  H       -1.3139190     2.6883760    -0.1607770
  H        0.6536140     1.6152250    -1.2478990
  H        0.8812590    -1.9928010     1.0799670
  H        3.1173860     1.8412050    -1.1464900
  H        3.3610660    -1.8124130     1.1137600
  H        4.4833320     0.1209150     0.0205430
units angstrom
no_reorient  #important for SAPT in psi4, default
symmetry c1  #important for SAPT in psi4, default
}

set PROPERTIES_ORIGIN ["COM"]
properties('MP2/aug-cc-pvtz', properties = ['dipole'])
--------------------------------------------------------------------------

    Molecular point group: c1
  Charge       = 0
  Multiplicity = 1
  Basis Set: AUG-CC-PVTZ
    Blend: AUG-CC-PVTZ
  Basis Set: (AUG-CC-PVTZ AUX)
    Blend: AUG-CC-PVTZ-JKFIT

    Orbital Energies [Eh]
    ---------------------

    Doubly Occupied:

       1A    -15.603173     2A    -11.269333     3A    -11.250895
       4A    -11.250088     5A    -11.249800     6A    -11.240685
       7A    -11.239557     8A    -11.239233     9A    -11.237988
      10A    -11.237093    11A    -11.208015    12A    -11.205205
      13A     -1.299902    14A     -1.155132    15A     -1.075351
      16A     -1.044146    17A     -1.016156    18A     -0.960060
      19A     -0.929726    20A     -0.833402    21A     -0.830757
      22A     -0.772032    23A     -0.741662    24A     -0.711208
      25A     -0.678102    26A     -0.639769    27A     -0.631628
      28A     -0.622178    29A     -0.596060    30A     -0.587079
      31A     -0.571140    32A     -0.566809    33A     -0.539448
      34A     -0.527267    35A     -0.518446    36A     -0.502024
      37A     -0.495103    38A     -0.491618    39A     -0.355625
      40A     -0.340002    41A     -0.332740    42A     -0.281163

  @DF-RHF Final Energy:  -477.54479605320131

   => Energetics <=

    Nuclear Repulsion Energy =            640.0068580379006562
    One-Electron Energy =               -1915.3497113574674131
    Two-Electron Energy =                 797.7980572663655039
    Total Energy =                       -477.5447960532012530
  Basis Set: (AUG-CC-PVTZ AUX)
    Blend: AUG-CC-PVTZ-RI
    Molecular point group: c1

    Geometry (in Angstrom), charge = 0, multiplicity = 1:

       Center              X                  Y                   Z               Mass
    ------------   -----------------  -----------------  -----------------  -----------------
         N           -1.757825704113     0.666796994207     0.205042301985    14.003074004430
         C           -0.863156704113    -0.341334005793    -0.109251698015    12.000000000000
         C            0.591172295887    -0.176392005793    -0.062180698015    12.000000000000
         C           -1.587271904113    -1.424673705793    -0.435787898015    12.000000000000
         C           -3.041154704113     0.197866994207     0.065542301985    12.000000000000
         C           -2.979730704113    -1.124235005793    -0.341836698015    12.000000000000
         C           -1.425958704113     2.001916994207     0.675646301985    12.000000000000
         C            1.237228295887     0.902541994207    -0.690500698015    12.000000000000
         C            1.373994295887    -1.144367005793     0.590024301985    12.000000000000
         C            2.626854295887     1.019387994207    -0.648174698015    12.000000000000
         C            2.764226295887    -1.036622005793     0.611951301985    12.000000000000
         C            3.395201295887     0.050146994207     0.001129301985    12.000000000000
         H           -1.197797704113    -2.412448005793    -0.767521698015     1.007825032230
         H           -3.887040704113     0.837996994207     0.280484301985     1.007825032230
         H           -3.830025704113    -1.763668005793    -0.541180698015     1.007825032230
         H           -2.225980704113     2.346248994207     1.333731301985     1.007825032230
         H           -0.491736704113     1.967340994207     1.237001301985     1.007825032230
         H           -1.318635704113     2.706414994207    -0.154323698015     1.007825032230
         H            0.648897295887     1.633263994207    -1.241445698015     1.007825032230
         H            0.876542295887    -1.974762005793     1.086420301985     1.007825032230
         H            3.112669295887     1.859243994207    -1.140036698015     1.007825032230
         H            3.356349295887    -1.794374005793     1.120213301985     1.007825032230
         H            4.478615295887     0.138953994207     0.026996301985     1.007825032230

  Basis Set: AUG-CC-PVTZ
    Blend: AUG-CC-PVTZ
  Basis Set: (AUG-CC-PVTZ AUX)
    Blend: AUG-CC-PVTZ-JKFIT
	 Reference Energy          =    -477.5447960532013099 [Eh]
	 Singles Energy            =      -0.0000000000000000 [Eh]
	 Same-Spin Energy          =      -0.5383681552339489 [Eh]
	 Opposite-Spin Energy      =      -1.6821647934323070 [Eh]
	 Correlation Energy        =      -2.2205329486662557 [Eh]
	 Total Energy              =    -479.7653290018675420 [Eh]

	 ================> DF-SCS-MP2 Energies <==================
	-----------------------------------------------------------
	 SCS Same-Spin Scale       =       0.3333333333333333 [-]
	 SCS Opposite-Spin Scale   =       1.2000000000000000 [-]
	 SCS Same-Spin Energy      =      -0.1794560517446496 [Eh]
	 SCS Opposite-Spin Energy  =      -2.0185977521187684 [Eh]
	 SCS Correlation Energy    =      -2.1980538038634179 [Eh]
	 SCS Total Energy          =    -479.7428498570647548 [Eh]
	-----------------------------------------------------------

  Dipole Moment: [D]
     X:     0.4993      Y:     1.8232      Z:     0.6689     Total:     2.0052

*** Psi4 exiting successfully. Buy a developer a beer!
