                               Psi4 1.3.2 release

  ==> Input File <==

--------------------------------------------------------------------------
#psi4
#
memory 32 gb

molecule  {
0 1
  N       -1.7531090     0.6487580     0.1985890
  C       -0.8470426    -0.4441590    -0.0597659
  C        0.5958890    -0.1944310    -0.0686340
  C       -1.6095070    -1.4830350    -0.4543950
  C       -3.0364380     0.1798280     0.0590890
  C       -2.9750140    -1.1422740    -0.3482900
  C       -1.4212420     1.9838780     0.6691930
  C        1.2419450     0.8845030    -0.6969540
  C        1.3787110    -1.1624060     0.5835710
  C        2.6315710     1.0013490    -0.6546280
  C        2.7689430    -1.0546610     0.6054980
  C        3.3999180     0.0321080    -0.0053240
  H       -1.1930810    -2.4304870    -0.7739750
  H       -3.8823240     0.8199580     0.2740310
  H       -3.8253090    -1.7817070    -0.5476340
  H       -2.2212640     2.3282100     1.3272780
  H       -0.4870200     1.9493020     1.2305480
  H       -1.3139190     2.6883760    -0.1607770
  H        0.6536140     1.6152250    -1.2478990
  H        0.8812590    -1.9928010     1.0799670
  H        3.1173860     1.8412050    -1.1464900
  H        3.3610660    -1.8124130     1.1137600
  H        4.4833320     0.1209150     0.0205430
units angstrom
no_reorient  #important for SAPT in psi4, default
symmetry c1  #important for SAPT in psi4, default
}

set PROPERTIES_ORIGIN ["COM"]
properties('MP2/aug-cc-pvtz', properties = ['dipole'])
--------------------------------------------------------------------------

    Molecular point group: c1
  Charge       = 0
  Multiplicity = 1
  Basis Set: AUG-CC-PVTZ
    Blend: AUG-CC-PVTZ
  Basis Set: (AUG-CC-PVTZ AUX)
    Blend: AUG-CC-PVTZ-JKFIT

    Orbital Energies [Eh]
    ---------------------

    Doubly Occupied:

       1A    -15.600859     2A    -11.267802     3A    -11.255360
       4A    -11.253255     5A    -11.250154     6A    -11.241441
       7A    -11.240253     8A    -11.238673     9A    -11.237471
      10A    -11.235419    11A    -11.208048    12A    -11.206409
      13A     -1.285094    14A     -1.154965    15A     -1.077207
      16A     -1.043078    17A     -1.015941    18A     -0.957589
      19A     -0.927840    20A     -0.833994    21A     -0.829675
      22A     -0.768293    23A     -0.743591    24A     -0.710429
      25A     -0.677322    26A     -0.636251    27A     -0.630623
      28A     -0.621529    29A     -0.594250    30A     -0.586557
      31A     -0.574070    32A     -0.560324    33A     -0.541762
      34A     -0.525651    35A     -0.521403    36A     -0.500138
      37A     -0.498291    38A     -0.488161    39A     -0.357870
      40A     -0.339868    41A     -0.333807    42A     -0.279055

  @DF-RHF Final Energy:  -477.53948494357758

   => Energetics <=

    Nuclear Repulsion Energy =            638.6160030658732012
    One-Electron Energy =               -1912.6114338474037595
    Two-Electron Energy =                 796.4559458379529815
    Total Energy =                       -477.5394849435775768
  Basis Set: (AUG-CC-PVTZ AUX)
    Blend: AUG-CC-PVTZ-RI
    Molecular point group: c1

    Geometry (in Angstrom), charge = 0, multiplicity = 1:

       Center              X                  Y                   Z               Mass
    ------------   -----------------  -----------------  -----------------  -----------------
         N           -1.756637507470     0.676353985292     0.201697554101    14.003074004430
         C           -0.850571107470    -0.416563014708    -0.056657345899    12.000000000000
         C            0.592360492530    -0.166835014708    -0.065525445899    12.000000000000
         C           -1.613035507470    -1.455439014708    -0.451286445899    12.000000000000
         C           -3.039966507470     0.207423985292     0.062197554101    12.000000000000
         C           -2.978542507470    -1.114678014708    -0.345181445899    12.000000000000
         C           -1.424770507470     2.011473985292     0.672301554101    12.000000000000
         C            1.238416492530     0.912098985292    -0.693845445899    12.000000000000
         C            1.375182492530    -1.134810014708     0.586679554101    12.000000000000
         C            2.628042492530     1.028944985292    -0.651519445899    12.000000000000
         C            2.765414492530    -1.027065014708     0.608606554101    12.000000000000
         C            3.396389492530     0.059703985292    -0.002215445899    12.000000000000
         H           -1.196609507470    -2.402891014708    -0.770866445899     1.007825032230
         H           -3.885852507470     0.847553985292     0.277139554101     1.007825032230
         H           -3.828837507470    -1.754111014708    -0.544525445899     1.007825032230
         H           -2.224792507470     2.355805985292     1.330386554101     1.007825032230
         H           -0.490548507470     1.976897985292     1.233656554101     1.007825032230
         H           -1.317447507470     2.715971985292    -0.157668445899     1.007825032230
         H            0.650085492530     1.642820985292    -1.244790445899     1.007825032230
         H            0.877730492530    -1.965205014708     1.083075554101     1.007825032230
         H            3.113857492530     1.868800985292    -1.143381445899     1.007825032230
         H            3.357537492530    -1.784817014708     1.116868554101     1.007825032230
         H            4.479803492530     0.148510985292     0.023651554101     1.007825032230

  Basis Set: AUG-CC-PVTZ
    Blend: AUG-CC-PVTZ
  Basis Set: (AUG-CC-PVTZ AUX)
    Blend: AUG-CC-PVTZ-JKFIT
	 Reference Energy          =    -477.5394849435775768 [Eh]
	 Singles Energy            =      -0.0000000000000000 [Eh]
	 Same-Spin Energy          =      -0.5387298874647571 [Eh]
	 Opposite-Spin Energy      =      -1.6834309431338073 [Eh]
	 Correlation Energy        =      -2.2221608305985643 [Eh]
	 Total Energy              =    -479.7616457741761451 [Eh]

	 ================> DF-SCS-MP2 Energies <==================
	-----------------------------------------------------------
	 SCS Same-Spin Scale       =       0.3333333333333333 [-]
	 SCS Opposite-Spin Scale   =       1.2000000000000000 [-]
	 SCS Same-Spin Energy      =      -0.1795766291549190 [Eh]
	 SCS Opposite-Spin Energy  =      -2.0201171317605686 [Eh]
	 SCS Correlation Energy    =      -2.1996937609154879 [Eh]
	 SCS Total Energy          =    -479.7391787044930425 [Eh]
	-----------------------------------------------------------

  Dipole Moment: [D]
     X:     0.5015      Y:     1.7499      Z:     0.6090     Total:     1.9195

*** Psi4 exiting successfully. Buy a developer a beer!
