                               Psi4 1.4a3.dev225

  ==> Input File <==

--------------------------------------------------------------------------
#psi4
#
memory 32 gb

molecule  {
0 1
  N       -1.7531090     0.6487580     0.1985890
  C       -0.8584400    -0.3593730    -0.1157050
  C        0.5958890    -0.1944310    -0.0686340
  C       -1.6202877    -1.4991639    -0.4592565
  C       -3.0364380     0.1798280     0.0590890
  C       -2.9750140    -1.1422740    -0.3482900
  C       -1.4212420     1.9838780     0.6691930
  C        1.2419450     0.8845030    -0.6969540
  C        1.3787110    -1.1624060     0.5835710
  C        2.6315710     1.0013490    -0.6546280
  C        2.7689430    -1.0546610     0.6054980
  C        3.3999180     0.0321080    -0.0053240
  H       -1.1930810    -2.4304870    -0.7739750
  H       -3.8823240     0.8199580     0.2740310
  H       -3.8253090    -1.7817070    -0.5476340
  H       -2.2212640     2.3282100     1.3272780
  H       -0.4870200     1.9493020     1.2305480
  H       -1.3139190     2.6883760    -0.1607770
  H        0.6536140     1.6152250    -1.2478990
  H        0.8812590    -1.9928010     1.0799670
  H        3.1173860     1.8412050    -1.1464900
  H        3.3610660    -1.8124130     1.1137600
  H        4.4833320     0.1209150     0.0205430
units angstrom
no_reorient  #important for SAPT in psi4, default
symmetry c1  #important for SAPT in psi4, default
}

set PROPERTIES_ORIGIN ["COM"]
properties('MP2/aug-cc-pvtz', properties = ['dipole'])
--------------------------------------------------------------------------

    Molecular point group: c1
  Charge       = 0
  Multiplicity = 1
  Basis Set: AUG-CC-PVTZ
    Blend: AUG-CC-PVTZ
  Basis Set: (AUG-CC-PVTZ AUX)
    Blend: AUG-CC-PVTZ-JKFIT

    Orbital Energies [Eh]
    ---------------------

    Doubly Occupied:

       1A    -15.609379     2A    -11.271206     3A    -11.258589
       4A    -11.250269     5A    -11.247940     6A    -11.240739
       7A    -11.239576     8A    -11.239275     9A    -11.237948
      10A    -11.237042    11A    -11.208723    12A    -11.207562
      13A     -1.298583    14A     -1.155064    15A     -1.072781
      16A     -1.043826    17A     -1.016197    18A     -0.954467
      19A     -0.934809    20A     -0.833319    21A     -0.830551
      22A     -0.770676    23A     -0.743466    24A     -0.712553
      25A     -0.677844    26A     -0.640169    27A     -0.632336
      28A     -0.622616    29A     -0.597061    30A     -0.587231
      31A     -0.570926    32A     -0.567409    33A     -0.539193
      34A     -0.527700    35A     -0.523494    36A     -0.502248
      37A     -0.494265    38A     -0.491674    39A     -0.353425
      40A     -0.340465    41A     -0.336324    42A     -0.272788

  @DF-RHF Final Energy:  -477.54465909757477

   => Energetics <=

    Nuclear Repulsion Energy =            638.6691326291637552
    One-Electron Energy =               -1912.6441736078274971
    Two-Electron Energy =                 796.4303818810890334
    Total Energy =                       -477.5446590975748222
  Basis Set: (AUG-CC-PVTZ AUX)
    Blend: AUG-CC-PVTZ-RI
    Molecular point group: c1

    Geometry (in Angstrom), charge = 0, multiplicity = 1:

       Center              X                  Y                   Z               Mass
    ------------   -----------------  -----------------  -----------------  -----------------
         N           -1.754943328075     0.671109286957     0.206342096407    14.003074004430
         C           -0.860274328075    -0.337021713043    -0.107951903593    12.000000000000
         C            0.594054671925    -0.172079713043    -0.060880903593    12.000000000000
         C           -1.622122028075    -1.476812613043    -0.451503403593    12.000000000000
         C           -3.038272328075     0.202179286957     0.066842096407    12.000000000000
         C           -2.976848328075    -1.119922713043    -0.340536903593    12.000000000000
         C           -1.423076328075     2.006229286957     0.676946096407    12.000000000000
         C            1.240110671925     0.906854286957    -0.689200903593    12.000000000000
         C            1.376876671925    -1.140054713043     0.591324096407    12.000000000000
         C            2.629736671925     1.023700286957    -0.646874903593    12.000000000000
         C            2.767108671925    -1.032309713043     0.613251096407    12.000000000000
         C            3.398083671925     0.054459286957     0.002429096407    12.000000000000
         H           -1.194915328075    -2.408135713043    -0.766221903593     1.007825032230
         H           -3.884158328075     0.842309286957     0.281784096407     1.007825032230
         H           -3.827143328075    -1.759355713043    -0.539880903593     1.007825032230
         H           -2.223098328075     2.350561286957     1.335031096407     1.007825032230
         H           -0.488854328075     1.971653286957     1.238301096407     1.007825032230
         H           -1.315753328075     2.710727286957    -0.153023903593     1.007825032230
         H            0.651779671925     1.637576286957    -1.240145903593     1.007825032230
         H            0.879424671925    -1.970449713043     1.087720096407     1.007825032230
         H            3.115551671925     1.863556286957    -1.138736903593     1.007825032230
         H            3.359231671925    -1.790061713043     1.121513096407     1.007825032230
         H            4.481497671925     0.143266286957     0.028296096407     1.007825032230

  Basis Set: AUG-CC-PVTZ
    Blend: AUG-CC-PVTZ
  Basis Set: (AUG-CC-PVTZ AUX)
    Blend: AUG-CC-PVTZ-JKFIT
	 Reference Energy          =    -477.5446590975747654 [Eh]
	 Singles Energy            =      -0.0000000000000000 [Eh]
	 Same-Spin Energy          =      -0.5395112595756707 [Eh]
	 Opposite-Spin Energy      =      -1.6837095472039207 [Eh]
	 Correlation Energy        =      -2.2232208067795916 [Eh]
	 Total Energy              =    -479.7678799043543449 [Eh]

	 ================> DF-SCS-MP2 Energies <==================
	-----------------------------------------------------------
	 SCS Same-Spin Scale       =       0.3333333333333333 [-]
	 SCS Opposite-Spin Scale   =       1.2000000000000000 [-]
	 SCS Same-Spin Energy      =      -0.1798370865252236 [Eh]
	 SCS Opposite-Spin Energy  =      -2.0204514566447047 [Eh]
	 SCS Correlation Energy    =      -2.2002885431699282 [Eh]
	 SCS Total Energy          =    -479.7449476407446696 [Eh]
	-----------------------------------------------------------

  Dipole Moment: [D]
     X:     0.4570      Y:     1.8724      Z:     0.6797     Total:     2.0437

*** Psi4 exiting successfully. Buy a developer a beer!
