                               Psi4 1.3.2 release

  ==> Input File <==

--------------------------------------------------------------------------
#psi4
#
memory 32 gb

molecule  {
0 1
  N       -1.7531090     0.6487580     0.1985890
  C       -0.8584400    -0.3593730    -0.1157050
  C        0.5958890    -0.1944310    -0.0686340
  C       -1.5016998    -1.3217459    -0.4057798
  C       -3.0364380     0.1798280     0.0590890
  C       -2.9750140    -1.1422740    -0.3482900
  C       -1.4212420     1.9838780     0.6691930
  C        1.2419450     0.8845030    -0.6969540
  C        1.3787110    -1.1624060     0.5835710
  C        2.6315710     1.0013490    -0.6546280
  C        2.7689430    -1.0546610     0.6054980
  C        3.3999180     0.0321080    -0.0053240
  H       -1.1930810    -2.4304870    -0.7739750
  H       -3.8823240     0.8199580     0.2740310
  H       -3.8253090    -1.7817070    -0.5476340
  H       -2.2212640     2.3282100     1.3272780
  H       -0.4870200     1.9493020     1.2305480
  H       -1.3139190     2.6883760    -0.1607770
  H        0.6536140     1.6152250    -1.2478990
  H        0.8812590    -1.9928010     1.0799670
  H        3.1173860     1.8412050    -1.1464900
  H        3.3610660    -1.8124130     1.1137600
  H        4.4833320     0.1209150     0.0205430
units angstrom
no_reorient  #important for SAPT in psi4, default
symmetry c1  #important for SAPT in psi4, default
}

set PROPERTIES_ORIGIN ["COM"]
properties('MP2/aug-cc-pvtz', properties = ['dipole'])
--------------------------------------------------------------------------

    Molecular point group: c1
  Charge       = 0
  Multiplicity = 1
  Basis Set: AUG-CC-PVTZ
    Blend: AUG-CC-PVTZ
  Basis Set: (AUG-CC-PVTZ AUX)
    Blend: AUG-CC-PVTZ-JKFIT

    Orbital Energies [Eh]
    ---------------------

    Doubly Occupied:

       1A    -15.590674     2A    -11.265557     3A    -11.254712
       4A    -11.249595     5A    -11.240766     6A    -11.239730
       7A    -11.239352     8A    -11.238258     9A    -11.237436
      10A    -11.230634    11A    -11.208889    12A    -11.199104
      13A     -1.306090    14A     -1.155723    15A     -1.087371
      16A     -1.043965    17A     -1.016265    18A     -0.974341
      19A     -0.918948    20A     -0.834819    21A     -0.831439
      22A     -0.780611    23A     -0.736279    24A     -0.704028
      25A     -0.679342    26A     -0.640813    27A     -0.632411
      28A     -0.621050    29A     -0.594998    30A     -0.587126
      31A     -0.582222    32A     -0.559888    33A     -0.544505
      34A     -0.534227    35A     -0.507564    36A     -0.501843
      37A     -0.492681    38A     -0.466741    39A     -0.365115
      40A     -0.339753    41A     -0.327513    42A     -0.297354

  @DF-RHF Final Energy:  -477.48995763003387

   => Energetics <=

    Nuclear Repulsion Energy =            643.1578450035085552
    One-Electron Energy =               -1921.5761415346908052
    Two-Electron Energy =                 800.9283389011484360
    Total Energy =                       -477.4899576300338140
  Basis Set: (AUG-CC-PVTZ AUX)
    Blend: AUG-CC-PVTZ-RI
    Molecular point group: c1

    Geometry (in Angstrom), charge = 0, multiplicity = 1:

       Center              X                  Y                   Z               Mass
    ------------   -----------------  -----------------  -----------------  -----------------
         N           -1.764002227469     0.657556371249     0.202257024951    14.003074004430
         C           -0.869333227469    -0.350574628751    -0.112036975049    12.000000000000
         C            0.584995772531    -0.185632628751    -0.064965975049    12.000000000000
         C           -1.512593027469    -1.312947528751    -0.402111775049    12.000000000000
         C           -3.047331227469     0.188626371249     0.062757024951    12.000000000000
         C           -2.985907227469    -1.133475628751    -0.344621975049    12.000000000000
         C           -1.432135227469     1.992676371249     0.672861024951    12.000000000000
         C            1.231051772531     0.893301371249    -0.693285975049    12.000000000000
         C            1.367817772531    -1.153607628751     0.587239024951    12.000000000000
         C            2.620677772531     1.010147371249    -0.650959975049    12.000000000000
         C            2.758049772531    -1.045862628751     0.609166024951    12.000000000000
         C            3.389024772531     0.040906371249    -0.001655975049    12.000000000000
         H           -1.203974227469    -2.421688628751    -0.770306975049     1.007825032230
         H           -3.893217227469     0.828756371249     0.277699024951     1.007825032230
         H           -3.836202227469    -1.772908628751    -0.543965975049     1.007825032230
         H           -2.232157227469     2.337008371249     1.330946024951     1.007825032230
         H           -0.497913227469     1.958100371249     1.234216024951     1.007825032230
         H           -1.324812227469     2.697174371249    -0.157108975049     1.007825032230
         H            0.642720772531     1.624023371249    -1.244230975049     1.007825032230
         H            0.870365772531    -1.984002628751     1.083635024951     1.007825032230
         H            3.106492772531     1.850003371249    -1.142821975049     1.007825032230
         H            3.350172772531    -1.803614628751     1.117428024951     1.007825032230
         H            4.472438772531     0.129713371249     0.024211024951     1.007825032230

  Basis Set: AUG-CC-PVTZ
    Blend: AUG-CC-PVTZ
  Basis Set: (AUG-CC-PVTZ AUX)
    Blend: AUG-CC-PVTZ-JKFIT
	 Reference Energy          =    -477.4899576300338708 [Eh]
	 Singles Energy            =      -0.0000000000000000 [Eh]
	 Same-Spin Energy          =      -0.5365463559999980 [Eh]
	 Opposite-Spin Energy      =      -1.6805619136123371 [Eh]
	 Correlation Energy        =      -2.2171082696123352 [Eh]
	 Total Energy              =    -479.7070658996461816 [Eh]

	 ================> DF-SCS-MP2 Energies <==================
	-----------------------------------------------------------
	 SCS Same-Spin Scale       =       0.3333333333333333 [-]
	 SCS Opposite-Spin Scale   =       1.2000000000000000 [-]
	 SCS Same-Spin Energy      =      -0.1788487853333326 [Eh]
	 SCS Opposite-Spin Energy  =      -2.0166742963348043 [Eh]
	 SCS Correlation Energy    =      -2.1955230816681368 [Eh]
	 SCS Total Energy          =    -479.6854807117019845 [Eh]
	-----------------------------------------------------------

  Dipole Moment: [D]
     X:     0.5696      Y:     1.7110      Z:     0.6427     Total:     1.9144

*** Psi4 exiting successfully. Buy a developer a beer!
