                               Psi4 1.3.2 release

  ==> Input File <==

--------------------------------------------------------------------------
#psi4
#
memory 32 gb

molecule  {
0 1
  N       -1.7531090     0.6487580     0.1985890
  C       -0.8584400    -0.3593730    -0.1157050
  C        0.6395698    -0.2103022    -0.0528899
  C       -1.6095070    -1.4830350    -0.4543950
  C       -3.0364380     0.1798280     0.0590890
  C       -2.9750140    -1.1422740    -0.3482900
  C       -1.4212420     1.9838780     0.6691930
  C        1.2419450     0.8845030    -0.6969540
  C        1.3787110    -1.1624060     0.5835710
  C        2.6315710     1.0013490    -0.6546280
  C        2.7689430    -1.0546610     0.6054980
  C        3.3999180     0.0321080    -0.0053240
  H       -1.1930810    -2.4304870    -0.7739750
  H       -3.8823240     0.8199580     0.2740310
  H       -3.8253090    -1.7817070    -0.5476340
  H       -2.2212640     2.3282100     1.3272780
  H       -0.4870200     1.9493020     1.2305480
  H       -1.3139190     2.6883760    -0.1607770
  H        0.6536140     1.6152250    -1.2478990
  H        0.8812590    -1.9928010     1.0799670
  H        3.1173860     1.8412050    -1.1464900
  H        3.3610660    -1.8124130     1.1137600
  H        4.4833320     0.1209150     0.0205430
units angstrom
no_reorient  #important for SAPT in psi4, default
symmetry c1  #important for SAPT in psi4, default
}

set PROPERTIES_ORIGIN ["COM"]
properties('MP2/aug-cc-pvtz', properties = ['dipole'])
--------------------------------------------------------------------------

    Molecular point group: c1
  Charge       = 0
  Multiplicity = 1
  Basis Set: AUG-CC-PVTZ
    Blend: AUG-CC-PVTZ
  Basis Set: (AUG-CC-PVTZ AUX)
    Blend: AUG-CC-PVTZ-JKFIT

    Orbital Energies [Eh]
    ---------------------

    Doubly Occupied:

       1A    -15.607058     2A    -11.270415     3A    -11.257764
       4A    -11.249069     5A    -11.247202     6A    -11.241069
       7A    -11.239969     8A    -11.239627     9A    -11.237886
      10A    -11.232940    11A    -11.207216    12A    -11.205284
      13A     -1.297362    14A     -1.159641    15A     -1.072103
      16A     -1.041173    17A     -1.018870    18A     -0.955851
      19A     -0.932620    20A     -0.834476    21A     -0.828990
      22A     -0.769392    23A     -0.742132    24A     -0.711821
      25A     -0.676622    26A     -0.639781    27A     -0.631360
      28A     -0.624386    29A     -0.597967    30A     -0.588719
      31A     -0.568884    32A     -0.566679    33A     -0.537010
      34A     -0.526161    35A     -0.522815    36A     -0.504310
      37A     -0.497752    38A     -0.487931    39A     -0.354557
      40A     -0.341134    41A     -0.334382    42A     -0.276768

  @DF-RHF Final Energy:  -477.54445225464724

   => Energetics <=

    Nuclear Repulsion Energy =            638.9966586319360431
    One-Electron Energy =               -1913.3279237549136269
    Two-Electron Energy =                 796.7868128683303439
    Total Energy =                       -477.5444522546472399
  Basis Set: (AUG-CC-PVTZ AUX)
    Blend: AUG-CC-PVTZ-RI
    Molecular point group: c1

    Geometry (in Angstrom), charge = 0, multiplicity = 1:

       Center              X                  Y                   Z               Mass
    ------------   -----------------  -----------------  -----------------  -----------------
         N           -1.759103628151     0.671089601320     0.204768039885    14.003074004430
         C           -0.864434628151    -0.337041398680    -0.109525960115    12.000000000000
         C            0.633575171849    -0.187970598680    -0.046710860115    12.000000000000
         C           -1.615501628151    -1.460703398680    -0.448215960115    12.000000000000
         C           -3.042432628151     0.202159601320     0.065268039885    12.000000000000
         C           -2.981008628151    -1.119942398680    -0.342110960115    12.000000000000
         C           -1.427236628151     2.006209601320     0.675372039885    12.000000000000
         C            1.235950371849     0.906834601320    -0.690774960115    12.000000000000
         C            1.372716371849    -1.140074398680     0.589750039885    12.000000000000
         C            2.625576371849     1.023680601320    -0.648448960115    12.000000000000
         C            2.762948371849    -1.032329398680     0.611677039885    12.000000000000
         C            3.393923371849     0.054439601320     0.000855039885    12.000000000000
         H           -1.199075628151    -2.408155398680    -0.767795960115     1.007825032230
         H           -3.888318628151     0.842289601320     0.280210039885     1.007825032230
         H           -3.831303628151    -1.759375398680    -0.541454960115     1.007825032230
         H           -2.227258628151     2.350541601320     1.333457039885     1.007825032230
         H           -0.493014628151     1.971633601320     1.236727039885     1.007825032230
         H           -1.319913628151     2.710707601320    -0.154597960115     1.007825032230
         H            0.647619371849     1.637556601320    -1.241719960115     1.007825032230
         H            0.875264371849    -1.970469398680     1.086146039885     1.007825032230
         H            3.111391371849     1.863536601320    -1.140310960115     1.007825032230
         H            3.355071371849    -1.790081398680     1.119939039885     1.007825032230
         H            4.477337371849     0.143246601320     0.026722039885     1.007825032230

  Basis Set: AUG-CC-PVTZ
    Blend: AUG-CC-PVTZ
  Basis Set: (AUG-CC-PVTZ AUX)
    Blend: AUG-CC-PVTZ-JKFIT
	 Reference Energy          =    -477.5444522546472399 [Eh]
	 Singles Energy            =      -0.0000000000000000 [Eh]
	 Same-Spin Energy          =      -0.5385677023489488 [Eh]
	 Opposite-Spin Energy      =      -1.6824243522889955 [Eh]
	 Correlation Energy        =      -2.2209920546379442 [Eh]
	 Total Energy              =    -479.7654443092851579 [Eh]

	 ================> DF-SCS-MP2 Energies <==================
	-----------------------------------------------------------
	 SCS Same-Spin Scale       =       0.3333333333333333 [-]
	 SCS Opposite-Spin Scale   =       1.2000000000000000 [-]
	 SCS Same-Spin Energy      =      -0.1795225674496496 [Eh]
	 SCS Opposite-Spin Energy  =      -2.0189092227467946 [Eh]
	 SCS Correlation Energy    =      -2.1984317901964441 [Eh]
	 SCS Total Energy          =    -479.7428840448436631 [Eh]
	-----------------------------------------------------------

  Dipole Moment: [D]
     X:     0.5890      Y:     1.8704      Z:     0.6871     Total:     2.0778

*** Psi4 exiting successfully. Buy a developer a beer!
