                               Psi4 1.3.2 release

  ==> Input File <==

--------------------------------------------------------------------------
#psi4
#
memory 32 gb

molecule  {
0 1
  N       -1.7531090     0.6487580     0.1985890
  C       -0.8584400    -0.3593730    -0.1157050
  C        0.5958890    -0.1944310    -0.0686340
  C       -1.6095070    -1.4830350    -0.4543950
  C       -3.0364380     0.1798280     0.0590890
  C       -2.8786804    -1.1343694    -0.3479514
  C       -1.4212420     1.9838780     0.6691930
  C        1.2419450     0.8845030    -0.6969540
  C        1.3787110    -1.1624060     0.5835710
  C        2.6315710     1.0013490    -0.6546280
  C        2.7689430    -1.0546610     0.6054980
  C        3.3999180     0.0321080    -0.0053240
  H       -1.1930810    -2.4304870    -0.7739750
  H       -3.8823240     0.8199580     0.2740310
  H       -3.8253090    -1.7817070    -0.5476340
  H       -2.2212640     2.3282100     1.3272780
  H       -0.4870200     1.9493020     1.2305480
  H       -1.3139190     2.6883760    -0.1607770
  H        0.6536140     1.6152250    -1.2478990
  H        0.8812590    -1.9928010     1.0799670
  H        3.1173860     1.8412050    -1.1464900
  H        3.3610660    -1.8124130     1.1137600
  H        4.4833320     0.1209150     0.0205430
units angstrom
no_reorient  #important for SAPT in psi4, default
symmetry c1  #important for SAPT in psi4, default
}

set PROPERTIES_ORIGIN ["COM"]
properties('MP2/aug-cc-pvtz', properties = ['dipole'])
--------------------------------------------------------------------------

    Molecular point group: c1
  Charge       = 0
  Multiplicity = 1
  Basis Set: AUG-CC-PVTZ
    Blend: AUG-CC-PVTZ
  Basis Set: (AUG-CC-PVTZ AUX)
    Blend: AUG-CC-PVTZ-JKFIT

    Orbital Energies [Eh]
    ---------------------

    Doubly Occupied:

       1A    -15.610590     2A    -11.270616     3A    -11.254935
       4A    -11.249637     5A    -11.243853     6A    -11.240405
       7A    -11.239306     8A    -11.238863     9A    -11.237579
      10A    -11.236752    11A    -11.206145    12A    -11.198791
      13A     -1.303593    14A     -1.154775    15A     -1.086566
      16A     -1.043846    17A     -1.015972    18A     -0.954754
      19A     -0.939244    20A     -0.833463    21A     -0.829855
      22A     -0.763598    23A     -0.747272    24A     -0.711957
      25A     -0.677766    26A     -0.640719    27A     -0.632589
      28A     -0.621973    29A     -0.593983    30A     -0.587000
      31A     -0.571522    32A     -0.563484    33A     -0.555969
      34A     -0.528991    35A     -0.509254    36A     -0.502146
      37A     -0.493821    38A     -0.489837    39A     -0.353518
      40A     -0.347662    41A     -0.339371    42A     -0.269890

  @DF-RHF Final Energy:  -477.53090437958190

   => Energetics <=

    Nuclear Repulsion Energy =            641.0075232795466036
    One-Electron Energy =               -1917.2931337315876590
    Two-Electron Energy =                 798.7547060724591574
    Total Energy =                       -477.5309043795818980
  Basis Set: (AUG-CC-PVTZ AUX)
    Blend: AUG-CC-PVTZ-RI
    Molecular point group: c1

    Geometry (in Angstrom), charge = 0, multiplicity = 1:

       Center              X                  Y                   Z               Mass
    ------------   -----------------  -----------------  -----------------  -----------------
         N           -1.763125762096     0.669273374030     0.205944862096    14.003074004430
         C           -0.868456762096    -0.338857625970    -0.108349137904    12.000000000000
         C            0.585872237904    -0.173915625970    -0.061278137904    12.000000000000
         C           -1.619523762096    -1.462519625970    -0.447039137904    12.000000000000
         C           -3.046454762096     0.200343374030     0.066444862096    12.000000000000
         C           -2.888697162096    -1.113854025970    -0.340595537904    12.000000000000
         C           -1.431258762096     2.004393374030     0.676548862096    12.000000000000
         C            1.231928237904     0.905018374030    -0.689598137904    12.000000000000
         C            1.368694237904    -1.141890625970     0.590926862096    12.000000000000
         C            2.621554237904     1.021864374030    -0.647272137904    12.000000000000
         C            2.758926237904    -1.034145625970     0.612853862096    12.000000000000
         C            3.389901237904     0.052623374030     0.002031862096    12.000000000000
         H           -1.203097762096    -2.409971625970    -0.766619137904     1.007825032230
         H           -3.892340762096     0.840473374030     0.281386862096     1.007825032230
         H           -3.835325762096    -1.761191625970    -0.540278137904     1.007825032230
         H           -2.231280762096     2.348725374030     1.334633862096     1.007825032230
         H           -0.497036762096     1.969817374030     1.237903862096     1.007825032230
         H           -1.323935762096     2.708891374030    -0.153421137904     1.007825032230
         H            0.643597237904     1.635740374030    -1.240543137904     1.007825032230
         H            0.871242237904    -1.972285625970     1.087322862096     1.007825032230
         H            3.107369237904     1.861720374030    -1.139134137904     1.007825032230
         H            3.351049237904    -1.791897625970     1.121115862096     1.007825032230
         H            4.473315237904     0.141430374030     0.027898862096     1.007825032230

  Basis Set: AUG-CC-PVTZ
    Blend: AUG-CC-PVTZ
  Basis Set: (AUG-CC-PVTZ AUX)
    Blend: AUG-CC-PVTZ-JKFIT
	 Reference Energy          =    -477.5309043795818980 [Eh]
	 Singles Energy            =      -0.0000000000000000 [Eh]
	 Same-Spin Energy          =      -0.5406571858107965 [Eh]
	 Opposite-Spin Energy      =      -1.6846611773128293 [Eh]
	 Correlation Energy        =      -2.2253183631236260 [Eh]
	 Total Energy              =    -479.7562227427055177 [Eh]

	 ================> DF-SCS-MP2 Energies <==================
	-----------------------------------------------------------
	 SCS Same-Spin Scale       =       0.3333333333333333 [-]
	 SCS Opposite-Spin Scale   =       1.2000000000000000 [-]
	 SCS Same-Spin Energy      =      -0.1802190619369322 [Eh]
	 SCS Opposite-Spin Energy  =      -2.0215934127753949 [Eh]
	 SCS Correlation Energy    =      -2.2018124747123271 [Eh]
	 SCS Total Energy          =    -479.7327168542942104 [Eh]
	-----------------------------------------------------------

  Dipole Moment: [D]
     X:     0.4441      Y:     1.8564      Z:     0.6744     Total:     2.0244

*** Psi4 exiting successfully. Buy a developer a beer!
