                               Psi4 1.3.2 release

  ==> Input File <==

--------------------------------------------------------------------------
#psi4
#
memory 32 gb

molecule  {
0 1
  N       -1.6222154     0.6522402     0.1210145
  C       -0.8584400    -0.3593730    -0.1157050
  C        0.5958890    -0.1944310    -0.0686340
  C       -1.6095070    -1.4830350    -0.4543950
  C       -3.0364380     0.1798280     0.0590890
  C       -2.9750140    -1.1422740    -0.3482900
  C       -1.4212420     1.9838780     0.6691930
  C        1.2419450     0.8845030    -0.6969540
  C        1.3787110    -1.1624060     0.5835710
  C        2.6315710     1.0013490    -0.6546280
  C        2.7689430    -1.0546610     0.6054980
  C        3.3999180     0.0321080    -0.0053240
  H       -1.1930810    -2.4304870    -0.7739750
  H       -3.8823240     0.8199580     0.2740310
  H       -3.8253090    -1.7817070    -0.5476340
  H       -2.2212640     2.3282100     1.3272780
  H       -0.4870200     1.9493020     1.2305480
  H       -1.3139190     2.6883760    -0.1607770
  H        0.6536140     1.6152250    -1.2478990
  H        0.8812590    -1.9928010     1.0799670
  H        3.1173860     1.8412050    -1.1464900
  H        3.3610660    -1.8124130     1.1137600
  H        4.4833320     0.1209150     0.0205430
units angstrom
no_reorient  #important for SAPT in psi4, default
symmetry c1  #important for SAPT in psi4, default
}

set PROPERTIES_ORIGIN ["COM"]
properties('MP2/aug-cc-pvtz', properties = ['dipole'])
--------------------------------------------------------------------------

    Molecular point group: c1
  Charge       = 0
  Multiplicity = 1
  Basis Set: AUG-CC-PVTZ
    Blend: AUG-CC-PVTZ
  Basis Set: (AUG-CC-PVTZ AUX)
    Blend: AUG-CC-PVTZ-JKFIT

    Orbital Energies [Eh]
    ---------------------

    Doubly Occupied:

       1A    -15.606228     2A    -11.272167     3A    -11.259353
       4A    -11.249096     5A    -11.247014     6A    -11.241931
       7A    -11.240829     8A    -11.240172     9A    -11.238998
      10A    -11.237877    11A    -11.217635    12A    -11.197861
      13A     -1.303606    14A     -1.154998    15A     -1.073048
      16A     -1.043801    17A     -1.017080    18A     -0.968013
      19A     -0.922053    20A     -0.834766    21A     -0.831660
      22A     -0.769520    23A     -0.743056    24A     -0.713270
      25A     -0.676499    26A     -0.642040    27A     -0.631704
      28A     -0.623389    29A     -0.599390    30A     -0.590946
      31A     -0.587624    32A     -0.551123    33A     -0.536536
      34A     -0.523712    35A     -0.521290    36A     -0.500764
      37A     -0.493480    38A     -0.488184    39A     -0.355503
      40A     -0.341966    41A     -0.338731    42A     -0.271451

  @DF-RHF Final Energy:  -477.52450989023907

   => Energetics <=

    Nuclear Repulsion Energy =            640.1789977912404765
    One-Electron Energy =               -1915.6102886238174960
    Two-Electron Energy =                 797.9067809423378321
    Total Energy =                       -477.5245098902390737
  Basis Set: (AUG-CC-PVTZ AUX)
    Blend: AUG-CC-PVTZ-RI
    Molecular point group: c1

    Geometry (in Angstrom), charge = 0, multiplicity = 1:

       Center              X                  Y                   Z               Mass
    ------------   -----------------  -----------------  -----------------  -----------------
         N           -1.636541241178     0.673048997834     0.135311291300    14.003074004430
         C           -0.872765841178    -0.338564202166    -0.101408208700    12.000000000000
         C            0.581563158822    -0.173622202166    -0.054337208700    12.000000000000
         C           -1.623832841178    -1.462226202166    -0.440098208700    12.000000000000
         C           -3.050763841178     0.200636797834     0.073385791300    12.000000000000
         C           -2.989339841178    -1.121465202166    -0.333993208700    12.000000000000
         C           -1.435567841178     2.004686797834     0.683489791300    12.000000000000
         C            1.227619158822     0.905311797834    -0.682657208700    12.000000000000
         C            1.364385158822    -1.141597202166     0.597867791300    12.000000000000
         C            2.617245158822     1.022157797834    -0.640331208700    12.000000000000
         C            2.754617158822    -1.033852202166     0.619794791300    12.000000000000
         C            3.385592158822     0.052916797834     0.008972791300    12.000000000000
         H           -1.207406841178    -2.409678202166    -0.759678208700     1.007825032230
         H           -3.896649841178     0.840766797834     0.288327791300     1.007825032230
         H           -3.839634841178    -1.760898202166    -0.533337208700     1.007825032230
         H           -2.235589841178     2.349018797834     1.341574791300     1.007825032230
         H           -0.501345841178     1.970110797834     1.244844791300     1.007825032230
         H           -1.328244841178     2.709184797834    -0.146480208700     1.007825032230
         H            0.639288158822     1.636033797834    -1.233602208700     1.007825032230
         H            0.866933158822    -1.971992202166     1.094263791300     1.007825032230
         H            3.103060158822     1.862013797834    -1.132193208700     1.007825032230
         H            3.346740158822    -1.791604202166     1.128056791300     1.007825032230
         H            4.469006158822     0.141723797834     0.034839791300     1.007825032230

  Basis Set: AUG-CC-PVTZ
    Blend: AUG-CC-PVTZ
  Basis Set: (AUG-CC-PVTZ AUX)
    Blend: AUG-CC-PVTZ-JKFIT
	 Reference Energy          =    -477.5245098902390737 [Eh]
	 Singles Energy            =      -0.0000000000000000 [Eh]
	 Same-Spin Energy          =      -0.5392094767000739 [Eh]
	 Opposite-Spin Energy      =      -1.6843648427608642 [Eh]
	 Correlation Energy        =      -2.2235743194609379 [Eh]
	 Total Energy              =    -479.7480842097000391 [Eh]

	 ================> DF-SCS-MP2 Energies <==================
	-----------------------------------------------------------
	 SCS Same-Spin Scale       =       0.3333333333333333 [-]
	 SCS Opposite-Spin Scale   =       1.2000000000000000 [-]
	 SCS Same-Spin Energy      =      -0.1797364922333580 [Eh]
	 SCS Opposite-Spin Energy  =      -2.0212378113130369 [Eh]
	 SCS Correlation Energy    =      -2.2009743035463947 [Eh]
	 SCS Total Energy          =    -479.7254841937854621 [Eh]
	-----------------------------------------------------------

  Dipole Moment: [D]
     X:     0.3756      Y:     1.8424      Z:     0.7166     Total:     2.0122

*** Psi4 exiting successfully. Buy a developer a beer!
