                               Psi4 1.3.2 release

  ==> Input File <==

--------------------------------------------------------------------------
#psi4
#
memory 32 gb

molecule  {
0 1
  N       -1.7531090     0.6487580     0.1985890
  C       -0.8584400    -0.3593730    -0.1157050
  C        0.5958890    -0.1944310    -0.0686340
  C       -1.6095070    -1.4830350    -0.4543950
  C       -3.0527013     0.2221704     0.0746060
  C       -2.9750140    -1.1422740    -0.3482900
  C       -1.4212420     1.9838780     0.6691930
  C        1.2419450     0.8845030    -0.6969540
  C        1.3787110    -1.1624060     0.5835710
  C        2.6315710     1.0013490    -0.6546280
  C        2.7689430    -1.0546610     0.6054980
  C        3.3999180     0.0321080    -0.0053240
  H       -1.1930810    -2.4304870    -0.7739750
  H       -3.8823240     0.8199580     0.2740310
  H       -3.8253090    -1.7817070    -0.5476340
  H       -2.2212640     2.3282100     1.3272780
  H       -0.4870200     1.9493020     1.2305480
  H       -1.3139190     2.6883760    -0.1607770
  H        0.6536140     1.6152250    -1.2478990
  H        0.8812590    -1.9928010     1.0799670
  H        3.1173860     1.8412050    -1.1464900
  H        3.3610660    -1.8124130     1.1137600
  H        4.4833320     0.1209150     0.0205430
units angstrom
no_reorient  #important for SAPT in psi4, default
symmetry c1  #important for SAPT in psi4, default
}

set PROPERTIES_ORIGIN ["COM"]
properties('MP2/aug-cc-pvtz', properties = ['dipole'])
--------------------------------------------------------------------------

    Molecular point group: c1
  Charge       = 0
  Multiplicity = 1
  Basis Set: AUG-CC-PVTZ
    Blend: AUG-CC-PVTZ
  Basis Set: (AUG-CC-PVTZ AUX)
    Blend: AUG-CC-PVTZ-JKFIT

    Orbital Energies [Eh]
    ---------------------

    Doubly Occupied:

       1A    -15.611261     2A    -11.270173     3A    -11.257137
       4A    -11.250753     5A    -11.249923     6A    -11.240966
       7A    -11.239844     8A    -11.239532     9A    -11.238223
      10A    -11.237417    11A    -11.213279    12A    -11.208621
      13A     -1.298189    14A     -1.155427    15A     -1.070493
      16A     -1.042552    17A     -1.016437    18A     -0.956313
      19A     -0.932484    20A     -0.834317    21A     -0.830714
      22A     -0.771972    23A     -0.745183    24A     -0.711572
      25A     -0.680505    26A     -0.641767    27A     -0.635238
      28A     -0.622846    29A     -0.598273    30A     -0.587538
      31A     -0.571981    32A     -0.565252    33A     -0.541621
      34A     -0.523321    35A     -0.520453    36A     -0.502852
      37A     -0.494930    38A     -0.491720    39A     -0.354251
      40A     -0.340386    41A     -0.333756    42A     -0.272274

  @DF-RHF Final Energy:  -477.54082844343856

   => Energetics <=

    Nuclear Repulsion Energy =            638.4144198257906737
    One-Electron Energy =               -1912.1070024667594680
    Two-Electron Energy =                 796.1517541975302947
    Total Energy =                       -477.5408284434384996
  Basis Set: (AUG-CC-PVTZ AUX)
    Blend: AUG-CC-PVTZ-RI
    Molecular point group: c1

    Geometry (in Angstrom), charge = 0, multiplicity = 1:

       Center              X                  Y                   Z               Mass
    ------------   -----------------  -----------------  -----------------  -----------------
         N           -1.754524513661     0.666642679284     0.204785387996    14.003074004430
         C           -0.859855513661    -0.341488320716    -0.109508612004    12.000000000000
         C            0.594473486339    -0.176546320716    -0.062437612004    12.000000000000
         C           -1.610922513661    -1.465150320716    -0.448198612004    12.000000000000
         C           -3.054116813661     0.240055079284     0.080802387996    12.000000000000
         C           -2.976429513661    -1.124389320716    -0.342093612004    12.000000000000
         C           -1.422657513661     2.001762679284     0.675389387996    12.000000000000
         C            1.240529486339     0.902387679284    -0.690757612004    12.000000000000
         C            1.377295486339    -1.144521320716     0.589767387996    12.000000000000
         C            2.630155486339     1.019233679284    -0.648431612004    12.000000000000
         C            2.767527486339    -1.036776320716     0.611694387996    12.000000000000
         C            3.398502486339     0.049992679284     0.000872387996    12.000000000000
         H           -1.194496513661    -2.412602320716    -0.767778612004     1.007825032230
         H           -3.883739513661     0.837842679284     0.280227387996     1.007825032230
         H           -3.826724513661    -1.763822320716    -0.541437612004     1.007825032230
         H           -2.222679513661     2.346094679284     1.333474387996     1.007825032230
         H           -0.488435513661     1.967186679284     1.236744387996     1.007825032230
         H           -1.315334513661     2.706260679284    -0.154580612004     1.007825032230
         H            0.652198486339     1.633109679284    -1.241702612004     1.007825032230
         H            0.879843486339    -1.974916320716     1.086163387996     1.007825032230
         H            3.115970486339     1.859089679284    -1.140293612004     1.007825032230
         H            3.359650486339    -1.794528320716     1.119956387996     1.007825032230
         H            4.481916486339     0.138799679284     0.026739387996     1.007825032230

  Basis Set: AUG-CC-PVTZ
    Blend: AUG-CC-PVTZ
  Basis Set: (AUG-CC-PVTZ AUX)
    Blend: AUG-CC-PVTZ-JKFIT
	 Reference Energy          =    -477.5408284434385564 [Eh]
	 Singles Energy            =      -0.0000000000000000 [Eh]
	 Same-Spin Energy          =      -0.5398272150389352 [Eh]
	 Opposite-Spin Energy      =      -1.6844504544658978 [Eh]
	 Correlation Energy        =      -2.2242776695048327 [Eh]
	 Total Energy              =    -479.7651061129433856 [Eh]

	 ================> DF-SCS-MP2 Energies <==================
	-----------------------------------------------------------
	 SCS Same-Spin Scale       =       0.3333333333333333 [-]
	 SCS Opposite-Spin Scale   =       1.2000000000000000 [-]
	 SCS Same-Spin Energy      =      -0.1799424050129784 [Eh]
	 SCS Opposite-Spin Energy  =      -2.0213405453590774 [Eh]
	 SCS Correlation Energy    =      -2.2012829503720557 [Eh]
	 SCS Total Energy          =    -479.7421113938106032 [Eh]
	-----------------------------------------------------------

  Dipole Moment: [D]
     X:     0.5319      Y:     1.8709      Z:     0.6768     Total:     2.0594

*** Psi4 exiting successfully. Buy a developer a beer!
