                               Psi4 1.4a3.dev225

  ==> Input File <==

--------------------------------------------------------------------------
#psi4
#
memory 32 gb

molecule  {
0 1
  N       -1.7531090     0.6487580     0.1985890
  C       -0.8584400    -0.3593730    -0.1157050
  C        0.5958890    -0.1944310    -0.0686340
  C       -1.6095070    -1.4830350    -0.4543950
  C       -3.0364380     0.1798280     0.0590890
  C       -2.9266390    -1.1543459    -0.3520489
  C       -1.4212420     1.9838780     0.6691930
  C        1.2419450     0.8845030    -0.6969540
  C        1.3787110    -1.1624060     0.5835710
  C        2.6315710     1.0013490    -0.6546280
  C        2.7689430    -1.0546610     0.6054980
  C        3.3999180     0.0321080    -0.0053240
  H       -1.1930810    -2.4304870    -0.7739750
  H       -3.8823240     0.8199580     0.2740310
  H       -3.8253090    -1.7817070    -0.5476340
  H       -2.2212640     2.3282100     1.3272780
  H       -0.4870200     1.9493020     1.2305480
  H       -1.3139190     2.6883760    -0.1607770
  H        0.6536140     1.6152250    -1.2478990
  H        0.8812590    -1.9928010     1.0799670
  H        3.1173860     1.8412050    -1.1464900
  H        3.3610660    -1.8124130     1.1137600
  H        4.4833320     0.1209150     0.0205430
units angstrom
no_reorient  #important for SAPT in psi4, default
symmetry c1  #important for SAPT in psi4, default
}

set PROPERTIES_ORIGIN ["COM"]
properties('MP2/aug-cc-pvtz', properties = ['dipole'])
--------------------------------------------------------------------------

    Molecular point group: c1
  Charge       = 0
  Multiplicity = 1
  Basis Set: AUG-CC-PVTZ
    Blend: AUG-CC-PVTZ
  Basis Set: (AUG-CC-PVTZ AUX)
    Blend: AUG-CC-PVTZ-JKFIT

    Orbital Energies [Eh]
    ---------------------

    Doubly Occupied:

       1A    -15.610457     2A    -11.271037     3A    -11.255116
       4A    -11.249824     5A    -11.247828     6A    -11.240430
       7A    -11.239274     8A    -11.238928     9A    -11.237601
      10A    -11.236714    11A    -11.207829    12A    -11.203198
      13A     -1.300730    14A     -1.154763    15A     -1.079446
      16A     -1.043311    17A     -1.015938    18A     -0.953762
      19A     -0.937551    20A     -0.832839    21A     -0.830099
      22A     -0.767426    23A     -0.745002    24A     -0.712449
      25A     -0.677721    26A     -0.640308    27A     -0.632205
      28A     -0.622293    29A     -0.595447    30A     -0.586937
      31A     -0.569874    32A     -0.565831    33A     -0.547752
      34A     -0.526080    35A     -0.518416    36A     -0.502007
      37A     -0.495337    38A     -0.491478    39A     -0.353445
      40A     -0.342703    41A     -0.338925    42A     -0.270777

  @DF-RHF Final Energy:  -477.54136536394498

   => Energetics <=

    Nuclear Repulsion Energy =            639.7832811986434081
    One-Electron Energy =               -1914.8711179513338720
    Two-Electron Energy =                 797.5464713887455446
    Total Energy =                       -477.5413653639449194
  Basis Set: (AUG-CC-PVTZ AUX)
    Blend: AUG-CC-PVTZ-RI
    Molecular point group: c1

    Geometry (in Angstrom), charge = 0, multiplicity = 1:

       Center              X                  Y                   Z               Mass
    ------------   -----------------  -----------------  -----------------  -----------------
         N           -1.759462216890     0.670799373764     0.206257869074    14.003074004430
         C           -0.864793216890    -0.337331626236    -0.108036130926    12.000000000000
         C            0.589535783110    -0.172389626236    -0.060965130926    12.000000000000
         C           -1.615860216890    -1.460993626236    -0.446726130926    12.000000000000
         C           -3.042791216890     0.201869373764     0.066757869074    12.000000000000
         C           -2.932992216890    -1.132304526236    -0.344380030926    12.000000000000
         C           -1.427595216890     2.005919373764     0.676861869074    12.000000000000
         C            1.235591783110     0.906544373764    -0.689285130926    12.000000000000
         C            1.372357783110    -1.140364626236     0.591239869074    12.000000000000
         C            2.625217783110     1.023390373764    -0.646959130926    12.000000000000
         C            2.762589783110    -1.032619626236     0.613166869074    12.000000000000
         C            3.393564783110     0.054149373764     0.002344869074    12.000000000000
         H           -1.199434216890    -2.408445626236    -0.766306130926     1.007825032230
         H           -3.888677216890     0.841999373764     0.281699869074     1.007825032230
         H           -3.831662216890    -1.759665626236    -0.539965130926     1.007825032230
         H           -2.227617216890     2.350251373764     1.334946869074     1.007825032230
         H           -0.493373216890     1.971343373764     1.238216869074     1.007825032230
         H           -1.320272216890     2.710417373764    -0.153108130926     1.007825032230
         H            0.647260783110     1.637266373764    -1.240230130926     1.007825032230
         H            0.874905783110    -1.970759626236     1.087635869074     1.007825032230
         H            3.111032783110     1.863246373764    -1.138821130926     1.007825032230
         H            3.354712783110    -1.790371626236     1.121428869074     1.007825032230
         H            4.476978783110     0.142956373764     0.028211869074     1.007825032230

  Basis Set: AUG-CC-PVTZ
    Blend: AUG-CC-PVTZ
  Basis Set: (AUG-CC-PVTZ AUX)
    Blend: AUG-CC-PVTZ-JKFIT
	 Reference Energy          =    -477.5413653639449763 [Eh]
	 Singles Energy            =      -0.0000000000000000 [Eh]
	 Same-Spin Energy          =      -0.5400863729553587 [Eh]
	 Opposite-Spin Energy      =      -1.6841468366522225 [Eh]
	 Correlation Energy        =      -2.2242332096075810 [Eh]
	 Total Energy              =    -479.7655985735525519 [Eh]

	 ================> DF-SCS-MP2 Energies <==================
	-----------------------------------------------------------
	 SCS Same-Spin Scale       =       0.3333333333333333 [-]
	 SCS Opposite-Spin Scale   =       1.2000000000000000 [-]
	 SCS Same-Spin Energy      =      -0.1800287909851195 [Eh]
	 SCS Opposite-Spin Energy  =      -2.0209762039826669 [Eh]
	 SCS Correlation Energy    =      -2.2010049949677866 [Eh]
	 SCS Total Energy          =    -479.7423703589127513 [Eh]
	-----------------------------------------------------------

  Dipole Moment: [D]
     X:     0.4486      Y:     1.8603      Z:     0.6756     Total:     2.0293

*** Psi4 exiting successfully. Buy a developer a beer!
