                               Psi4 1.4a3.dev225

  ==> Input File <==

--------------------------------------------------------------------------
#psi4
#
memory 32 gb

molecule  {
0 1
  N       -1.7531090     0.6487580     0.1985890
  C       -0.8584400    -0.3593730    -0.1157050
  C        0.5958890    -0.1944310    -0.0686340
  C       -1.6095070    -1.4830350    -0.4543950
  C       -3.0364380     0.1798280     0.0590890
  C       -2.9750140    -1.1422740    -0.3482900
  C       -1.4212420     1.9838780     0.6691930
  C        1.2419450     0.8845030    -0.6969540
  C        1.3787110    -1.1624060     0.5835710
  C        2.6315710     1.0013490    -0.6546280
  C        2.7689430    -1.0546610     0.6054980
  C        3.3999180     0.0321080    -0.0053240
  H       -1.1930810    -2.4304870    -0.7739750
  H       -3.8666935     0.8081295     0.2700592
  H       -3.8253090    -1.7817070    -0.5476340
  H       -2.2212640     2.3282100     1.3272780
  H       -0.4870200     1.9493020     1.2305480
  H       -1.3139190     2.6883760    -0.1607770
  H        0.6536140     1.6152250    -1.2478990
  H        0.8812590    -1.9928010     1.0799670
  H        3.1173860     1.8412050    -1.1464900
  H        3.3610660    -1.8124130     1.1137600
  H        4.4833320     0.1209150     0.0205430
units angstrom
no_reorient  #important for SAPT in psi4, default
symmetry c1  #important for SAPT in psi4, default
}

set PROPERTIES_ORIGIN ["COM"]
properties('MP2/aug-cc-pvtz', properties = ['dipole'])
--------------------------------------------------------------------------

    Molecular point group: c1
  Charge       = 0
  Multiplicity = 1
  Basis Set: AUG-CC-PVTZ
    Blend: AUG-CC-PVTZ
  Basis Set: (AUG-CC-PVTZ AUX)
    Blend: AUG-CC-PVTZ-JKFIT

    Orbital Energies [Eh]
    ---------------------

    Doubly Occupied:

       1A    -15.607440     2A    -11.270693     3A    -11.256394
       4A    -11.250131     5A    -11.246250     6A    -11.240700
       7A    -11.239545     8A    -11.239239     9A    -11.237935
      10A    -11.237026    11A    -11.208243    12A    -11.206857
      13A     -1.298812    14A     -1.155057    15A     -1.073285
      16A     -1.044038    17A     -1.016160    18A     -0.956716
      19A     -0.933342    20A     -0.833802    21A     -0.830589
      22A     -0.771450    23A     -0.743911    24A     -0.712463
      25A     -0.678772    26A     -0.640276    27A     -0.632885
      28A     -0.622535    29A     -0.597016    30A     -0.587170
      31A     -0.569885    32A     -0.568593    33A     -0.538802
      34A     -0.527291    35A     -0.523811    36A     -0.502221
      37A     -0.494867    38A     -0.491761    39A     -0.353925
      40A     -0.340249    41A     -0.335216    42A     -0.275100

  @DF-RHF Final Energy:  -477.54612208326404

   => Energetics <=

    Nuclear Repulsion Energy =            639.1526075888826881
    One-Electron Energy =               -1913.6165518195884943
    Two-Electron Energy =                 796.9178221474415977
    Total Energy =                       -477.5461220832640947
  Basis Set: (AUG-CC-PVTZ AUX)
    Blend: AUG-CC-PVTZ-RI
    Molecular point group: c1

    Geometry (in Angstrom), charge = 0, multiplicity = 1:

       Center              X                  Y                   Z               Mass
    ------------   -----------------  -----------------  -----------------  -----------------
         N           -1.755867142417     0.669953091623     0.205996209242    14.003074004430
         C           -0.861198142417    -0.338177908377    -0.108297790758    12.000000000000
         C            0.593130857583    -0.173235908377    -0.061226790758    12.000000000000
         C           -1.612265142417    -1.461839908377    -0.446987790758    12.000000000000
         C           -3.039196142417     0.201023091623     0.066496209242    12.000000000000
         C           -2.977772142417    -1.121078908377    -0.340882790758    12.000000000000
         C           -1.424000142417     2.005073091623     0.676600209242    12.000000000000
         C            1.239186857583     0.905698091623    -0.689546790758    12.000000000000
         C            1.375952857583    -1.141210908377     0.590978209242    12.000000000000
         C            2.628812857583     1.022544091623    -0.647220790758    12.000000000000
         C            2.766184857583    -1.033465908377     0.612905209242    12.000000000000
         C            3.397159857583     0.053303091623     0.002083209242    12.000000000000
         H           -1.195839142417    -2.409291908377    -0.766567790758     1.007825032230
         H           -3.869451642417     0.829324591623     0.277466409242     1.007825032230
         H           -3.828067142417    -1.760511908377    -0.540226790758     1.007825032230
         H           -2.224022142417     2.349405091623     1.334685209242     1.007825032230
         H           -0.489778142417     1.970497091623     1.237955209242     1.007825032230
         H           -1.316677142417     2.709571091623    -0.153369790758     1.007825032230
         H            0.650855857583     1.636420091623    -1.240491790758     1.007825032230
         H            0.878500857583    -1.971605908377     1.087374209242     1.007825032230
         H            3.114627857583     1.862400091623    -1.139082790758     1.007825032230
         H            3.358307857583    -1.791217908377     1.121167209242     1.007825032230
         H            4.480573857583     0.142110091623     0.027950209242     1.007825032230

  Basis Set: AUG-CC-PVTZ
    Blend: AUG-CC-PVTZ
  Basis Set: (AUG-CC-PVTZ AUX)
    Blend: AUG-CC-PVTZ-JKFIT
	 Reference Energy          =    -477.5461220832640379 [Eh]
	 Singles Energy            =      -0.0000000000000000 [Eh]
	 Same-Spin Energy          =      -0.5391276664118989 [Eh]
	 Opposite-Spin Energy      =      -1.6830634008325271 [Eh]
	 Correlation Energy        =      -2.2221910672444261 [Eh]
	 Total Energy              =    -479.7683131505084475 [Eh]

	 ================> DF-SCS-MP2 Energies <==================
	-----------------------------------------------------------
	 SCS Same-Spin Scale       =       0.3333333333333333 [-]
	 SCS Opposite-Spin Scale   =       1.2000000000000000 [-]
	 SCS Same-Spin Energy      =      -0.1797092221372996 [Eh]
	 SCS Opposite-Spin Energy  =      -2.0196760809990324 [Eh]
	 SCS Correlation Energy    =      -2.1993853031363320 [Eh]
	 SCS Total Energy          =    -479.7455073864003907 [Eh]
	-----------------------------------------------------------

  Dipole Moment: [D]
     X:     0.4676      Y:     1.8605      Z:     0.6774     Total:     2.0344

*** Psi4 exiting successfully. Buy a developer a beer!
