                               Psi4 1.3.2 release

  ==> Input File <==

--------------------------------------------------------------------------
#psi4
#
memory 32 gb

molecule  {
0 1
  N       -1.7531090     0.6487580     0.1985890
  C       -0.8584400    -0.3593730    -0.1157050
  C        0.5958890    -0.1944310    -0.0686340
  C       -1.6095070    -1.4830350    -0.4543950
  C       -3.0364380     0.1798280     0.0590890
  C       -2.7815141    -1.1905617    -0.3633257
  C       -1.4212420     1.9838780     0.6691930
  C        1.2419450     0.8845030    -0.6969540
  C        1.3787110    -1.1624060     0.5835710
  C        2.6315710     1.0013490    -0.6546280
  C        2.7689430    -1.0546610     0.6054980
  C        3.3999180     0.0321080    -0.0053240
  H       -1.1930810    -2.4304870    -0.7739750
  H       -3.8823240     0.8199580     0.2740310
  H       -3.8253090    -1.7817070    -0.5476340
  H       -2.2212640     2.3282100     1.3272780
  H       -0.4870200     1.9493020     1.2305480
  H       -1.3139190     2.6883760    -0.1607770
  H        0.6536140     1.6152250    -1.2478990
  H        0.8812590    -1.9928010     1.0799670
  H        3.1173860     1.8412050    -1.1464900
  H        3.3610660    -1.8124130     1.1137600
  H        4.4833320     0.1209150     0.0205430
units angstrom
no_reorient  #important for SAPT in psi4, default
symmetry c1  #important for SAPT in psi4, default
}

set PROPERTIES_ORIGIN ["COM"]
properties('MP2/aug-cc-pvtz', properties = ['dipole'])
--------------------------------------------------------------------------

    Molecular point group: c1
  Charge       = 0
  Multiplicity = 1
  Basis Set: AUG-CC-PVTZ
    Blend: AUG-CC-PVTZ
  Basis Set: (AUG-CC-PVTZ AUX)
    Blend: AUG-CC-PVTZ-JKFIT

    Orbital Energies [Eh]
    ---------------------

    Doubly Occupied:

       1A    -15.621045     2A    -11.272686     3A    -11.251574
       4A    -11.249010     5A    -11.246668     6A    -11.239683
       7A    -11.238678     8A    -11.237728     9A    -11.236499
      10A    -11.235723    11A    -11.206571    12A    -11.188878
      13A     -1.307835    14A     -1.153903    15A     -1.105825
      16A     -1.041624    17A     -1.015284    18A     -0.956785
      19A     -0.943128    20A     -0.832310    21A     -0.827505
      22A     -0.758694    23A     -0.751108    24A     -0.714072
      25A     -0.676640    26A     -0.641937    27A     -0.633010
      28A     -0.621848    29A     -0.594131    30A     -0.587305
      31A     -0.583809    32A     -0.565799    33A     -0.561778
      34A     -0.533769    35A     -0.501642    36A     -0.499725
      37A     -0.492583    38A     -0.469568    39A     -0.369723
      40A     -0.350452    41A     -0.339023    42A     -0.256922

  @DF-RHF Final Energy:  -477.47912281218464

   => Energetics <=

    Nuclear Repulsion Energy =            642.2127882521708671
    One-Electron Energy =               -1919.5588623128649033
    Two-Electron Energy =                 799.8669512485093946
    Total Energy =                       -477.4791228121846416
  Basis Set: (AUG-CC-PVTZ AUX)
    Blend: AUG-CC-PVTZ-RI
    Molecular point group: c1

    Geometry (in Angstrom), charge = 0, multiplicity = 1:

       Center              X                  Y                   Z               Mass
    ------------   -----------------  -----------------  -----------------  -----------------
         N           -1.770548270937     0.673565889476     0.207119300946    14.003074004430
         C           -0.875879270937    -0.334565110524    -0.107174699054    12.000000000000
         C            0.578449729063    -0.169623110524    -0.060103699054    12.000000000000
         C           -1.626946270937    -1.458227110524    -0.445864699054    12.000000000000
         C           -3.053877270937     0.204635889476     0.067619300946    12.000000000000
         C           -2.798953370937    -1.165753810524    -0.354795399054    12.000000000000
         C           -1.438681270937     2.008685889476     0.677723300946    12.000000000000
         C            1.224505729063     0.909310889476    -0.688423699054    12.000000000000
         C            1.361271729063    -1.137598110524     0.592101300946    12.000000000000
         C            2.614131729063     1.026156889476    -0.646097699054    12.000000000000
         C            2.751503729063    -1.029853110524     0.614028300946    12.000000000000
         C            3.382478729063     0.056915889476     0.003206300946    12.000000000000
         H           -1.210520270937    -2.405679110524    -0.765444699054     1.007825032230
         H           -3.899763270937     0.844765889476     0.282561300946     1.007825032230
         H           -3.842748270937    -1.756899110524    -0.539103699054     1.007825032230
         H           -2.238703270937     2.353017889476     1.335808300946     1.007825032230
         H           -0.504459270937     1.974109889476     1.239078300946     1.007825032230
         H           -1.331358270937     2.713183889476    -0.152246699054     1.007825032230
         H            0.636174729063     1.640032889476    -1.239368699054     1.007825032230
         H            0.863819729063    -1.967993110524     1.088497300946     1.007825032230
         H            3.099946729063     1.866012889476    -1.137959699054     1.007825032230
         H            3.343626729063    -1.787605110524     1.122290300946     1.007825032230
         H            4.465892729063     0.145722889476     0.029073300946     1.007825032230

  Basis Set: AUG-CC-PVTZ
    Blend: AUG-CC-PVTZ
  Basis Set: (AUG-CC-PVTZ AUX)
    Blend: AUG-CC-PVTZ-JKFIT
	 Reference Energy          =    -477.4791228121846416 [Eh]
	 Singles Energy            =      -0.0000000000000000 [Eh]
	 Same-Spin Energy          =      -0.5432262041385294 [Eh]
	 Opposite-Spin Energy      =      -1.6887816029115847 [Eh]
	 Correlation Energy        =      -2.2320078070501141 [Eh]
	 Total Energy              =    -479.7111306192347797 [Eh]

	 ================> DF-SCS-MP2 Energies <==================
	-----------------------------------------------------------
	 SCS Same-Spin Scale       =       0.3333333333333333 [-]
	 SCS Opposite-Spin Scale   =       1.2000000000000000 [-]
	 SCS Same-Spin Energy      =      -0.1810754013795098 [Eh]
	 SCS Opposite-Spin Energy  =      -2.0265379234939016 [Eh]
	 SCS Correlation Energy    =      -2.2076133248734116 [Eh]
	 SCS Total Energy          =    -479.6867361370580625 [Eh]
	-----------------------------------------------------------

  Dipole Moment: [D]
     X:     0.4276      Y:     1.8468      Z:     0.6662     Total:     2.0093

*** Psi4 exiting successfully. Buy a developer a beer!
