                               Psi4 1.4a3.dev225

  ==> Input File <==

--------------------------------------------------------------------------
#psi4
#
memory 32 gb

molecule  {
0 1
  N       -1.7531090     0.6487580     0.1985890
  C       -0.8713685    -0.3448050    -0.1111633
  C        0.5958890    -0.1944310    -0.0686340
  C       -1.6095070    -1.4830350    -0.4543950
  C       -3.0364380     0.1798280     0.0590890
  C       -2.9750140    -1.1422740    -0.3482900
  C       -1.4212420     1.9838780     0.6691930
  C        1.2419450     0.8845030    -0.6969540
  C        1.3787110    -1.1624060     0.5835710
  C        2.6315710     1.0013490    -0.6546280
  C        2.7689430    -1.0546610     0.6054980
  C        3.3999180     0.0321080    -0.0053240
  H       -1.1930810    -2.4304870    -0.7739750
  H       -3.8823240     0.8199580     0.2740310
  H       -3.8253090    -1.7817070    -0.5476340
  H       -2.2212640     2.3282100     1.3272780
  H       -0.4870200     1.9493020     1.2305480
  H       -1.3139190     2.6883760    -0.1607770
  H        0.6536140     1.6152250    -1.2478990
  H        0.8812590    -1.9928010     1.0799670
  H        3.1173860     1.8412050    -1.1464900
  H        3.3610660    -1.8124130     1.1137600
  H        4.4833320     0.1209150     0.0205430
units angstrom
no_reorient  #important for SAPT in psi4, default
symmetry c1  #important for SAPT in psi4, default
}

set PROPERTIES_ORIGIN ["COM"]
properties('MP2/aug-cc-pvtz', properties = ['dipole'])
--------------------------------------------------------------------------

    Molecular point group: c1
  Charge       = 0
  Multiplicity = 1
  Basis Set: AUG-CC-PVTZ
    Blend: AUG-CC-PVTZ
  Basis Set: (AUG-CC-PVTZ AUX)
    Blend: AUG-CC-PVTZ-JKFIT

    Orbital Energies [Eh]
    ---------------------

    Doubly Occupied:

       1A    -15.609046     2A    -11.271766     3A    -11.256680
       4A    -11.250900     5A    -11.246859     6A    -11.240613
       7A    -11.239535     8A    -11.239159     9A    -11.237905
      10A    -11.237131    11A    -11.208579    12A    -11.206105
      13A     -1.304406    14A     -1.154669    15A     -1.073446
      16A     -1.042852    17A     -1.016118    18A     -0.956681
      19A     -0.935067    20A     -0.832243    21A     -0.830443
      22A     -0.772344    23A     -0.742343    24A     -0.713173
      25A     -0.677826    26A     -0.641333    27A     -0.632124
      28A     -0.622684    29A     -0.597028    30A     -0.587220
      31A     -0.572657    32A     -0.566860    33A     -0.537040
      34A     -0.528255    35A     -0.524960    36A     -0.502661
      37A     -0.493097    38A     -0.491861    39A     -0.352830
      40A     -0.340350    41A     -0.336014    42A     -0.274776

  @DF-RHF Final Energy:  -477.54610189009696

   => Energetics <=

    Nuclear Repulsion Energy =            639.1640415707981902
    One-Electron Energy =               -1913.6250122470437418
    Two-Electron Energy =                 796.9148687861486451
    Total Energy =                       -477.5461018900969066
  Basis Set: (AUG-CC-PVTZ AUX)
    Blend: AUG-CC-PVTZ-RI
    Molecular point group: c1

    Geometry (in Angstrom), charge = 0, multiplicity = 1:

       Center              X                  Y                   Z               Mass
    ------------   -----------------  -----------------  -----------------  -----------------
         N           -1.754779258181     0.668764358606     0.205623788360    14.003074004430
         C           -0.873038758181    -0.324798641394    -0.104128511640    12.000000000000
         C            0.594218741819    -0.174424641394    -0.061599211640    12.000000000000
         C           -1.611177258181    -1.463028641394    -0.447360211640    12.000000000000
         C           -3.038108258181     0.199834358606     0.066123788360    12.000000000000
         C           -2.976684258181    -1.122267641394    -0.341255211640    12.000000000000
         C           -1.422912258181     2.003884358606     0.676227788360    12.000000000000
         C            1.240274741819     0.904509358606    -0.689919211640    12.000000000000
         C            1.377040741819    -1.142399641394     0.590605788360    12.000000000000
         C            2.629900741819     1.021355358606    -0.647593211640    12.000000000000
         C            2.767272741819    -1.034654641394     0.612532788360    12.000000000000
         C            3.398247741819     0.052114358606     0.001710788360    12.000000000000
         H           -1.194751258181    -2.410480641394    -0.766940211640     1.007825032230
         H           -3.883994258181     0.839964358606     0.281065788360     1.007825032230
         H           -3.826979258181    -1.761700641394    -0.540599211640     1.007825032230
         H           -2.222934258181     2.348216358606     1.334312788360     1.007825032230
         H           -0.488690258181     1.969308358606     1.237582788360     1.007825032230
         H           -1.315589258181     2.708382358606    -0.153742211640     1.007825032230
         H            0.651943741819     1.635231358606    -1.240864211640     1.007825032230
         H            0.879588741819    -1.972794641394     1.087001788360     1.007825032230
         H            3.115715741819     1.861211358606    -1.139455211640     1.007825032230
         H            3.359395741819    -1.792406641394     1.120794788360     1.007825032230
         H            4.481661741819     0.140921358606     0.027577788360     1.007825032230

  Basis Set: AUG-CC-PVTZ
    Blend: AUG-CC-PVTZ
  Basis Set: (AUG-CC-PVTZ AUX)
    Blend: AUG-CC-PVTZ-JKFIT
	 Reference Energy          =    -477.5461018900969634 [Eh]
	 Singles Energy            =      -0.0000000000000000 [Eh]
	 Same-Spin Energy          =      -0.5390804816273049 [Eh]
	 Opposite-Spin Energy      =      -1.6828912415184554 [Eh]
	 Correlation Energy        =      -2.2219717231457601 [Eh]
	 Total Energy              =    -479.7680736132427342 [Eh]

	 ================> DF-SCS-MP2 Energies <==================
	-----------------------------------------------------------
	 SCS Same-Spin Scale       =       0.3333333333333333 [-]
	 SCS Opposite-Spin Scale   =       1.2000000000000000 [-]
	 SCS Same-Spin Energy      =      -0.1796934938757683 [Eh]
	 SCS Opposite-Spin Energy  =      -2.0194694898221464 [Eh]
	 SCS Correlation Energy    =      -2.1991629836979145 [Eh]
	 SCS Total Energy          =    -479.7452648737948948 [Eh]
	-----------------------------------------------------------

  Dipole Moment: [D]
     X:     0.4608      Y:     1.8892      Z:     0.6896     Total:     2.0633

*** Psi4 exiting successfully. Buy a developer a beer!
