                               Psi4 1.3.2 release

  ==> Input File <==

--------------------------------------------------------------------------
#psi4
#
memory 32 gb

molecule  {
0 1
  N       -1.7447665     0.6272904     0.1919461
  C       -0.8584400    -0.3593730    -0.1157050
  C        0.5958890    -0.1944310    -0.0686340
  C       -1.6095070    -1.4830350    -0.4543950
  C       -3.0364380     0.1798280     0.0590890
  C       -2.9750140    -1.1422740    -0.3482900
  C       -1.4212420     1.9838780     0.6691930
  C        1.2419450     0.8845030    -0.6969540
  C        1.3787110    -1.1624060     0.5835710
  C        2.6315710     1.0013490    -0.6546280
  C        2.7689430    -1.0546610     0.6054980
  C        3.3999180     0.0321080    -0.0053240
  H       -1.1930810    -2.4304870    -0.7739750
  H       -3.8823240     0.8199580     0.2740310
  H       -3.8253090    -1.7817070    -0.5476340
  H       -2.2212640     2.3282100     1.3272780
  H       -0.4870200     1.9493020     1.2305480
  H       -1.3139190     2.6883760    -0.1607770
  H        0.6536140     1.6152250    -1.2478990
  H        0.8812590    -1.9928010     1.0799670
  H        3.1173860     1.8412050    -1.1464900
  H        3.3610660    -1.8124130     1.1137600
  H        4.4833320     0.1209150     0.0205430
units angstrom
no_reorient  #important for SAPT in psi4, default
symmetry c1  #important for SAPT in psi4, default
}

set PROPERTIES_ORIGIN ["COM"]
properties('MP2/aug-cc-pvtz', properties = ['dipole'])
--------------------------------------------------------------------------

    Molecular point group: c1
  Charge       = 0
  Multiplicity = 1
  Basis Set: AUG-CC-PVTZ
    Blend: AUG-CC-PVTZ
  Basis Set: (AUG-CC-PVTZ AUX)
    Blend: AUG-CC-PVTZ-JKFIT

    Orbital Energies [Eh]
    ---------------------

    Doubly Occupied:

       1A    -15.608272     2A    -11.272757     3A    -11.254856
       4A    -11.250385     5A    -11.246472     6A    -11.240955
       7A    -11.239803     8A    -11.239481     9A    -11.238170
      10A    -11.237247    11A    -11.207712    12A    -11.204610
      13A     -1.302295    14A     -1.155214    15A     -1.069542
      16A     -1.044554    17A     -1.016360    18A     -0.958382
      19A     -0.933327    20A     -0.833786    21A     -0.830830
      22A     -0.771495    23A     -0.742173    24A     -0.711890
      25A     -0.678354    26A     -0.640054    27A     -0.632539
      28A     -0.622072    29A     -0.596267    30A     -0.587363
      31A     -0.572312    32A     -0.562943    33A     -0.538830
      34A     -0.527921    35A     -0.525314    36A     -0.502917
      37A     -0.494761    38A     -0.492270    39A     -0.353560
      40A     -0.340439    41A     -0.334995    42A     -0.275256

  @DF-RHF Final Energy:  -477.54560951744190

   => Energetics <=

    Nuclear Repulsion Energy =            639.3731044253263462
    One-Electron Energy =               -1914.0599525520365205
    Two-Electron Energy =                 797.1412386092682709
    Total Energy =                       -477.5456095174419033
  Basis Set: (AUG-CC-PVTZ AUX)
    Blend: AUG-CC-PVTZ-RI
    Molecular point group: c1

    Geometry (in Angstrom), charge = 0, multiplicity = 1:

       Center              X                  Y                   Z               Mass
    ------------   -----------------  -----------------  -----------------  -----------------
         N           -1.748168021264     0.650323246390     0.199919981995    14.003074004430
         C           -0.861841521264    -0.336340153610    -0.107731118005    12.000000000000
         C            0.592487478736    -0.171398153610    -0.060660118005    12.000000000000
         C           -1.612908521264    -1.460002153610    -0.446421118005    12.000000000000
         C           -3.039839521264     0.202860846390     0.067062881995    12.000000000000
         C           -2.978415521264    -1.119241153610    -0.340316118005    12.000000000000
         C           -1.424643521264     2.006910846390     0.677166881995    12.000000000000
         C            1.238543478736     0.907535846390    -0.688980118005    12.000000000000
         C            1.375309478736    -1.139373153610     0.591544881995    12.000000000000
         C            2.628169478736     1.024381846390    -0.646654118005    12.000000000000
         C            2.765541478736    -1.031628153610     0.613471881995    12.000000000000
         C            3.396516478736     0.055140846390     0.002649881995    12.000000000000
         H           -1.196482521264    -2.407454153610    -0.766001118005     1.007825032230
         H           -3.885725521264     0.842990846390     0.282004881995     1.007825032230
         H           -3.828710521264    -1.758674153610    -0.539660118005     1.007825032230
         H           -2.224665521264     2.351242846390     1.335251881995     1.007825032230
         H           -0.490421521264     1.972334846390     1.238521881995     1.007825032230
         H           -1.317320521264     2.711408846390    -0.152803118005     1.007825032230
         H            0.650212478736     1.638257846390    -1.239925118005     1.007825032230
         H            0.877857478736    -1.969768153610     1.087940881995     1.007825032230
         H            3.113984478736     1.864237846390    -1.138516118005     1.007825032230
         H            3.357664478736    -1.789380153610     1.121733881995     1.007825032230
         H            4.479930478736     0.143947846390     0.028516881995     1.007825032230

  Basis Set: AUG-CC-PVTZ
    Blend: AUG-CC-PVTZ
  Basis Set: (AUG-CC-PVTZ AUX)
    Blend: AUG-CC-PVTZ-JKFIT
	 Reference Energy          =    -477.5456095174419033 [Eh]
	 Singles Energy            =      -0.0000000000000000 [Eh]
	 Same-Spin Energy          =      -0.5391616217232221 [Eh]
	 Opposite-Spin Energy      =      -1.6830439276591775 [Eh]
	 Correlation Energy        =      -2.2222055493823998 [Eh]
	 Total Energy              =    -479.7678150668243120 [Eh]

	 ================> DF-SCS-MP2 Energies <==================
	-----------------------------------------------------------
	 SCS Same-Spin Scale       =       0.3333333333333333 [-]
	 SCS Opposite-Spin Scale   =       1.2000000000000000 [-]
	 SCS Same-Spin Energy      =      -0.1797205405744074 [Eh]
	 SCS Opposite-Spin Energy  =      -2.0196527131910131 [Eh]
	 SCS Correlation Energy    =      -2.1993732537654207 [Eh]
	 SCS Total Energy          =    -479.7449827712073329 [Eh]
	-----------------------------------------------------------

  Dipole Moment: [D]
     X:     0.4815      Y:     1.9297      Z:     0.6985     Total:     2.1080

*** Psi4 exiting successfully. Buy a developer a beer!
