                               Psi4 1.3.2 release

  ==> Input File <==

--------------------------------------------------------------------------
#psi4
#
memory 32 gb

molecule  {
0 1
  N       -1.7368174     0.6056866     0.1852628
  C       -0.8584400    -0.3593730    -0.1157050
  C        0.5958890    -0.1944310    -0.0686340
  C       -1.6095070    -1.4830350    -0.4543950
  C       -3.0364380     0.1798280     0.0590890
  C       -2.9750140    -1.1422740    -0.3482900
  C       -1.4212420     1.9838780     0.6691930
  C        1.2419450     0.8845030    -0.6969540
  C        1.3787110    -1.1624060     0.5835710
  C        2.6315710     1.0013490    -0.6546280
  C        2.7689430    -1.0546610     0.6054980
  C        3.3999180     0.0321080    -0.0053240
  H       -1.1930810    -2.4304870    -0.7739750
  H       -3.8823240     0.8199580     0.2740310
  H       -3.8253090    -1.7817070    -0.5476340
  H       -2.2212640     2.3282100     1.3272780
  H       -0.4870200     1.9493020     1.2305480
  H       -1.3139190     2.6883760    -0.1607770
  H        0.6536140     1.6152250    -1.2478990
  H        0.8812590    -1.9928010     1.0799670
  H        3.1173860     1.8412050    -1.1464900
  H        3.3610660    -1.8124130     1.1137600
  H        4.4833320     0.1209150     0.0205430
units angstrom
no_reorient  #important for SAPT in psi4, default
symmetry c1  #important for SAPT in psi4, default
}

set PROPERTIES_ORIGIN ["COM"]
properties('MP2/aug-cc-pvtz', properties = ['dipole'])
--------------------------------------------------------------------------

    Molecular point group: c1
  Charge       = 0
  Multiplicity = 1
  Basis Set: AUG-CC-PVTZ
    Blend: AUG-CC-PVTZ
  Basis Set: (AUG-CC-PVTZ AUX)
    Blend: AUG-CC-PVTZ-JKFIT

    Orbital Energies [Eh]
    ---------------------

    Doubly Occupied:

       1A    -15.608899     2A    -11.274833     3A    -11.253218
       4A    -11.250625     5A    -11.244423     6A    -11.241220
       7A    -11.240079     8A    -11.239715     9A    -11.238413
      10A    -11.237477    11A    -11.207176    12A    -11.202108
      13A     -1.306273    14A     -1.155394    15A     -1.065712
      16A     -1.045261    17A     -1.016559    18A     -0.961312
      19A     -0.932989    20A     -0.834328    21A     -0.831064
      22A     -0.772224    23A     -0.741332    24A     -0.711409
      25A     -0.678861    26A     -0.640275    27A     -0.633153
      28A     -0.621704    29A     -0.595870    30A     -0.587603
      31A     -0.575808    32A     -0.556713    33A     -0.539662
      34A     -0.530248    35A     -0.524883    36A     -0.503545
      37A     -0.494568    38A     -0.492669    39A     -0.353300
      40A     -0.340619    41A     -0.334614    42A     -0.275287

  @DF-RHF Final Energy:  -477.54357970267722

   => Energetics <=

    Nuclear Repulsion Energy =            639.7110903307030867
    One-Electron Energy =               -1914.7264888734951001
    Two-Electron Energy =                 797.4718188401146790
    Total Energy =                       -477.5435797026772207
  Basis Set: (AUG-CC-PVTZ AUX)
    Blend: AUG-CC-PVTZ-RI
    Molecular point group: c1

    Geometry (in Angstrom), charge = 0, multiplicity = 1:

       Center              X                  Y                   Z               Mass
    ------------   -----------------  -----------------  -----------------  -----------------
         N           -1.740927511488     0.630645229370     0.193832437621    14.003074004430
         C           -0.862550111488    -0.334414370630    -0.107135362379    12.000000000000
         C            0.591778888512    -0.169472370630    -0.060064362379    12.000000000000
         C           -1.613617111488    -1.458076370630    -0.445825362379    12.000000000000
         C           -3.040548111488     0.204786629370     0.067658637621    12.000000000000
         C           -2.979124111488    -1.117315370630    -0.339720362379    12.000000000000
         C           -1.425352111488     2.008836629370     0.677762637621    12.000000000000
         C            1.237834888512     0.909461629370    -0.688384362379    12.000000000000
         C            1.374600888512    -1.137447370630     0.592140637621    12.000000000000
         C            2.627460888512     1.026307629370    -0.646058362379    12.000000000000
         C            2.764832888512    -1.029702370630     0.614067637621    12.000000000000
         C            3.395807888512     0.057066629370     0.003245637621    12.000000000000
         H           -1.197191111488    -2.405528370630    -0.765405362379     1.007825032230
         H           -3.886434111488     0.844916629370     0.282600637621     1.007825032230
         H           -3.829419111488    -1.756748370630    -0.539064362379     1.007825032230
         H           -2.225374111488     2.353168629370     1.335847637621     1.007825032230
         H           -0.491130111488     1.974260629370     1.239117637621     1.007825032230
         H           -1.318029111488     2.713334629370    -0.152207362379     1.007825032230
         H            0.649503888512     1.640183629370    -1.239329362379     1.007825032230
         H            0.877148888512    -1.967842370630     1.088536637621     1.007825032230
         H            3.113275888512     1.866163629370    -1.137920362379     1.007825032230
         H            3.356955888512    -1.787454370630     1.122329637621     1.007825032230
         H            4.479221888512     0.145873629370     0.029112637621     1.007825032230

  Basis Set: AUG-CC-PVTZ
    Blend: AUG-CC-PVTZ
  Basis Set: (AUG-CC-PVTZ AUX)
    Blend: AUG-CC-PVTZ-JKFIT
	 Reference Energy          =    -477.5435797026772207 [Eh]
	 Singles Energy            =      -0.0000000000000000 [Eh]
	 Same-Spin Energy          =      -0.5391891304665346 [Eh]
	 Opposite-Spin Energy      =      -1.6829558398486835 [Eh]
	 Correlation Energy        =      -2.2221449703152181 [Eh]
	 Total Energy              =    -479.7657246729924623 [Eh]

	 ================> DF-SCS-MP2 Energies <==================
	-----------------------------------------------------------
	 SCS Same-Spin Scale       =       0.3333333333333333 [-]
	 SCS Opposite-Spin Scale   =       1.2000000000000000 [-]
	 SCS Same-Spin Energy      =      -0.1797297101555115 [Eh]
	 SCS Opposite-Spin Energy  =      -2.0195470078184199 [Eh]
	 SCS Correlation Energy    =      -2.1992767179739312 [Eh]
	 SCS Total Energy          =    -479.7428564206511510 [Eh]
	-----------------------------------------------------------

  Dipole Moment: [D]
     X:     0.4972      Y:     1.9999      Z:     0.7201     Total:     2.1830

*** Psi4 exiting successfully. Buy a developer a beer!
