                               Psi4 1.3.2 release

  ==> Input File <==

--------------------------------------------------------------------------
#psi4
#
memory 32 gb

molecule  {
0 1
  N       -1.7531090     0.6487580     0.1985890
  C       -0.9420807    -0.3130071    -0.0980164
  C        0.5958890    -0.1944310    -0.0686340
  C       -1.6095070    -1.4830350    -0.4543950
  C       -3.0364380     0.1798280     0.0590890
  C       -2.9750140    -1.1422740    -0.3482900
  C       -1.4212420     1.9838780     0.6691930
  C        1.2419450     0.8845030    -0.6969540
  C        1.3787110    -1.1624060     0.5835710
  C        2.6315710     1.0013490    -0.6546280
  C        2.7689430    -1.0546610     0.6054980
  C        3.3999180     0.0321080    -0.0053240
  H       -1.1930810    -2.4304870    -0.7739750
  H       -3.8823240     0.8199580     0.2740310
  H       -3.8253090    -1.7817070    -0.5476340
  H       -2.2212640     2.3282100     1.3272780
  H       -0.4870200     1.9493020     1.2305480
  H       -1.3139190     2.6883760    -0.1607770
  H        0.6536140     1.6152250    -1.2478990
  H        0.8812590    -1.9928010     1.0799670
  H        3.1173860     1.8412050    -1.1464900
  H        3.3610660    -1.8124130     1.1137600
  H        4.4833320     0.1209150     0.0205430
units angstrom
no_reorient  #important for SAPT in psi4, default
symmetry c1  #important for SAPT in psi4, default
}

set PROPERTIES_ORIGIN ["COM"]
properties('MP2/aug-cc-pvtz', properties = ['dipole'])
--------------------------------------------------------------------------

    Molecular point group: c1
  Charge       = 0
  Multiplicity = 1
  Basis Set: AUG-CC-PVTZ
    Blend: AUG-CC-PVTZ
  Basis Set: (AUG-CC-PVTZ AUX)
    Blend: AUG-CC-PVTZ-JKFIT

    Orbital Energies [Eh]
    ---------------------

    Doubly Occupied:

       1A    -15.611599     2A    -11.276352     3A    -11.256686
       4A    -11.254104     5A    -11.240456     6A    -11.240181
       7A    -11.239359     8A    -11.238545     9A    -11.237476
      10A    -11.236976    11A    -11.209112    12A    -11.200091
      13A     -1.327609    14A     -1.152446    15A     -1.077556
      16A     -1.035905    17A     -1.015600    18A     -0.962669
      19A     -0.940910    20A     -0.829301    21A     -0.826174
      22A     -0.779618    23A     -0.738884    24A     -0.716530
      25A     -0.677039    26A     -0.647923    27A     -0.630894
      28A     -0.622238    29A     -0.597781    30A     -0.587832
      31A     -0.584160    32A     -0.561701    33A     -0.536379
      34A     -0.533350    35A     -0.527985    36A     -0.502675
      37A     -0.492504    38A     -0.481528    39A     -0.348413
      40A     -0.341483    41A     -0.338357    42A     -0.276043

  @DF-RHF Final Energy:  -477.53773435640466

   => Energetics <=

    Nuclear Repulsion Energy =            639.6265443443880940
    One-Electron Energy =               -1914.4637068362183072
    Two-Electron Energy =                 797.2994281354256145
    Total Energy =                       -477.5377343564045987
  Basis Set: (AUG-CC-PVTZ AUX)
    Blend: AUG-CC-PVTZ-RI
    Molecular point group: c1

    Geometry (in Angstrom), charge = 0, multiplicity = 1:

       Center              X                  Y                   Z               Mass
    ------------   -----------------  -----------------  -----------------  -----------------
         N           -1.749377571283     0.666335325146     0.204619500027    14.003074004430
         C           -0.938349271283    -0.295429774854    -0.091985899973    12.000000000000
         C            0.599620428717    -0.176853674854    -0.062603499973    12.000000000000
         C           -1.605775571283    -1.465457674854    -0.448364499973    12.000000000000
         C           -3.032706571283     0.197405325146     0.065119500027    12.000000000000
         C           -2.971282571283    -1.124696674854    -0.342259499973    12.000000000000
         C           -1.417510571283     2.001455325146     0.675223500027    12.000000000000
         C            1.245676428717     0.902080325146    -0.690923499973    12.000000000000
         C            1.382442428717    -1.144828674854     0.589601500027    12.000000000000
         C            2.635302428717     1.018926325146    -0.648597499973    12.000000000000
         C            2.772674428717    -1.037083674854     0.611528500027    12.000000000000
         C            3.403649428717     0.049685325146     0.000706500027    12.000000000000
         H           -1.189349571283    -2.412909674854    -0.767944499973     1.007825032230
         H           -3.878592571283     0.837535325146     0.280061500027     1.007825032230
         H           -3.821577571283    -1.764129674854    -0.541603499973     1.007825032230
         H           -2.217532571283     2.345787325146     1.333308500027     1.007825032230
         H           -0.483288571283     1.966879325146     1.236578500027     1.007825032230
         H           -1.310187571283     2.705953325146    -0.154746499973     1.007825032230
         H            0.657345428717     1.632802325146    -1.241868499973     1.007825032230
         H            0.884990428717    -1.975223674854     1.085997500027     1.007825032230
         H            3.121117428717     1.858782325146    -1.140459499973     1.007825032230
         H            3.364797428717    -1.794835674854     1.119790500027     1.007825032230
         H            4.487063428717     0.138492325146     0.026573500027     1.007825032230

  Basis Set: AUG-CC-PVTZ
    Blend: AUG-CC-PVTZ
  Basis Set: (AUG-CC-PVTZ AUX)
    Blend: AUG-CC-PVTZ-JKFIT
	 Reference Energy          =    -477.5377343564046555 [Eh]
	 Singles Energy            =      -0.0000000000000000 [Eh]
	 Same-Spin Energy          =      -0.5382033335367039 [Eh]
	 Opposite-Spin Energy      =      -1.6810944838026427 [Eh]
	 Correlation Energy        =      -2.2192978173393465 [Eh]
	 Total Energy              =    -479.7570321737439940 [Eh]

	 ================> DF-SCS-MP2 Energies <==================
	-----------------------------------------------------------
	 SCS Same-Spin Scale       =       0.3333333333333333 [-]
	 SCS Opposite-Spin Scale   =       1.2000000000000000 [-]
	 SCS Same-Spin Energy      =      -0.1794011111789013 [Eh]
	 SCS Opposite-Spin Energy  =      -2.0173133805631713 [Eh]
	 SCS Correlation Energy    =      -2.1967144917420725 [Eh]
	 SCS Total Energy          =    -479.7344488481467124 [Eh]
	-----------------------------------------------------------

  Dipole Moment: [D]
     X:     0.4720      Y:     1.9924      Z:     0.7319     Total:     2.1744

*** Psi4 exiting successfully. Buy a developer a beer!
