                               Psi4 1.4a3.dev225

  ==> Input File <==

--------------------------------------------------------------------------
#psi4
#
memory 32 gb

molecule  {
0 1
  N       -1.7531090     0.6487580     0.1985890
  C       -0.8455115    -0.3739410    -0.1202467
  C        0.5958890    -0.1944310    -0.0686340
  C       -1.6095070    -1.4830350    -0.4543950
  C       -3.0364380     0.1798280     0.0590890
  C       -2.9750140    -1.1422740    -0.3482900
  C       -1.4212420     1.9838780     0.6691930
  C        1.2419450     0.8845030    -0.6969540
  C        1.3787110    -1.1624060     0.5835710
  C        2.6315710     1.0013490    -0.6546280
  C        2.7689430    -1.0546610     0.6054980
  C        3.3999180     0.0321080    -0.0053240
  H       -1.1930810    -2.4304870    -0.7739750
  H       -3.8823240     0.8199580     0.2740310
  H       -3.8253090    -1.7817070    -0.5476340
  H       -2.2212640     2.3282100     1.3272780
  H       -0.4870200     1.9493020     1.2305480
  H       -1.3139190     2.6883760    -0.1607770
  H        0.6536140     1.6152250    -1.2478990
  H        0.8812590    -1.9928010     1.0799670
  H        3.1173860     1.8412050    -1.1464900
  H        3.3610660    -1.8124130     1.1137600
  H        4.4833320     0.1209150     0.0205430
units angstrom
no_reorient  #important for SAPT in psi4, default
symmetry c1  #important for SAPT in psi4, default
}

set PROPERTIES_ORIGIN ["COM"]
properties('MP2/aug-cc-pvtz', properties = ['dipole'])
--------------------------------------------------------------------------

    Molecular point group: c1
  Charge       = 0
  Multiplicity = 1
  Basis Set: AUG-CC-PVTZ
    Blend: AUG-CC-PVTZ
  Basis Set: (AUG-CC-PVTZ AUX)
    Blend: AUG-CC-PVTZ-JKFIT

    Orbital Energies [Eh]
    ---------------------

    Doubly Occupied:

       1A    -15.606105     2A    -11.269589     3A    -11.256316
       4A    -11.250183     5A    -11.249469     6A    -11.240850
       7A    -11.239682     8A    -11.239312     9A    -11.238022
      10A    -11.236992    11A    -11.208611    12A    -11.207411
      13A     -1.293663    14A     -1.155518    15A     -1.073360
      16A     -1.045004    17A     -1.016264    18A     -0.955585
      19A     -0.931472    20A     -0.834422    21A     -0.830779
      22A     -0.769243    23A     -0.743822    24A     -0.711409
      25A     -0.677950    26A     -0.638950    27A     -0.631962
      28A     -0.622220    29A     -0.596451    30A     -0.587167
      31A     -0.569705    32A     -0.566784    33A     -0.539224
      34A     -0.526089    35A     -0.522586    36A     -0.501734
      37A     -0.496545    38A     -0.491483    39A     -0.355147
      40A     -0.340252    41A     -0.334653    42A     -0.275367

  @DF-RHF Final Energy:  -477.54496918424337

   => Energetics <=

    Nuclear Repulsion Energy =            638.9302631754375170
    One-Electron Energy =               -1913.1957627980946199
    Two-Electron Energy =                 796.7205304384135616
    Total Energy =                       -477.5449691842434277
  Basis Set: (AUG-CC-PVTZ AUX)
    Blend: AUG-CC-PVTZ-RI
    Molecular point group: c1

    Geometry (in Angstrom), charge = 0, multiplicity = 1:

       Center              X                  Y                   Z               Mass
    ------------   -----------------  -----------------  -----------------  -----------------
         N           -1.756754467808     0.670990050205     0.206317666966    14.003074004430
         C           -0.849156967808    -0.351708949795    -0.112518033034    12.000000000000
         C            0.592243532192    -0.172198949795    -0.060905333034    12.000000000000
         C           -1.613152467808    -1.460802949795    -0.446666333034    12.000000000000
         C           -3.040083467808     0.202060050205     0.066817666966    12.000000000000
         C           -2.978659467808    -1.120041949795    -0.340561333034    12.000000000000
         C           -1.424887467808     2.006110050205     0.676921666966    12.000000000000
         C            1.238299532192     0.906735050205    -0.689225333034    12.000000000000
         C            1.375065532192    -1.140173949795     0.591299666966    12.000000000000
         C            2.627925532192     1.023581050205    -0.646899333034    12.000000000000
         C            2.765297532192    -1.032428949795     0.613226666966    12.000000000000
         C            3.396272532192     0.054340050205     0.002404666966    12.000000000000
         H           -1.196726467808    -2.408254949795    -0.766246333034     1.007825032230
         H           -3.885969467808     0.842190050205     0.281759666966     1.007825032230
         H           -3.828954467808    -1.759474949795    -0.539905333034     1.007825032230
         H           -2.224909467808     2.350442050205     1.335006666966     1.007825032230
         H           -0.490665467808     1.971534050205     1.238276666966     1.007825032230
         H           -1.317564467808     2.710608050205    -0.153048333034     1.007825032230
         H            0.649968532192     1.637457050205    -1.240170333034     1.007825032230
         H            0.877613532192    -1.970568949795     1.087695666966     1.007825032230
         H            3.113740532192     1.863437050205    -1.138761333034     1.007825032230
         H            3.357420532192    -1.790180949795     1.121488666966     1.007825032230
         H            4.479686532192     0.143147050205     0.028271666966     1.007825032230

  Basis Set: AUG-CC-PVTZ
    Blend: AUG-CC-PVTZ
  Basis Set: (AUG-CC-PVTZ AUX)
    Blend: AUG-CC-PVTZ-JKFIT
	 Reference Energy          =    -477.5449691842433708 [Eh]
	 Singles Energy            =      -0.0000000000000000 [Eh]
	 Same-Spin Energy          =      -0.5392799230387721 [Eh]
	 Opposite-Spin Energy      =      -1.6835803118388428 [Eh]
	 Correlation Energy        =      -2.2228602348776150 [Eh]
	 Total Energy              =    -479.7678294191209716 [Eh]

	 ================> DF-SCS-MP2 Energies <==================
	-----------------------------------------------------------
	 SCS Same-Spin Scale       =       0.3333333333333333 [-]
	 SCS Opposite-Spin Scale   =       1.2000000000000000 [-]
	 SCS Same-Spin Energy      =      -0.1797599743462574 [Eh]
	 SCS Opposite-Spin Energy  =      -2.0202963742066111 [Eh]
	 SCS Correlation Energy    =      -2.2000563485528684 [Eh]
	 SCS Total Energy          =    -479.7450255327962623 [Eh]
	-----------------------------------------------------------

  Dipole Moment: [D]
     X:     0.4820      Y:     1.8292      Z:     0.6642     Total:     2.0048

*** Psi4 exiting successfully. Buy a developer a beer!
