                               Psi4 1.3.2 release

  ==> Input File <==

--------------------------------------------------------------------------
#psi4
#
memory 32 gb

molecule  {
0 1
  N       -1.7531090     0.6487580     0.1985890
  C       -0.8179670    -0.3846240    -0.1251738
  C        0.5958890    -0.1944310    -0.0686340
  C       -1.6095070    -1.4830350    -0.4543950
  C       -3.0364380     0.1798280     0.0590890
  C       -2.9750140    -1.1422740    -0.3482900
  C       -1.4212420     1.9838780     0.6691930
  C        1.2419450     0.8845030    -0.6969540
  C        1.3787110    -1.1624060     0.5835710
  C        2.6315710     1.0013490    -0.6546280
  C        2.7689430    -1.0546610     0.6054980
  C        3.3999180     0.0321080    -0.0053240
  H       -1.1930810    -2.4304870    -0.7739750
  H       -3.8823240     0.8199580     0.2740310
  H       -3.8253090    -1.7817070    -0.5476340
  H       -2.2212640     2.3282100     1.3272780
  H       -0.4870200     1.9493020     1.2305480
  H       -1.3139190     2.6883760    -0.1607770
  H        0.6536140     1.6152250    -1.2478990
  H        0.8812590    -1.9928010     1.0799670
  H        3.1173860     1.8412050    -1.1464900
  H        3.3610660    -1.8124130     1.1137600
  H        4.4833320     0.1209150     0.0205430
units angstrom
no_reorient  #important for SAPT in psi4, default
symmetry c1  #important for SAPT in psi4, default
}

set PROPERTIES_ORIGIN ["COM"]
properties('MP2/aug-cc-pvtz', properties = ['dipole'])
--------------------------------------------------------------------------

    Molecular point group: c1
  Charge       = 0
  Multiplicity = 1
  Basis Set: AUG-CC-PVTZ
    Blend: AUG-CC-PVTZ
  Basis Set: (AUG-CC-PVTZ AUX)
    Blend: AUG-CC-PVTZ-JKFIT

    Orbital Energies [Eh]
    ---------------------

    Doubly Occupied:

       1A    -15.604981     2A    -11.268033     3A    -11.256735
       4A    -11.252440     5A    -11.247883     6A    -11.241051
       7A    -11.239910     8A    -11.239414     9A    -11.238193
      10A    -11.237087    11A    -11.211113    12A    -11.207643
      13A     -1.286956    14A     -1.156684    15A     -1.072201
      16A     -1.047905    17A     -1.016486    18A     -0.954758
      19A     -0.928643    20A     -0.837169    21A     -0.831312
      22A     -0.766606    23A     -0.745361    24A     -0.709987
      25A     -0.678194    26A     -0.638375    27A     -0.632409
      28A     -0.621791    29A     -0.596577    30A     -0.587300
      31A     -0.571428    32A     -0.563017    33A     -0.540654
      34A     -0.523828    35A     -0.520735    36A     -0.502563
      37A     -0.497484    38A     -0.490893    39A     -0.357018
      40A     -0.340354    41A     -0.333656    42A     -0.273893

  @DF-RHF Final Energy:  -477.54095859737515

   => Energetics <=

    Nuclear Repulsion Energy =            638.8112820581891356
    One-Electron Energy =               -1912.9670455389834842
    Two-Electron Energy =                 796.6148048834191968
    Total Energy =                       -477.5409585973751518
  Basis Set: (AUG-CC-PVTZ AUX)
    Blend: AUG-CC-PVTZ-RI
    Molecular point group: c1

    Geometry (in Angstrom), charge = 0, multiplicity = 1:

       Center              X                  Y                   Z               Mass
    ------------   -----------------  -----------------  -----------------  -----------------
         N           -1.758858585128     0.671806121847     0.206694046877    14.003074004430
         C           -0.823716585128    -0.361575878153    -0.117068753123    12.000000000000
         C            0.590139414872    -0.171382878153    -0.060528953123    12.000000000000
         C           -1.615256585128    -1.459986878153    -0.446289953123    12.000000000000
         C           -3.042187585128     0.202876121847     0.067194046877    12.000000000000
         C           -2.980763585128    -1.119225878153    -0.340184953123    12.000000000000
         C           -1.426991585128     2.006926121847     0.677298046877    12.000000000000
         C            1.236195414872     0.907551121847    -0.688848953123    12.000000000000
         C            1.372961414872    -1.139357878153     0.591676046877    12.000000000000
         C            2.625821414872     1.024397121847    -0.646522953123    12.000000000000
         C            2.763193414872    -1.031612878153     0.613603046877    12.000000000000
         C            3.394168414872     0.055156121847     0.002781046877    12.000000000000
         H           -1.198830585128    -2.407438878153    -0.765869953123     1.007825032230
         H           -3.888073585128     0.843006121847     0.282136046877     1.007825032230
         H           -3.831058585128    -1.758658878153    -0.539528953123     1.007825032230
         H           -2.227013585128     2.351258121847     1.335383046877     1.007825032230
         H           -0.492769585128     1.972350121847     1.238653046877     1.007825032230
         H           -1.319668585128     2.711424121847    -0.152671953123     1.007825032230
         H            0.647864414872     1.638273121847    -1.239793953123     1.007825032230
         H            0.875509414872    -1.969752878153     1.088072046877     1.007825032230
         H            3.111636414872     1.864253121847    -1.138384953123     1.007825032230
         H            3.355316414872    -1.789364878153     1.121865046877     1.007825032230
         H            4.477582414872     0.143963121847     0.028648046877     1.007825032230

  Basis Set: AUG-CC-PVTZ
    Blend: AUG-CC-PVTZ
  Basis Set: (AUG-CC-PVTZ AUX)
    Blend: AUG-CC-PVTZ-JKFIT
	 Reference Energy          =    -477.5409585973751518 [Eh]
	 Singles Energy            =      -0.0000000000000000 [Eh]
	 Same-Spin Energy          =      -0.5398564354242393 [Eh]
	 Opposite-Spin Energy      =      -1.6846661069449143 [Eh]
	 Correlation Energy        =      -2.2245225423691535 [Eh]
	 Total Energy              =    -479.7654811397442813 [Eh]

	 ================> DF-SCS-MP2 Energies <==================
	-----------------------------------------------------------
	 SCS Same-Spin Scale       =       0.3333333333333333 [-]
	 SCS Opposite-Spin Scale   =       1.2000000000000000 [-]
	 SCS Same-Spin Energy      =      -0.1799521451414131 [Eh]
	 SCS Opposite-Spin Energy  =      -2.0215993283338971 [Eh]
	 SCS Correlation Energy    =      -2.2015514734753103 [Eh]
	 SCS Total Energy          =    -479.7425100708504715 [Eh]
	-----------------------------------------------------------

  Dipole Moment: [D]
     X:     0.4866      Y:     1.7986      Z:     0.6510     Total:     1.9737

*** Psi4 exiting successfully. Buy a developer a beer!
