                               Psi4 1.3.2 release

  ==> Input File <==

--------------------------------------------------------------------------
#psi4
#
memory 32 gb

molecule  {
0 1
  N       -1.7531090     0.6487580     0.1985890
  C       -0.8584400    -0.3593730    -0.1157050
  C        0.5958890    -0.1944310    -0.0686340
  C       -1.6095070    -1.4830350    -0.4543950
  C       -2.9397847     0.1806306     0.0595907
  C       -2.9750140    -1.1422740    -0.3482900
  C       -1.4212420     1.9838780     0.6691930
  C        1.2419450     0.8845030    -0.6969540
  C        1.3787110    -1.1624060     0.5835710
  C        2.6315710     1.0013490    -0.6546280
  C        2.7689430    -1.0546610     0.6054980
  C        3.3999180     0.0321080    -0.0053240
  H       -1.1930810    -2.4304870    -0.7739750
  H       -3.8823240     0.8199580     0.2740310
  H       -3.8253090    -1.7817070    -0.5476340
  H       -2.2212640     2.3282100     1.3272780
  H       -0.4870200     1.9493020     1.2305480
  H       -1.3139190     2.6883760    -0.1607770
  H        0.6536140     1.6152250    -1.2478990
  H        0.8812590    -1.9928010     1.0799670
  H        3.1173860     1.8412050    -1.1464900
  H        3.3610660    -1.8124130     1.1137600
  H        4.4833320     0.1209150     0.0205430
units angstrom
no_reorient  #important for SAPT in psi4, default
symmetry c1  #important for SAPT in psi4, default
}

set PROPERTIES_ORIGIN ["COM"]
properties('MP2/aug-cc-pvtz', properties = ['dipole'])
--------------------------------------------------------------------------

    Molecular point group: c1
  Charge       = 0
  Multiplicity = 1
  Basis Set: AUG-CC-PVTZ
    Blend: AUG-CC-PVTZ
  Basis Set: (AUG-CC-PVTZ AUX)
    Blend: AUG-CC-PVTZ-JKFIT

    Orbital Energies [Eh]
    ---------------------

    Doubly Occupied:

       1A    -15.611864     2A    -11.276397     3A    -11.250772
       4A    -11.249010     5A    -11.248139     6A    -11.239244
       7A    -11.237888     8A    -11.237320     9A    -11.235925
      10A    -11.234664    11A    -11.209254    12A    -11.201478
      13A     -1.328570    14A     -1.153868    15A     -1.079193
      16A     -1.044159    17A     -1.014555    18A     -0.955789
      19A     -0.943842    20A     -0.829699    21A     -0.828765
      22A     -0.777756    23A     -0.739041    24A     -0.716902
      25A     -0.675467    26A     -0.648100    27A     -0.629891
      28A     -0.622515    29A     -0.598012    30A     -0.586151
      31A     -0.584113    32A     -0.563281    33A     -0.538605
      34A     -0.534267    35A     -0.513857    36A     -0.499459
      37A     -0.492981    38A     -0.491006    39A     -0.356034
      40A     -0.339351    41A     -0.336858    42A     -0.271121

  @DF-RHF Final Energy:  -477.53497709034139

   => Energetics <=

    Nuclear Repulsion Energy =            641.3393841284830614
    One-Electron Energy =               -1917.8984061949206534
    Two-Electron Energy =                 799.0240449760962065
    Total Energy =                       -477.5349770903413855
  Basis Set: (AUG-CC-PVTZ AUX)
    Blend: AUG-CC-PVTZ-RI
    Molecular point group: c1

    Geometry (in Angstrom), charge = 0, multiplicity = 1:

       Center              X                  Y                   Z               Mass
    ------------   -----------------  -----------------  -----------------  -----------------
         N           -1.763150183897     0.669815893997     0.205932402929    14.003074004430
         C           -0.868481183897    -0.338315106003    -0.108361597071    12.000000000000
         C            0.585847816103    -0.173373106003    -0.061290597071    12.000000000000
         C           -1.619548183897    -1.461977106003    -0.447051597071    12.000000000000
         C           -2.949825883897     0.201688493997     0.066934102929    12.000000000000
         C           -2.985055183897    -1.121216106003    -0.340946597071    12.000000000000
         C           -1.431283183897     2.004935893997     0.676536402929    12.000000000000
         C            1.231903816103     0.905560893997    -0.689610597071    12.000000000000
         C            1.368669816103    -1.141348106003     0.590914402929    12.000000000000
         C            2.621529816103     1.022406893997    -0.647284597071    12.000000000000
         C            2.758901816103    -1.033603106003     0.612841402929    12.000000000000
         C            3.389876816103     0.053165893997     0.002019402929    12.000000000000
         H           -1.203122183897    -2.409429106003    -0.766631597071     1.007825032230
         H           -3.892365183897     0.841015893997     0.281374402929     1.007825032230
         H           -3.835350183897    -1.760649106003    -0.540290597071     1.007825032230
         H           -2.231305183897     2.349267893997     1.334621402929     1.007825032230
         H           -0.497061183897     1.970359893997     1.237891402929     1.007825032230
         H           -1.323960183897     2.709433893997    -0.153433597071     1.007825032230
         H            0.643572816103     1.636282893997    -1.240555597071     1.007825032230
         H            0.871217816103    -1.971743106003     1.087310402929     1.007825032230
         H            3.107344816103     1.862262893997    -1.139146597071     1.007825032230
         H            3.351024816103    -1.791355106003     1.121103402929     1.007825032230
         H            4.473290816103     0.141972893997     0.027886402929     1.007825032230

  Basis Set: AUG-CC-PVTZ
    Blend: AUG-CC-PVTZ
  Basis Set: (AUG-CC-PVTZ AUX)
    Blend: AUG-CC-PVTZ-JKFIT
	 Reference Energy          =    -477.5349770903413855 [Eh]
	 Singles Energy            =      -0.0000000000000000 [Eh]
	 Same-Spin Energy          =      -0.5393684782820549 [Eh]
	 Opposite-Spin Energy      =      -1.6823280180816234 [Eh]
	 Correlation Energy        =      -2.2216964963636783 [Eh]
	 Total Energy              =    -479.7566735867050625 [Eh]

	 ================> DF-SCS-MP2 Energies <==================
	-----------------------------------------------------------
	 SCS Same-Spin Scale       =       0.3333333333333333 [-]
	 SCS Opposite-Spin Scale   =       1.2000000000000000 [-]
	 SCS Same-Spin Energy      =      -0.1797894927606850 [Eh]
	 SCS Opposite-Spin Energy  =      -2.0187936216979478 [Eh]
	 SCS Correlation Energy    =      -2.1985831144586330 [Eh]
	 SCS Total Energy          =    -479.7335602048000283 [Eh]
	-----------------------------------------------------------

  Dipole Moment: [D]
     X:     0.4263      Y:     1.9703      Z:     0.7138     Total:     2.1385

*** Psi4 exiting successfully. Buy a developer a beer!
