                               Psi4 1.3.2 release

  ==> Input File <==

--------------------------------------------------------------------------
#psi4
#
memory 32 gb

molecule  {
0 1
  N       -1.7531090     0.6487580     0.1985890
  C       -0.8387029    -0.4861214    -0.0317954
  C        0.5958890    -0.1944310    -0.0686340
  C       -1.6095070    -1.4830350    -0.4543950
  C       -3.0364380     0.1798280     0.0590890
  C       -2.9750140    -1.1422740    -0.3482900
  C       -1.4212420     1.9838780     0.6691930
  C        1.2419450     0.8845030    -0.6969540
  C        1.3787110    -1.1624060     0.5835710
  C        2.6315710     1.0013490    -0.6546280
  C        2.7689430    -1.0546610     0.6054980
  C        3.3999180     0.0321080    -0.0053240
  H       -1.1930810    -2.4304870    -0.7739750
  H       -3.8823240     0.8199580     0.2740310
  H       -3.8253090    -1.7817070    -0.5476340
  H       -2.2212640     2.3282100     1.3272780
  H       -0.4870200     1.9493020     1.2305480
  H       -1.3139190     2.6883760    -0.1607770
  H        0.6536140     1.6152250    -1.2478990
  H        0.8812590    -1.9928010     1.0799670
  H        3.1173860     1.8412050    -1.1464900
  H        3.3610660    -1.8124130     1.1137600
  H        4.4833320     0.1209150     0.0205430
units angstrom
no_reorient  #important for SAPT in psi4, default
symmetry c1  #important for SAPT in psi4, default
}

set PROPERTIES_ORIGIN ["COM"]
properties('MP2/aug-cc-pvtz', properties = ['dipole'])
--------------------------------------------------------------------------

    Molecular point group: c1
  Charge       = 0
  Multiplicity = 1
  Basis Set: AUG-CC-PVTZ
    Blend: AUG-CC-PVTZ
  Basis Set: (AUG-CC-PVTZ AUX)
    Blend: AUG-CC-PVTZ-JKFIT

    Orbital Energies [Eh]
    ---------------------

    Doubly Occupied:

       1A    -15.597450     2A    -11.266176     3A    -11.255737
       4A    -11.255354     5A    -11.250382     6A    -11.241906
       7A    -11.240593     8A    -11.238364     9A    -11.237202
      10A    -11.234632    11A    -11.208932    12A    -11.205927
      13A     -1.278454    14A     -1.155003    15A     -1.079126
      16A     -1.042796    17A     -1.015833    18A     -0.959244
      19A     -0.924375    20A     -0.834747    21A     -0.829058
      22A     -0.766970    23A     -0.743699    24A     -0.709448
      25A     -0.676911    26A     -0.635152    27A     -0.629944
      28A     -0.620662    29A     -0.593085    30A     -0.586258
      31A     -0.576610    32A     -0.555903    33A     -0.543758
      34A     -0.524270    35A     -0.520064    36A     -0.500063
      37A     -0.498263    38A     -0.484832    39A     -0.360357
      40A     -0.339728    41A     -0.333056    42A     -0.280367

  @DF-RHF Final Energy:  -477.53119642429738

   => Energetics <=

    Nuclear Repulsion Energy =            638.3468149494674435
    One-Electron Energy =               -1912.0946382965103112
    Two-Electron Energy =                 796.2166269227454904
    Total Energy =                       -477.5311964242973772
  Basis Set: (AUG-CC-PVTZ AUX)
    Blend: AUG-CC-PVTZ-RI
    Molecular point group: c1

    Geometry (in Angstrom), charge = 0, multiplicity = 1:

       Center              X                  Y                   Z               Mass
    ------------   -----------------  -----------------  -----------------  -----------------
         N           -1.757274575023     0.679559482311     0.199560894749    14.003074004430
         C           -0.842868475023    -0.455319917689    -0.030823505251    12.000000000000
         C            0.591723424977    -0.163629517689    -0.067662105251    12.000000000000
         C           -1.613672575023    -1.452233517689    -0.453423105251    12.000000000000
         C           -3.040603575023     0.210629482311     0.060060894749    12.000000000000
         C           -2.979179575023    -1.111472517689    -0.347318105251    12.000000000000
         C           -1.425407575023     2.014679482311     0.670164894749    12.000000000000
         C            1.237779424977     0.915304482311    -0.695982105251    12.000000000000
         C            1.374545424977    -1.131604517689     0.584542894749    12.000000000000
         C            2.627405424977     1.032150482311    -0.653656105251    12.000000000000
         C            2.764777424977    -1.023859517689     0.606469894749    12.000000000000
         C            3.395752424977     0.062909482311    -0.004352105251    12.000000000000
         H           -1.197246575023    -2.399685517689    -0.773003105251     1.007825032230
         H           -3.886489575023     0.850759482311     0.275002894749     1.007825032230
         H           -3.829474575023    -1.750905517689    -0.546662105251     1.007825032230
         H           -2.225429575023     2.359011482311     1.328249894749     1.007825032230
         H           -0.491185575023     1.980103482311     1.231519894749     1.007825032230
         H           -1.318084575023     2.719177482311    -0.159805105251     1.007825032230
         H            0.649448424977     1.646026482311    -1.246927105251     1.007825032230
         H            0.877093424977    -1.961999517689     1.080938894749     1.007825032230
         H            3.113220424977     1.872006482311    -1.145518105251     1.007825032230
         H            3.356900424977    -1.781611517689     1.114731894749     1.007825032230
         H            4.479166424977     0.151716482311     0.021514894749     1.007825032230

  Basis Set: AUG-CC-PVTZ
    Blend: AUG-CC-PVTZ
  Basis Set: (AUG-CC-PVTZ AUX)
    Blend: AUG-CC-PVTZ-JKFIT
	 Reference Energy          =    -477.5311964242973772 [Eh]
	 Singles Energy            =      -0.0000000000000000 [Eh]
	 Same-Spin Energy          =      -0.5387148257334626 [Eh]
	 Opposite-Spin Energy      =      -1.6839635403587296 [Eh]
	 Correlation Energy        =      -2.2226783660921923 [Eh]
	 Total Energy              =    -479.7538747903895455 [Eh]

	 ================> DF-SCS-MP2 Energies <==================
	-----------------------------------------------------------
	 SCS Same-Spin Scale       =       0.3333333333333333 [-]
	 SCS Opposite-Spin Scale   =       1.2000000000000000 [-]
	 SCS Same-Spin Energy      =      -0.1795716085778209 [Eh]
	 SCS Opposite-Spin Energy  =      -2.0207562484304753 [Eh]
	 SCS Correlation Energy    =      -2.2003278570082960 [Eh]
	 SCS Total Energy          =    -479.7315242813056670 [Eh]
	-----------------------------------------------------------

  Dipole Moment: [D]
     X:     0.5119      Y:     1.6905      Z:     0.5744     Total:     1.8573

*** Psi4 exiting successfully. Buy a developer a beer!
