                               Psi4 1.3.2 release

  ==> Input File <==

--------------------------------------------------------------------------
#psi4
#
memory 32 gb

molecule  {
0 1
  N       -1.7531090     0.6487580     0.1985890
  C       -0.8584400    -0.3593730    -0.1157050
  C        0.5986607    -0.2187473    -0.0760008
  C       -1.6095070    -1.4830350    -0.4543950
  C       -3.0364380     0.1798280     0.0590890
  C       -2.9750140    -1.1422740    -0.3482900
  C       -1.4212420     1.9838780     0.6691930
  C        1.2419450     0.8845030    -0.6969540
  C        1.3787110    -1.1624060     0.5835710
  C        2.6315710     1.0013490    -0.6546280
  C        2.7689430    -1.0546610     0.6054980
  C        3.3999180     0.0321080    -0.0053240
  H       -1.1930810    -2.4304870    -0.7739750
  H       -3.8823240     0.8199580     0.2740310
  H       -3.8253090    -1.7817070    -0.5476340
  H       -2.2212640     2.3282100     1.3272780
  H       -0.4870200     1.9493020     1.2305480
  H       -1.3139190     2.6883760    -0.1607770
  H        0.6536140     1.6152250    -1.2478990
  H        0.8812590    -1.9928010     1.0799670
  H        3.1173860     1.8412050    -1.1464900
  H        3.3610660    -1.8124130     1.1137600
  H        4.4833320     0.1209150     0.0205430
units angstrom
no_reorient  #important for SAPT in psi4, default
symmetry c1  #important for SAPT in psi4, default
}

set PROPERTIES_ORIGIN ["COM"]
properties('MP2/aug-cc-pvtz', properties = ['dipole'])
--------------------------------------------------------------------------

    Molecular point group: c1
  Charge       = 0
  Multiplicity = 1
  Basis Set: AUG-CC-PVTZ
    Blend: AUG-CC-PVTZ
  Basis Set: (AUG-CC-PVTZ AUX)
    Blend: AUG-CC-PVTZ-JKFIT

    Orbital Energies [Eh]
    ---------------------

    Doubly Occupied:

       1A    -15.608077     2A    -11.270784     3A    -11.256329
       4A    -11.250190     5A    -11.248702     6A    -11.241305
       7A    -11.240008     8A    -11.239399     9A    -11.237838
      10A    -11.235589    11A    -11.208209    12A    -11.206582
      13A     -1.298904    14A     -1.155178    15A     -1.073536
      16A     -1.043858    17A     -1.016129    18A     -0.955966
      19A     -0.933389    20A     -0.833794    21A     -0.830098
      22A     -0.770675    23A     -0.743186    24A     -0.712295
      25A     -0.677925    26A     -0.640126    27A     -0.632191
      28A     -0.622049    29A     -0.597562    30A     -0.586812
      31A     -0.569995    32A     -0.568097    33A     -0.538031
      34A     -0.527196    35A     -0.523782    36A     -0.503203
      37A     -0.494545    38A     -0.490656    39A     -0.354161
      40A     -0.340391    41A     -0.335106    42A     -0.275094

  @DF-RHF Final Energy:  -477.54563576244118

   => Energetics <=

    Nuclear Repulsion Energy =            638.9892005943341928
    One-Electron Energy =               -1913.2957862701180147
    Two-Electron Energy =                 796.7609499133427562
    Total Energy =                       -477.5456357624411794
  Basis Set: (AUG-CC-PVTZ AUX)
    Blend: AUG-CC-PVTZ-RI
    Molecular point group: c1

    Geometry (in Angstrom), charge = 0, multiplicity = 1:

       Center              X                  Y                   Z               Mass
    ------------   -----------------  -----------------  -----------------  -----------------
         N           -1.755978592450     0.671734720352     0.206533475634    14.003074004430
         C           -0.861309592450    -0.336396279648    -0.107760524366    12.000000000000
         C            0.595791107550    -0.195770579648    -0.068056324366    12.000000000000
         C           -1.612376592450    -1.460058279648    -0.446450524366    12.000000000000
         C           -3.039307592450     0.202804720352     0.067033475634    12.000000000000
         C           -2.977883592450    -1.119297279648    -0.340345524366    12.000000000000
         C           -1.424111592450     2.006854720352     0.677137475634    12.000000000000
         C            1.239075407550     0.907479720352    -0.689009524366    12.000000000000
         C            1.375841407550    -1.139429279648     0.591515475634    12.000000000000
         C            2.628701407550     1.024325720352    -0.646683524366    12.000000000000
         C            2.766073407550    -1.031684279648     0.613442475634    12.000000000000
         C            3.397048407550     0.055084720352     0.002620475634    12.000000000000
         H           -1.195950592450    -2.407510279648    -0.766030524366     1.007825032230
         H           -3.885193592450     0.842934720352     0.281975475634     1.007825032230
         H           -3.828178592450    -1.758730279648    -0.539689524366     1.007825032230
         H           -2.224133592450     2.351186720352     1.335222475634     1.007825032230
         H           -0.489889592450     1.972278720352     1.238492475634     1.007825032230
         H           -1.316788592450     2.711352720352    -0.152832524366     1.007825032230
         H            0.650744407550     1.638201720352    -1.239954524366     1.007825032230
         H            0.878389407550    -1.969824279648     1.087911475634     1.007825032230
         H            3.114516407550     1.864181720352    -1.138545524366     1.007825032230
         H            3.358196407550    -1.789436279648     1.121704475634     1.007825032230
         H            4.480462407550     0.143891720352     0.028487475634     1.007825032230

  Basis Set: AUG-CC-PVTZ
    Blend: AUG-CC-PVTZ
  Basis Set: (AUG-CC-PVTZ AUX)
    Blend: AUG-CC-PVTZ-JKFIT
	 Reference Energy          =    -477.5456357624411794 [Eh]
	 Singles Energy            =      -0.0000000000000000 [Eh]
	 Same-Spin Energy          =      -0.5391213032111052 [Eh]
	 Opposite-Spin Energy      =      -1.6831684935182045 [Eh]
	 Correlation Energy        =      -2.2222897967293096 [Eh]
	 Total Energy              =    -479.7679255591704646 [Eh]

	 ================> DF-SCS-MP2 Energies <==================
	-----------------------------------------------------------
	 SCS Same-Spin Scale       =       0.3333333333333333 [-]
	 SCS Opposite-Spin Scale   =       1.2000000000000000 [-]
	 SCS Same-Spin Energy      =      -0.1797071010703684 [Eh]
	 SCS Opposite-Spin Energy  =      -2.0198021922218454 [Eh]
	 SCS Correlation Energy    =      -2.1995092932922140 [Eh]
	 SCS Total Energy          =    -479.7451450557334169 [Eh]
	-----------------------------------------------------------

  Dipole Moment: [D]
     X:     0.4679      Y:     1.8650      Z:     0.6815     Total:     2.0400

*** Psi4 exiting successfully. Buy a developer a beer!
