                               Psi4 1.3.2 release

  ==> Input File <==

--------------------------------------------------------------------------
#psi4
#
memory 32 gb

molecule  {
0 1
  N       -1.7221093     0.5620963     0.1717828
  C       -0.8584400    -0.3593730    -0.1157050
  C        0.5958890    -0.1944310    -0.0686340
  C       -1.6095070    -1.4830350    -0.4543950
  C       -3.0364380     0.1798280     0.0590890
  C       -2.9750140    -1.1422740    -0.3482900
  C       -1.4212420     1.9838780     0.6691930
  C        1.2419450     0.8845030    -0.6969540
  C        1.3787110    -1.1624060     0.5835710
  C        2.6315710     1.0013490    -0.6546280
  C        2.7689430    -1.0546610     0.6054980
  C        3.3999180     0.0321080    -0.0053240
  H       -1.1930810    -2.4304870    -0.7739750
  H       -3.8823240     0.8199580     0.2740310
  H       -3.8253090    -1.7817070    -0.5476340
  H       -2.2212640     2.3282100     1.3272780
  H       -0.4870200     1.9493020     1.2305480
  H       -1.3139190     2.6883760    -0.1607770
  H        0.6536140     1.6152250    -1.2478990
  H        0.8812590    -1.9928010     1.0799670
  H        3.1173860     1.8412050    -1.1464900
  H        3.3610660    -1.8124130     1.1137600
  H        4.4833320     0.1209150     0.0205430
units angstrom
no_reorient  #important for SAPT in psi4, default
symmetry c1  #important for SAPT in psi4, default
}

set PROPERTIES_ORIGIN ["COM"]
properties('MP2/aug-cc-pvtz', properties = ['dipole'])
--------------------------------------------------------------------------

    Molecular point group: c1
  Charge       = 0
  Multiplicity = 1
  Basis Set: AUG-CC-PVTZ
    Blend: AUG-CC-PVTZ
  Basis Set: (AUG-CC-PVTZ AUX)
    Blend: AUG-CC-PVTZ-JKFIT

    Orbital Energies [Eh]
    ---------------------

    Doubly Occupied:

       1A    -15.610035     2A    -11.278876     3A    -11.251438
       4A    -11.249646     5A    -11.241835     6A    -11.240726
       7A    -11.240446     8A    -11.240229     9A    -11.238976
      10A    -11.238030    11A    -11.206180    12A    -11.197069
      13A     -1.315905    14A     -1.155866    15A     -1.058148
      16A     -1.046951    17A     -1.017009    18A     -0.968154
      19A     -0.931816    20A     -0.835587    21A     -0.831569
      22A     -0.773702    23A     -0.739957    24A     -0.710144
      25A     -0.679996    26A     -0.641209    27A     -0.634774
      28A     -0.621168    29A     -0.595252    30A     -0.588449
      31A     -0.582466    32A     -0.544394    33A     -0.541813
      34A     -0.535327    35A     -0.522407    36A     -0.504578
      37A     -0.494217    38A     -0.492752    39A     -0.353172
      40A     -0.341042    41A     -0.333756    42A     -0.275060

  @DF-RHF Final Energy:  -477.53431441501073

   => Energetics <=

    Nuclear Repulsion Energy =            640.4157394206735034
    One-Electron Energy =               -1916.0998510513345536
    Two-Electron Energy =                 798.1497972156502101
    Total Energy =                       -477.5343144150107264
  Basis Set: (AUG-CC-PVTZ AUX)
    Blend: AUG-CC-PVTZ-RI
    Molecular point group: c1

    Geometry (in Angstrom), charge = 0, multiplicity = 1:

       Center              X                  Y                   Z               Mass
    ------------   -----------------  -----------------  -----------------  -----------------
         N           -1.727530505307     0.590940609567     0.181554057455    14.003074004430
         C           -0.863861205307    -0.330528690433    -0.105933742545    12.000000000000
         C            0.590467794693    -0.165586690433    -0.058862742545    12.000000000000
         C           -1.614928205307    -1.454190690433    -0.444623742545    12.000000000000
         C           -3.041859205307     0.208672309567     0.068860257455    12.000000000000
         C           -2.980435205307    -1.113429690433    -0.338518742545    12.000000000000
         C           -1.426663205307     2.012722309567     0.678964257455    12.000000000000
         C            1.236523794693     0.913347309567    -0.687182742545    12.000000000000
         C            1.373289794693    -1.133561690433     0.593342257455    12.000000000000
         C            2.626149794693     1.030193309567    -0.644856742545    12.000000000000
         C            2.763521794693    -1.025816690433     0.615269257455    12.000000000000
         C            3.394496794693     0.060952309567     0.004447257455    12.000000000000
         H           -1.198502205307    -2.401642690433    -0.764203742545     1.007825032230
         H           -3.887745205307     0.848802309567     0.283802257455     1.007825032230
         H           -3.830730205307    -1.752862690433    -0.537862742545     1.007825032230
         H           -2.226685205307     2.357054309567     1.337049257455     1.007825032230
         H           -0.492441205307     1.978146309567     1.240319257455     1.007825032230
         H           -1.319340205307     2.717220309567    -0.151005742545     1.007825032230
         H            0.648192794693     1.644069309567    -1.238127742545     1.007825032230
         H            0.875837794693    -1.963956690433     1.089738257455     1.007825032230
         H            3.111964794693     1.870049309567    -1.136718742545     1.007825032230
         H            3.355644794693    -1.783568690433     1.123531257455     1.007825032230
         H            4.477910794693     0.149759309567     0.030314257455     1.007825032230

  Basis Set: AUG-CC-PVTZ
    Blend: AUG-CC-PVTZ
  Basis Set: (AUG-CC-PVTZ AUX)
    Blend: AUG-CC-PVTZ-JKFIT
	 Reference Energy          =    -477.5343144150107264 [Eh]
	 Singles Energy            =      -0.0000000000000000 [Eh]
	 Same-Spin Energy          =      -0.5393561200351378 [Eh]
	 Opposite-Spin Energy      =      -1.6830422563551704 [Eh]
	 Correlation Energy        =      -2.2223983763903083 [Eh]
	 Total Energy              =    -479.7567127914010143 [Eh]

	 ================> DF-SCS-MP2 Energies <==================
	-----------------------------------------------------------
	 SCS Same-Spin Scale       =       0.3333333333333333 [-]
	 SCS Opposite-Spin Scale   =       1.2000000000000000 [-]
	 SCS Same-Spin Energy      =      -0.1797853733450459 [Eh]
	 SCS Opposite-Spin Energy  =      -2.0196507076262042 [Eh]
	 SCS Correlation Energy    =      -2.1994360809712501 [Eh]
	 SCS Total Energy          =    -479.7337504959819512 [Eh]
	-----------------------------------------------------------

  Dipole Moment: [D]
     X:     0.5419      Y:     2.1360      Z:     0.7620     Total:     2.3317

*** Psi4 exiting successfully. Buy a developer a beer!
