                               Psi4 1.3.2 release

  ==> Input File <==

--------------------------------------------------------------------------
#psi4
#
memory 32 gb

molecule  {
0 1
  N       -1.7531090     0.6487580     0.1985890
  C       -0.8584400    -0.3593730    -0.1157050
  C        0.5106430    -0.1568994    -0.0994999
  C       -1.6095070    -1.4830350    -0.4543950
  C       -3.0364380     0.1798280     0.0590890
  C       -2.9750140    -1.1422740    -0.3482900
  C       -1.4212420     1.9838780     0.6691930
  C        1.2419450     0.8845030    -0.6969540
  C        1.3787110    -1.1624060     0.5835710
  C        2.6315710     1.0013490    -0.6546280
  C        2.7689430    -1.0546610     0.6054980
  C        3.3999180     0.0321080    -0.0053240
  H       -1.1930810    -2.4304870    -0.7739750
  H       -3.8823240     0.8199580     0.2740310
  H       -3.8253090    -1.7817070    -0.5476340
  H       -2.2212640     2.3282100     1.3272780
  H       -0.4870200     1.9493020     1.2305480
  H       -1.3139190     2.6883760    -0.1607770
  H        0.6536140     1.6152250    -1.2478990
  H        0.8812590    -1.9928010     1.0799670
  H        3.1173860     1.8412050    -1.1464900
  H        3.3610660    -1.8124130     1.1137600
  H        4.4833320     0.1209150     0.0205430
units angstrom
no_reorient  #important for SAPT in psi4, default
symmetry c1  #important for SAPT in psi4, default
}

set PROPERTIES_ORIGIN ["COM"]
properties('MP2/aug-cc-pvtz', properties = ['dipole'])
--------------------------------------------------------------------------

    Molecular point group: c1
  Charge       = 0
  Multiplicity = 1
  Basis Set: AUG-CC-PVTZ
    Blend: AUG-CC-PVTZ
  Basis Set: (AUG-CC-PVTZ AUX)
    Blend: AUG-CC-PVTZ-JKFIT

    Orbital Energies [Eh]
    ---------------------

    Doubly Occupied:

       1A    -15.608457     2A    -11.271116     3A    -11.253165
       4A    -11.251826     5A    -11.251423     6A    -11.244759
       7A    -11.240288     8A    -11.239263     9A    -11.238414
      10A    -11.237233    11A    -11.211425    12A    -11.210112
      13A     -1.302213    14A     -1.147815    15A     -1.076198
      16A     -1.052170    17A     -1.011351    18A     -0.955097
      19A     -0.934900    20A     -0.841440    21A     -0.824716
      22A     -0.773794    23A     -0.744438    24A     -0.713759
      25A     -0.680265    26A     -0.640856    27A     -0.633934
      28A     -0.620318    29A     -0.594993    30A     -0.582387
      31A     -0.571770    32A     -0.569969    33A     -0.541054
      34A     -0.529454    35A     -0.526008    36A     -0.510494
      37A     -0.492611    38A     -0.476617    39A     -0.356395
      40A     -0.337935    41A     -0.336048    42A     -0.270505

  @DF-RHF Final Energy:  -477.53086582118402

   => Energetics <=

    Nuclear Repulsion Energy =            639.2630166213593839
    One-Electron Energy =               -1913.7737920799879703
    Two-Electron Energy =                 796.9799096374445071
    Total Energy =                       -477.5308658211840793
  Basis Set: (AUG-CC-PVTZ AUX)
    Blend: AUG-CC-PVTZ-RI
    Molecular point group: c1

    Geometry (in Angstrom), charge = 0, multiplicity = 1:

       Center              X                  Y                   Z               Mass
    ------------   -----------------  -----------------  -----------------  -----------------
         N           -1.749254942826     0.667010175067     0.208328565881    14.003074004430
         C           -0.854585942826    -0.341120824933    -0.105965434119    12.000000000000
         C            0.514497057174    -0.138647224933    -0.089760334119    12.000000000000
         C           -1.605652942826    -1.464782824933    -0.444655434119    12.000000000000
         C           -3.032583942826     0.198080175067     0.068828565881    12.000000000000
         C           -2.971159942826    -1.124021824933    -0.338550434119    12.000000000000
         C           -1.417387942826     2.002130175067     0.678932565881    12.000000000000
         C            1.245799057174     0.902755175067    -0.687214434119    12.000000000000
         C            1.382565057174    -1.144153824933     0.593310565881    12.000000000000
         C            2.635425057174     1.019601175067    -0.644888434119    12.000000000000
         C            2.772797057174    -1.036408824933     0.615237565881    12.000000000000
         C            3.403772057174     0.050360175067     0.004415565881    12.000000000000
         H           -1.189226942826    -2.412234824933    -0.764235434119     1.007825032230
         H           -3.878469942826     0.838210175067     0.283770565881     1.007825032230
         H           -3.821454942826    -1.763454824933    -0.537894434119     1.007825032230
         H           -2.217409942826     2.346462175067     1.337017565881     1.007825032230
         H           -0.483165942826     1.967554175067     1.240287565881     1.007825032230
         H           -1.310064942826     2.706628175067    -0.151037434119     1.007825032230
         H            0.657468057174     1.633477175067    -1.238159434119     1.007825032230
         H            0.885113057174    -1.974548824933     1.089706565881     1.007825032230
         H            3.121240057174     1.859457175067    -1.136750434119     1.007825032230
         H            3.364920057174    -1.794160824933     1.123499565881     1.007825032230
         H            4.487186057174     0.139167175067     0.030282565881     1.007825032230

  Basis Set: AUG-CC-PVTZ
    Blend: AUG-CC-PVTZ
  Basis Set: (AUG-CC-PVTZ AUX)
    Blend: AUG-CC-PVTZ-JKFIT
	 Reference Energy          =    -477.5308658211840225 [Eh]
	 Singles Energy            =      -0.0000000000000000 [Eh]
	 Same-Spin Energy          =      -0.5409221705488894 [Eh]
	 Opposite-Spin Energy      =      -1.6860375888159493 [Eh]
	 Correlation Energy        =      -2.2269597593648385 [Eh]
	 Total Energy              =    -479.7578255805488538 [Eh]

	 ================> DF-SCS-MP2 Energies <==================
	-----------------------------------------------------------
	 SCS Same-Spin Scale       =       0.3333333333333333 [-]
	 SCS Opposite-Spin Scale   =       1.2000000000000000 [-]
	 SCS Same-Spin Energy      =      -0.1803073901829631 [Eh]
	 SCS Opposite-Spin Energy  =      -2.0232451065791390 [Eh]
	 SCS Correlation Energy    =      -2.2035524967621023 [Eh]
	 SCS Total Energy          =    -479.7344183179461083 [Eh]
	-----------------------------------------------------------

  Dipole Moment: [D]
     X:     0.2100      Y:     1.8312      Z:     0.6551     Total:     1.9561

*** Psi4 exiting successfully. Buy a developer a beer!
