                               Psi4 1.3.2 release

  ==> Input File <==

--------------------------------------------------------------------------
#psi4
#
memory 32 gb

molecule  {
0 1
  N       -1.7221183     0.5625272     0.1704173
  C       -0.8584400    -0.3593730    -0.1157050
  C        0.5958890    -0.1944310    -0.0686340
  C       -1.6095070    -1.4830350    -0.4543950
  C       -3.0364380     0.1798280     0.0590890
  C       -2.9750140    -1.1422740    -0.3482900
  C       -1.4212420     1.9838780     0.6691930
  C        1.2419450     0.8845030    -0.6969540
  C        1.3787110    -1.1624060     0.5835710
  C        2.6315710     1.0013490    -0.6546280
  C        2.7689430    -1.0546610     0.6054980
  C        3.3999180     0.0321080    -0.0053240
  H       -1.1930810    -2.4304870    -0.7739750
  H       -3.8823240     0.8199580     0.2740310
  H       -3.8253090    -1.7817070    -0.5476340
  H       -2.2212640     2.3282100     1.3272780
  H       -0.4870200     1.9493020     1.2305480
  H       -1.3139190     2.6883760    -0.1607770
  H        0.6536140     1.6152250    -1.2478990
  H        0.8812590    -1.9928010     1.0799670
  H        3.1173860     1.8412050    -1.1464900
  H        3.3610660    -1.8124130     1.1137600
  H        4.4833320     0.1209150     0.0205430
units angstrom
no_reorient  #important for SAPT in psi4, default
symmetry c1  #important for SAPT in psi4, default
}

set PROPERTIES_ORIGIN ["COM"]
properties('MP2/aug-cc-pvtz', properties = ['dipole'])
--------------------------------------------------------------------------

    Molecular point group: c1
  Charge       = 0
  Multiplicity = 1
  Basis Set: AUG-CC-PVTZ
    Blend: AUG-CC-PVTZ
  Basis Set: (AUG-CC-PVTZ AUX)
    Blend: AUG-CC-PVTZ-JKFIT

    Orbital Energies [Eh]
    ---------------------

    Doubly Occupied:

       1A    -15.610034     2A    -11.278879     3A    -11.251439
       4A    -11.249649     5A    -11.241831     6A    -11.240721
       7A    -11.240454     8A    -11.240227     9A    -11.238970
      10A    -11.238026    11A    -11.206182    12A    -11.197074
      13A     -1.315902    14A     -1.155863    15A     -1.058143
      16A     -1.046950    17A     -1.017005    18A     -0.968151
      19A     -0.931819    20A     -0.835586    21A     -0.831567
      22A     -0.773697    23A     -0.739956    24A     -0.710144
      25A     -0.679989    26A     -0.641205    27A     -0.634766
      28A     -0.621185    29A     -0.595246    30A     -0.588442
      31A     -0.582475    32A     -0.544334    33A     -0.541868
      34A     -0.535322    35A     -0.522419    36A     -0.504578
      37A     -0.494209    38A     -0.492752    39A     -0.353192
      40A     -0.341039    41A     -0.333759    42A     -0.275042

  @DF-RHF Final Energy:  -477.53431557863365

   => Energetics <=

    Nuclear Repulsion Energy =            640.4154504490293220
    One-Electron Energy =               -1916.0993526181496236
    Two-Electron Energy =                 798.1495865904867060
    Total Energy =                       -477.5343155786335956
  Basis Set: (AUG-CC-PVTZ AUX)
    Blend: AUG-CC-PVTZ-RI
    Molecular point group: c1

    Geometry (in Angstrom), charge = 0, multiplicity = 1:

       Center              X                  Y                   Z               Mass
    ------------   -----------------  -----------------  -----------------  -----------------
         N           -1.727538703038     0.591333098737     0.180310279405    14.003074004430
         C           -0.863860403038    -0.330567101263    -0.105812020595    12.000000000000
         C            0.590468596962    -0.165625101263    -0.058741020595    12.000000000000
         C           -1.614927403038    -1.454229101263    -0.444502020595    12.000000000000
         C           -3.041858403038     0.208633898737     0.068981979405    12.000000000000
         C           -2.980434403038    -1.113468101263    -0.338397020595    12.000000000000
         C           -1.426662403038     2.012683898737     0.679085979405    12.000000000000
         C            1.236524596962     0.913308898737    -0.687061020595    12.000000000000
         C            1.373290596962    -1.133600101263     0.593463979405    12.000000000000
         C            2.626150596962     1.030154898737    -0.644735020595    12.000000000000
         C            2.763522596962    -1.025855101263     0.615390979405    12.000000000000
         C            3.394497596962     0.060913898737     0.004568979405    12.000000000000
         H           -1.198501403038    -2.401681101263    -0.764082020595     1.007825032230
         H           -3.887744403038     0.848763898737     0.283923979405     1.007825032230
         H           -3.830729403038    -1.752901101263    -0.537741020595     1.007825032230
         H           -2.226684403038     2.357015898737     1.337170979405     1.007825032230
         H           -0.492440403038     1.978107898737     1.240440979405     1.007825032230
         H           -1.319339403038     2.717181898737    -0.150884020595     1.007825032230
         H            0.648193596962     1.644030898737    -1.238006020595     1.007825032230
         H            0.875838596962    -1.963995101263     1.089859979405     1.007825032230
         H            3.111965596962     1.870010898737    -1.136597020595     1.007825032230
         H            3.355645596962    -1.783607101263     1.123652979405     1.007825032230
         H            4.477911596962     0.149720898737     0.030435979405     1.007825032230

  Basis Set: AUG-CC-PVTZ
    Blend: AUG-CC-PVTZ
  Basis Set: (AUG-CC-PVTZ AUX)
    Blend: AUG-CC-PVTZ-JKFIT
	 Reference Energy          =    -477.5343155786336524 [Eh]
	 Singles Energy            =      -0.0000000000000000 [Eh]
	 Same-Spin Energy          =      -0.5393565551935975 [Eh]
	 Opposite-Spin Energy      =      -1.6830436006977978 [Eh]
	 Correlation Energy        =      -2.2224001558913953 [Eh]
	 Total Energy              =    -479.7567157345250735 [Eh]

	 ================> DF-SCS-MP2 Energies <==================
	-----------------------------------------------------------
	 SCS Same-Spin Scale       =       0.3333333333333333 [-]
	 SCS Opposite-Spin Scale   =       1.2000000000000000 [-]
	 SCS Same-Spin Energy      =      -0.1797855183978658 [Eh]
	 SCS Opposite-Spin Energy  =      -2.0196523208373574 [Eh]
	 SCS Correlation Energy    =      -2.1994378392352232 [Eh]
	 SCS Total Energy          =    -479.7337534178688543 [Eh]
	-----------------------------------------------------------

  Dipole Moment: [D]
     X:     0.5411      Y:     2.1359      Z:     0.7626     Total:     2.3316

*** Psi4 exiting successfully. Buy a developer a beer!
