                               Psi4 1.3.2 release

  ==> Input File <==

--------------------------------------------------------------------------
#psi4
#
memory 32 gb

molecule  {
0 1
  N       -1.7531090     0.6487580     0.1985890
  C       -0.8584400    -0.3593730    -0.1157050
  C        0.6842825    -0.2267061    -0.0408292
  C       -1.6095070    -1.4830350    -0.4543950
  C       -3.0364380     0.1798280     0.0590890
  C       -2.9750140    -1.1422740    -0.3482900
  C       -1.4212420     1.9838780     0.6691930
  C        1.2419450     0.8845030    -0.6969540
  C        1.3787110    -1.1624060     0.5835710
  C        2.6315710     1.0013490    -0.6546280
  C        2.7689430    -1.0546610     0.6054980
  C        3.3999180     0.0321080    -0.0053240
  H       -1.1930810    -2.4304870    -0.7739750
  H       -3.8823240     0.8199580     0.2740310
  H       -3.8253090    -1.7817070    -0.5476340
  H       -2.2212640     2.3282100     1.3272780
  H       -0.4870200     1.9493020     1.2305480
  H       -1.3139190     2.6883760    -0.1607770
  H        0.6536140     1.6152250    -1.2478990
  H        0.8812590    -1.9928010     1.0799670
  H        3.1173860     1.8412050    -1.1464900
  H        3.3610660    -1.8124130     1.1137600
  H        4.4833320     0.1209150     0.0205430
units angstrom
no_reorient  #important for SAPT in psi4, default
symmetry c1  #important for SAPT in psi4, default
}

set PROPERTIES_ORIGIN ["COM"]
properties('MP2/aug-cc-pvtz', properties = ['dipole'])
--------------------------------------------------------------------------

    Molecular point group: c1
  Charge       = 0
  Multiplicity = 1
  Basis Set: AUG-CC-PVTZ
    Blend: AUG-CC-PVTZ
  Basis Set: (AUG-CC-PVTZ AUX)
    Blend: AUG-CC-PVTZ-JKFIT

    Orbital Energies [Eh]
    ---------------------

    Doubly Occupied:

       1A    -15.606443     2A    -11.270126     3A    -11.258568
       4A    -11.247988     5A    -11.245877     6A    -11.241523
       7A    -11.240649     8A    -11.240075     9A    -11.237809
      10A    -11.228468    11A    -11.206107    12A    -11.203551
      13A     -1.295876    14A     -1.164939    15A     -1.070893
      16A     -1.040001    17A     -1.021081    18A     -0.955388
      19A     -0.931849    20A     -0.838129    21A     -0.825256
      22A     -0.768027    23A     -0.741171    24A     -0.711563
      25A     -0.675374    26A     -0.639832    27A     -0.630893
      28A     -0.626767    29A     -0.599634    30A     -0.589213
      31A     -0.567949    32A     -0.565064    33A     -0.536195
      34A     -0.525113    35A     -0.521997    36A     -0.508194
      37A     -0.502451    38A     -0.478087    39A     -0.356829
      40A     -0.341070    41A     -0.333411    42A     -0.277877

  @DF-RHF Final Energy:  -477.53656217840683

   => Energetics <=

    Nuclear Repulsion Energy =            638.9853357384052970
    One-Electron Energy =               -1913.3091741882878978
    Two-Electron Energy =                 796.7872762714758892
    Total Energy =                       -477.5365621784068253
  Basis Set: (AUG-CC-PVTZ AUX)
    Blend: AUG-CC-PVTZ-RI
    Molecular point group: c1

    Geometry (in Angstrom), charge = 0, multiplicity = 1:

       Center              X                  Y                   Z               Mass
    ------------   -----------------  -----------------  -----------------  -----------------
         N           -1.762519219884     0.672342691052     0.203846726093    14.003074004430
         C           -0.867850219884    -0.335788308948    -0.110447273907    12.000000000000
         C            0.674872280116    -0.203121408948    -0.035571473907    12.000000000000
         C           -1.618917219884    -1.459450308948    -0.449137273907    12.000000000000
         C           -3.045848219884     0.203412691052     0.064346726093    12.000000000000
         C           -2.984424219884    -1.118689308948    -0.343032273907    12.000000000000
         C           -1.430652219884     2.007462691052     0.674450726093    12.000000000000
         C            1.232534780116     0.908087691052    -0.691696273907    12.000000000000
         C            1.369300780116    -1.138821308948     0.588828726093    12.000000000000
         C            2.622160780116     1.024933691052    -0.649370273907    12.000000000000
         C            2.759532780116    -1.031076308948     0.610755726093    12.000000000000
         C            3.390507780116     0.055692691052    -0.000066273907    12.000000000000
         H           -1.202491219884    -2.406902308948    -0.768717273907     1.007825032230
         H           -3.891734219884     0.843542691052     0.279288726093     1.007825032230
         H           -3.834719219884    -1.758122308948    -0.542376273907     1.007825032230
         H           -2.230674219884     2.351794691052     1.332535726093     1.007825032230
         H           -0.496430219884     1.972886691052     1.235805726093     1.007825032230
         H           -1.323329219884     2.711960691052    -0.155519273907     1.007825032230
         H            0.644203780116     1.638809691052    -1.242641273907     1.007825032230
         H            0.871848780116    -1.969216308948     1.085224726093     1.007825032230
         H            3.107975780116     1.864789691052    -1.141232273907     1.007825032230
         H            3.351655780116    -1.788828308948     1.119017726093     1.007825032230
         H            4.473921780116     0.144499691052     0.025800726093     1.007825032230

  Basis Set: AUG-CC-PVTZ
    Blend: AUG-CC-PVTZ
  Basis Set: (AUG-CC-PVTZ AUX)
    Blend: AUG-CC-PVTZ-JKFIT
	 Reference Energy          =    -477.5365621784068253 [Eh]
	 Singles Energy            =      -0.0000000000000000 [Eh]
	 Same-Spin Energy          =      -0.5381448832283522 [Eh]
	 Opposite-Spin Energy      =      -1.6820434254807515 [Eh]
	 Correlation Energy        =      -2.2201883087091039 [Eh]
	 Total Energy              =    -479.7567504871159372 [Eh]

	 ================> DF-SCS-MP2 Energies <==================
	-----------------------------------------------------------
	 SCS Same-Spin Scale       =       0.3333333333333333 [-]
	 SCS Opposite-Spin Scale   =       1.2000000000000000 [-]
	 SCS Same-Spin Energy      =      -0.1793816277427840 [Eh]
	 SCS Opposite-Spin Energy  =      -2.0184521105769018 [Eh]
	 SCS Correlation Energy    =      -2.1978337383196860 [Eh]
	 SCS Total Energy          =    -479.7343959167264984 [Eh]
	-----------------------------------------------------------

  Dipole Moment: [D]
     X:     0.7038      Y:     1.8811      Z:     0.6973     Total:     2.1261

*** Psi4 exiting successfully. Buy a developer a beer!
