                               Psi4 1.3.2 release

  ==> Input File <==

--------------------------------------------------------------------------
#psi4
#
memory 32 gb

molecule  {
0 1
  N       -1.7531090     0.6487580     0.1985890
  C       -0.8584400    -0.3593730    -0.1157050
  C        0.5958890    -0.1944310    -0.0686340
  C       -1.6095070    -1.4830350    -0.4543950
  C       -3.0364380     0.1798280     0.0590890
  C       -2.9750140    -1.1422740    -0.3482900
  C       -1.4212420     1.9838780     0.6691930
  C        1.3686638     0.8249352    -0.6517160
  C        1.3787110    -1.1624060     0.5835710
  C        2.6315710     1.0013490    -0.6546280
  C        2.7689430    -1.0546610     0.6054980
  C        3.3999180     0.0321080    -0.0053240
  H       -1.1930810    -2.4304870    -0.7739750
  H       -3.8823240     0.8199580     0.2740310
  H       -3.8253090    -1.7817070    -0.5476340
  H       -2.2212640     2.3282100     1.3272780
  H       -0.4870200     1.9493020     1.2305480
  H       -1.3139190     2.6883760    -0.1607770
  H        0.6536140     1.6152250    -1.2478990
  H        0.8812590    -1.9928010     1.0799670
  H        3.1173860     1.8412050    -1.1464900
  H        3.3610660    -1.8124130     1.1137600
  H        4.4833320     0.1209150     0.0205430
units angstrom
no_reorient  #important for SAPT in psi4, default
symmetry c1  #important for SAPT in psi4, default
}

set PROPERTIES_ORIGIN ["COM"]
properties('MP2/aug-cc-pvtz', properties = ['dipole'])
--------------------------------------------------------------------------

    Molecular point group: c1
  Charge       = 0
  Multiplicity = 1
  Basis Set: AUG-CC-PVTZ
    Blend: AUG-CC-PVTZ
  Basis Set: (AUG-CC-PVTZ AUX)
    Blend: AUG-CC-PVTZ-JKFIT

    Orbital Energies [Eh]
    ---------------------

    Doubly Occupied:

       1A    -15.608434     2A    -11.270601     3A    -11.259774
       4A    -11.249920     5A    -11.249722     6A    -11.239011
       7A    -11.237431     8A    -11.237349     9A    -11.235692
      10A    -11.224838    11A    -11.209873    12A    -11.208710
      13A     -1.299623    14A     -1.169423    15A     -1.074856
      16A     -1.047187    17A     -1.025005    18A     -0.957346
      19A     -0.933796    20A     -0.841670    21A     -0.819753
      22A     -0.771658    23A     -0.747601    24A     -0.713400
      25A     -0.676759    26A     -0.643599    27A     -0.629549
      28A     -0.626393    29A     -0.597506    30A     -0.577717
      31A     -0.570437    32A     -0.564848    33A     -0.539939
      34A     -0.527542    35A     -0.524301    36A     -0.513064
      37A     -0.506861    38A     -0.459092    39A     -0.356141
      40A     -0.349815    41A     -0.336406    42A     -0.275309

  @DF-RHF Final Energy:  -477.51772732359512

   => Energetics <=

    Nuclear Repulsion Energy =            640.2548551353062294
    One-Electron Energy =               -1915.7292735220171380
    Two-Electron Energy =                 797.9566910631159544
    Total Energy =                       -477.5177273235950679
  Basis Set: (AUG-CC-PVTZ AUX)
    Blend: AUG-CC-PVTZ-RI
    Molecular point group: c1

    Geometry (in Angstrom), charge = 0, multiplicity = 1:

       Center              X                  Y                   Z               Mass
    ------------   -----------------  -----------------  -----------------  -----------------
         N           -1.765446879763     0.674427573434     0.202515008397    14.003074004430
         C           -0.870777879763    -0.333703426566    -0.111778991603    12.000000000000
         C            0.583551120237    -0.168761426566    -0.064707991603    12.000000000000
         C           -1.621844879763    -1.457365426566    -0.450468991603    12.000000000000
         C           -3.048775879763     0.205497573434     0.063015008397    12.000000000000
         C           -2.987351879763    -1.116604426566    -0.344363991603    12.000000000000
         C           -1.433579879763     2.009547573434     0.673119008397    12.000000000000
         C            1.356325920237     0.850604773434    -0.647789991603    12.000000000000
         C            1.366373120237    -1.136736426566     0.587497008397    12.000000000000
         C            2.619233120237     1.027018573434    -0.650701991603    12.000000000000
         C            2.756605120237    -1.028991426566     0.609424008397    12.000000000000
         C            3.387580120237     0.057777573434    -0.001397991603    12.000000000000
         H           -1.205418879763    -2.404817426566    -0.770048991603     1.007825032230
         H           -3.894661879763     0.845627573434     0.277957008397     1.007825032230
         H           -3.837646879763    -1.756037426566    -0.543707991603     1.007825032230
         H           -2.233601879763     2.353879573434     1.331204008397     1.007825032230
         H           -0.499357879763     1.974971573434     1.234474008397     1.007825032230
         H           -1.326256879763     2.714045573434    -0.156850991603     1.007825032230
         H            0.641276120237     1.640894573434    -1.243972991603     1.007825032230
         H            0.868921120237    -1.967131426566     1.083893008397     1.007825032230
         H            3.105048120237     1.866874573434    -1.142563991603     1.007825032230
         H            3.348728120237    -1.786743426566     1.117686008397     1.007825032230
         H            4.470994120237     0.146584573434     0.024469008397     1.007825032230

  Basis Set: AUG-CC-PVTZ
    Blend: AUG-CC-PVTZ
  Basis Set: (AUG-CC-PVTZ AUX)
    Blend: AUG-CC-PVTZ-JKFIT
	 Reference Energy          =    -477.5177273235951247 [Eh]
	 Singles Energy            =      -0.0000000000000000 [Eh]
	 Same-Spin Energy          =      -0.5395843186296228 [Eh]
	 Opposite-Spin Energy      =      -1.6840494057939228 [Eh]
	 Correlation Energy        =      -2.2236337244235456 [Eh]
	 Total Energy              =    -479.7413610480186890 [Eh]

	 ================> DF-SCS-MP2 Energies <==================
	-----------------------------------------------------------
	 SCS Same-Spin Scale       =       0.3333333333333333 [-]
	 SCS Opposite-Spin Scale   =       1.2000000000000000 [-]
	 SCS Same-Spin Energy      =      -0.1798614395432076 [Eh]
	 SCS Opposite-Spin Energy  =      -2.0208592869527071 [Eh]
	 SCS Correlation Energy    =      -2.2007207264959145 [Eh]
	 SCS Total Energy          =    -479.7184480500910126 [Eh]
	-----------------------------------------------------------

  Dipole Moment: [D]
     X:     0.4163      Y:     1.8056      Z:     0.7223     Total:     1.9888

*** Psi4 exiting successfully. Buy a developer a beer!
