                               Psi4 1.3.2 release

  ==> Input File <==

--------------------------------------------------------------------------
#psi4
#
memory 32 gb

molecule  {
0 1
  N       -1.7531090     0.6487580     0.1985890
  C       -0.8584400    -0.3593730    -0.1157050
  C        0.6177089    -0.2029992    -0.0613903
  C       -1.6095070    -1.4830350    -0.4543950
  C       -3.0364380     0.1798280     0.0590890
  C       -2.9750140    -1.1422740    -0.3482900
  C       -1.4212420     1.9838780     0.6691930
  C        1.2419450     0.8845030    -0.6969540
  C        1.3787110    -1.1624060     0.5835710
  C        2.6315710     1.0013490    -0.6546280
  C        2.7689430    -1.0546610     0.6054980
  C        3.3999180     0.0321080    -0.0053240
  H       -1.1930810    -2.4304870    -0.7739750
  H       -3.8823240     0.8199580     0.2740310
  H       -3.8253090    -1.7817070    -0.5476340
  H       -2.2212640     2.3282100     1.3272780
  H       -0.4870200     1.9493020     1.2305480
  H       -1.3139190     2.6883760    -0.1607770
  H        0.6536140     1.6152250    -1.2478990
  H        0.8812590    -1.9928010     1.0799670
  H        3.1173860     1.8412050    -1.1464900
  H        3.3610660    -1.8124130     1.1137600
  H        4.4833320     0.1209150     0.0205430
units angstrom
no_reorient  #important for SAPT in psi4, default
symmetry c1  #important for SAPT in psi4, default
}

set PROPERTIES_ORIGIN ["COM"]
properties('MP2/aug-cc-pvtz', properties = ['dipole'])
--------------------------------------------------------------------------

    Molecular point group: c1
  Charge       = 0
  Multiplicity = 1
  Basis Set: AUG-CC-PVTZ
    Blend: AUG-CC-PVTZ
  Basis Set: (AUG-CC-PVTZ AUX)
    Blend: AUG-CC-PVTZ-JKFIT

    Orbital Energies [Eh]
    ---------------------

    Doubly Occupied:

       1A    -15.607355     2A    -11.270550     3A    -11.257166
       4A    -11.249626     5A    -11.247877     6A    -11.240880
       7A    -11.239720     8A    -11.239428     9A    -11.237901
      10A    -11.235076    11A    -11.207780    12A    -11.206122
      13A     -1.298116    14A     -1.157274    15A     -1.072731
      16A     -1.042395    17A     -1.017540    18A     -0.955949
      19A     -0.932996    20A     -0.832883    21A     -0.830753
      22A     -0.770078    23A     -0.742625    24A     -0.712027
      25A     -0.677256    26A     -0.639867    27A     -0.631692
      28A     -0.623369    29A     -0.597291    30A     -0.588076
      31A     -0.569322    32A     -0.567470    33A     -0.537520
      34A     -0.526690    35A     -0.523277    36A     -0.502842
      37A     -0.495053    38A     -0.491823    39A     -0.354054
      40A     -0.340822    41A     -0.334851    42A     -0.276014

  @DF-RHF Final Energy:  -477.54600366041802

   => Energetics <=

    Nuclear Repulsion Energy =            639.0141537168125296
    One-Electron Energy =               -1913.3560497046003093
    Two-Electron Energy =                 796.7958923273696428
    Total Energy =                       -477.5460036604180232
  Basis Set: (AUG-CC-PVTZ AUX)
    Blend: AUG-CC-PVTZ-RI
    Molecular point group: c1

    Geometry (in Angstrom), charge = 0, multiplicity = 1:

       Center              X                  Y                   Z               Mass
    ------------   -----------------  -----------------  -----------------  -----------------
         N           -1.757433679583     0.670531727015     0.205417383270    14.003074004430
         C           -0.862764679583    -0.337599272985    -0.108876616730    12.000000000000
         C            0.613384220417    -0.181225472985    -0.054561916730    12.000000000000
         C           -1.613831679583    -1.461261272985    -0.447566616730    12.000000000000
         C           -3.040762679583     0.201601727015     0.065917383270    12.000000000000
         C           -2.979338679583    -1.120500272985    -0.341461616730    12.000000000000
         C           -1.425566679583     2.005651727015     0.676021383270    12.000000000000
         C            1.237620320417     0.906276727015    -0.690125616730    12.000000000000
         C            1.374386320417    -1.140632272985     0.590399383270    12.000000000000
         C            2.627246320417     1.023122727015    -0.647799616730    12.000000000000
         C            2.764618320417    -1.032887272985     0.612326383270    12.000000000000
         C            3.395593320417     0.053881727015     0.001504383270    12.000000000000
         H           -1.197405679583    -2.408713272985    -0.767146616730     1.007825032230
         H           -3.886648679583     0.841731727015     0.280859383270     1.007825032230
         H           -3.829633679583    -1.759933272985    -0.540805616730     1.007825032230
         H           -2.225588679583     2.349983727015     1.334106383270     1.007825032230
         H           -0.491344679583     1.971075727015     1.237376383270     1.007825032230
         H           -1.318243679583     2.710149727015    -0.153948616730     1.007825032230
         H            0.649289320417     1.636998727015    -1.241070616730     1.007825032230
         H            0.876934320417    -1.971027272985     1.086795383270     1.007825032230
         H            3.113061320417     1.862978727015    -1.139661616730     1.007825032230
         H            3.356741320417    -1.790639272985     1.120588383270     1.007825032230
         H            4.479007320417     0.142688727015     0.027371383270     1.007825032230

  Basis Set: AUG-CC-PVTZ
    Blend: AUG-CC-PVTZ
  Basis Set: (AUG-CC-PVTZ AUX)
    Blend: AUG-CC-PVTZ-JKFIT
	 Reference Energy          =    -477.5460036604180232 [Eh]
	 Singles Energy            =      -0.0000000000000000 [Eh]
	 Same-Spin Energy          =      -0.5388462857307319 [Eh]
	 Opposite-Spin Energy      =      -1.6827680661550917 [Eh]
	 Correlation Energy        =      -2.2216143518858233 [Eh]
	 Total Energy              =    -479.7676180123038421 [Eh]

	 ================> DF-SCS-MP2 Energies <==================
	-----------------------------------------------------------
	 SCS Same-Spin Scale       =       0.3333333333333333 [-]
	 SCS Opposite-Spin Scale   =       1.2000000000000000 [-]
	 SCS Same-Spin Energy      =      -0.1796154285769106 [Eh]
	 SCS Opposite-Spin Energy  =      -2.0193216793861097 [Eh]
	 SCS Correlation Energy    =      -2.1989371079630202 [Eh]
	 SCS Total Energy          =    -479.7449407683810705 [Eh]
	-----------------------------------------------------------

  Dipole Moment: [D]
     X:     0.5300      Y:     1.8650      Z:     0.6820     Total:     2.0553

*** Psi4 exiting successfully. Buy a developer a beer!
