                               Psi4 1.3.2 release

  ==> Input File <==

--------------------------------------------------------------------------
#psi4
#
memory 32 gb

molecule  {
0 1
  N       -1.7531090     0.6487580     0.1985890
  C       -0.8584400    -0.3593730    -0.1157050
  C        0.5890176    -0.1459565    -0.0539457
  C       -1.6095070    -1.4830350    -0.4543950
  C       -3.0364380     0.1798280     0.0590890
  C       -2.9750140    -1.1422740    -0.3482900
  C       -1.4212420     1.9838780     0.6691930
  C        1.2419450     0.8845030    -0.6969540
  C        1.3787110    -1.1624060     0.5835710
  C        2.6315710     1.0013490    -0.6546280
  C        2.7689430    -1.0546610     0.6054980
  C        3.3999180     0.0321080    -0.0053240
  H       -1.1930810    -2.4304870    -0.7739750
  H       -3.8823240     0.8199580     0.2740310
  H       -3.8253090    -1.7817070    -0.5476340
  H       -2.2212640     2.3282100     1.3272780
  H       -0.4870200     1.9493020     1.2305480
  H       -1.3139190     2.6883760    -0.1607770
  H        0.6536140     1.6152250    -1.2478990
  H        0.8812590    -1.9928010     1.0799670
  H        3.1173860     1.8412050    -1.1464900
  H        3.3610660    -1.8124130     1.1137600
  H        4.4833320     0.1209150     0.0205430
units angstrom
no_reorient  #important for SAPT in psi4, default
symmetry c1  #important for SAPT in psi4, default
}

set PROPERTIES_ORIGIN ["COM"]
properties('MP2/aug-cc-pvtz', properties = ['dipole'])
--------------------------------------------------------------------------

    Molecular point group: c1
  Charge       = 0
  Multiplicity = 1
  Basis Set: AUG-CC-PVTZ
    Blend: AUG-CC-PVTZ
  Basis Set: (AUG-CC-PVTZ AUX)
    Blend: AUG-CC-PVTZ-JKFIT

    Orbital Energies [Eh]
    ---------------------

    Doubly Occupied:

       1A    -15.606651     2A    -11.270438     3A    -11.256856
       4A    -11.250174     5A    -11.248217     6A    -11.240696
       7A    -11.240569     8A    -11.239067     9A    -11.237989
      10A    -11.237264    11A    -11.208774    12A    -11.207652
      13A     -1.298857    14A     -1.154920    15A     -1.073069
      16A     -1.044594    17A     -1.015875    18A     -0.955932
      19A     -0.933328    20A     -0.834578    21A     -0.829136
      22A     -0.771131    23A     -0.742703    24A     -0.712208
      25A     -0.678152    26A     -0.639694    27A     -0.631750
      28A     -0.623215    29A     -0.595215    30A     -0.587693
      31A     -0.569531    32A     -0.567969    33A     -0.538241
      34A     -0.527276    35A     -0.523701    36A     -0.501656
      37A     -0.498345    38A     -0.488630    39A     -0.355193
      40A     -0.338779    41A     -0.335554    42A     -0.275240

  @DF-RHF Final Energy:  -477.54370125106368

   => Energetics <=

    Nuclear Repulsion Energy =            639.1369609200098694
    One-Electron Energy =               -1913.5883014085882223
    Two-Electron Energy =                 796.9076392375146725
    Total Energy =                       -477.5437012510636805
  Basis Set: (AUG-CC-PVTZ AUX)
    Blend: AUG-CC-PVTZ-RI
    Molecular point group: c1

    Geometry (in Angstrom), charge = 0, multiplicity = 1:

       Center              X                  Y                   Z               Mass
    ------------   -----------------  -----------------  -----------------  -----------------
         N           -1.755241958503     0.666174249731     0.204848692178    14.003074004430
         C           -0.860572958503    -0.341956750269    -0.109445307822    12.000000000000
         C            0.586884641497    -0.128540250269    -0.047686007822    12.000000000000
         C           -1.611639958503    -1.465618750269    -0.448135307822    12.000000000000
         C           -3.038570958503     0.197244249731     0.065348692178    12.000000000000
         C           -2.977146958503    -1.124857750269    -0.342030307822    12.000000000000
         C           -1.423374958503     2.001294249731     0.675452692178    12.000000000000
         C            1.239812041497     0.901919249731    -0.690694307822    12.000000000000
         C            1.376578041497    -1.144989750269     0.589830692178    12.000000000000
         C            2.629438041497     1.018765249731    -0.648368307822    12.000000000000
         C            2.766810041497    -1.037244750269     0.611757692178    12.000000000000
         C            3.397785041497     0.049524249731     0.000935692178    12.000000000000
         H           -1.195213958503    -2.413070750269    -0.767715307822     1.007825032230
         H           -3.884456958503     0.837374249731     0.280290692178     1.007825032230
         H           -3.827441958503    -1.764290750269    -0.541374307822     1.007825032230
         H           -2.223396958503     2.345626249731     1.333537692178     1.007825032230
         H           -0.489152958503     1.966718249731     1.236807692178     1.007825032230
         H           -1.316051958503     2.705792249731    -0.154517307822     1.007825032230
         H            0.651481041497     1.632641249731    -1.241639307822     1.007825032230
         H            0.879126041497    -1.975384750269     1.086226692178     1.007825032230
         H            3.115253041497     1.858621249731    -1.140230307822     1.007825032230
         H            3.358933041497    -1.794996750269     1.120019692178     1.007825032230
         H            4.481199041497     0.138331249731     0.026802692178     1.007825032230

  Basis Set: AUG-CC-PVTZ
    Blend: AUG-CC-PVTZ
  Basis Set: (AUG-CC-PVTZ AUX)
    Blend: AUG-CC-PVTZ-JKFIT
	 Reference Energy          =    -477.5437012510636805 [Eh]
	 Singles Energy            =      -0.0000000000000000 [Eh]
	 Same-Spin Energy          =      -0.5392824813491972 [Eh]
	 Opposite-Spin Energy      =      -1.6835295565055444 [Eh]
	 Correlation Energy        =      -2.2228120378547418 [Eh]
	 Total Energy              =    -479.7665132889184179 [Eh]

	 ================> DF-SCS-MP2 Energies <==================
	-----------------------------------------------------------
	 SCS Same-Spin Scale       =       0.3333333333333333 [-]
	 SCS Opposite-Spin Scale   =       1.2000000000000000 [-]
	 SCS Same-Spin Energy      =      -0.1797608271163991 [Eh]
	 SCS Opposite-Spin Energy  =      -2.0202354678066530 [Eh]
	 SCS Correlation Energy    =      -2.1999962949230518 [Eh]
	 SCS Total Energy          =    -479.7436975459867199 [Eh]
	-----------------------------------------------------------

  Dipole Moment: [D]
     X:     0.4775      Y:     1.8468      Z:     0.6673     Total:     2.0209

*** Psi4 exiting successfully. Buy a developer a beer!
