                               Psi4 1.3.2 release

  ==> Input File <==

--------------------------------------------------------------------------
#psi4
#
memory 32 gb

molecule  {
0 1
  N       -1.7531090     0.6487580     0.1985890
  C       -0.8584400    -0.3593730    -0.1157050
  C        0.5958890    -0.1944310    -0.0686340
  C       -1.6095070    -1.4830350    -0.4543950
  C       -3.1327921     0.1725843     0.0566026
  C       -2.9750140    -1.1422740    -0.3482900
  C       -1.4212420     1.9838780     0.6691930
  C        1.2419450     0.8845030    -0.6969540
  C        1.3787110    -1.1624060     0.5835710
  C        2.6315710     1.0013490    -0.6546280
  C        2.7689430    -1.0546610     0.6054980
  C        3.3999180     0.0321080    -0.0053240
  H       -1.1930810    -2.4304870    -0.7739750
  H       -3.8823240     0.8199580     0.2740310
  H       -3.8253090    -1.7817070    -0.5476340
  H       -2.2212640     2.3282100     1.3272780
  H       -0.4870200     1.9493020     1.2305480
  H       -1.3139190     2.6883760    -0.1607770
  H        0.6536140     1.6152250    -1.2478990
  H        0.8812590    -1.9928010     1.0799670
  H        3.1173860     1.8412050    -1.1464900
  H        3.3610660    -1.8124130     1.1137600
  H        4.4833320     0.1209150     0.0205430
units angstrom
no_reorient  #important for SAPT in psi4, default
symmetry c1  #important for SAPT in psi4, default
}

set PROPERTIES_ORIGIN ["COM"]
properties('MP2/aug-cc-pvtz', properties = ['dipole'])
--------------------------------------------------------------------------

    Molecular point group: c1
  Charge       = 0
  Multiplicity = 1
  Basis Set: AUG-CC-PVTZ
    Blend: AUG-CC-PVTZ
  Basis Set: (AUG-CC-PVTZ AUX)
    Blend: AUG-CC-PVTZ-JKFIT

    Orbital Energies [Eh]
    ---------------------

    Doubly Occupied:

       1A    -15.602188     2A    -11.265555     3A    -11.264013
       4A    -11.251964     5A    -11.248146     6A    -11.242388
       7A    -11.241407     8A    -11.240872     9A    -11.239945
      10A    -11.239224    11A    -11.216003    12A    -11.205837
      13A     -1.275954    14A     -1.156170    15A     -1.069078
      16A     -1.044074    17A     -1.017781    18A     -0.959149
      19A     -0.923231    20A     -0.837982    21A     -0.831753
      22A     -0.771203    23A     -0.745308    24A     -0.707793
      25A     -0.679527    26A     -0.639832    27A     -0.631690
      28A     -0.620152    29A     -0.597571    30A     -0.588383
      31A     -0.574787    32A     -0.556283    33A     -0.548931
      34A     -0.518919    35A     -0.517463    36A     -0.501243
      37A     -0.496472    38A     -0.490743    39A     -0.354008
      40A     -0.341501    41A     -0.333607    42A     -0.278264

  @DF-RHF Final Energy:  -477.53297710349136

   => Energetics <=

    Nuclear Repulsion Energy =            636.9319627778804715
    One-Electron Energy =               -1909.1970966519322701
    Two-Electron Energy =                 794.7321567705604366
    Total Energy =                       -477.5329771034913620
  Basis Set: (AUG-CC-PVTZ AUX)
    Blend: AUG-CC-PVTZ-RI
    Molecular point group: c1

    Geometry (in Angstrom), charge = 0, multiplicity = 1:

       Center              X                  Y                   Z               Mass
    ------------   -----------------  -----------------  -----------------  -----------------
         N           -1.748406397904     0.670430548799     0.206160663124    14.003074004430
         C           -0.853737397904    -0.337700451201    -0.108133336876    12.000000000000
         C            0.600591602096    -0.172758451201    -0.061062336876    12.000000000000
         C           -1.604804397904    -1.461362451201    -0.446823336876    12.000000000000
         C           -3.128089497904     0.194256848799     0.064174263124    12.000000000000
         C           -2.970311397904    -1.120601451201    -0.340718336876    12.000000000000
         C           -1.416539397904     2.005550548799     0.676764663124    12.000000000000
         C            1.246647602096     0.906175548799    -0.689382336876    12.000000000000
         C            1.383413602096    -1.140733451201     0.591142663124    12.000000000000
         C            2.636273602096     1.023021548799    -0.647056336876    12.000000000000
         C            2.773645602096    -1.032988451201     0.613069663124    12.000000000000
         C            3.404620602096     0.053780548799     0.002247663124    12.000000000000
         H           -1.188378397904    -2.408814451201    -0.766403336876     1.007825032230
         H           -3.877621397904     0.841630548799     0.281602663124     1.007825032230
         H           -3.820606397904    -1.760034451201    -0.540062336876     1.007825032230
         H           -2.216561397904     2.349882548799     1.334849663124     1.007825032230
         H           -0.482317397904     1.970974548799     1.238119663124     1.007825032230
         H           -1.309216397904     2.710048548799    -0.153205336876     1.007825032230
         H            0.658316602096     1.636897548799    -1.240327336876     1.007825032230
         H            0.885961602096    -1.971128451201     1.087538663124     1.007825032230
         H            3.122088602096     1.862877548799    -1.138918336876     1.007825032230
         H            3.365768602096    -1.790740451201     1.121331663124     1.007825032230
         H            4.488034602096     0.142587548799     0.028114663124     1.007825032230

  Basis Set: AUG-CC-PVTZ
    Blend: AUG-CC-PVTZ
  Basis Set: (AUG-CC-PVTZ AUX)
    Blend: AUG-CC-PVTZ-JKFIT
	 Reference Energy          =    -477.5329771034913620 [Eh]
	 Singles Energy            =      -0.0000000000000000 [Eh]
	 Same-Spin Energy          =      -0.5391408920750214 [Eh]
	 Opposite-Spin Energy      =      -1.6848092416560176 [Eh]
	 Correlation Energy        =      -2.2239501337310390 [Eh]
	 Total Energy              =    -479.7569272372223850 [Eh]

	 ================> DF-SCS-MP2 Energies <==================
	-----------------------------------------------------------
	 SCS Same-Spin Scale       =       0.3333333333333333 [-]
	 SCS Opposite-Spin Scale   =       1.2000000000000000 [-]
	 SCS Same-Spin Energy      =      -0.1797136306916738 [Eh]
	 SCS Opposite-Spin Energy  =      -2.0217710899872210 [Eh]
	 SCS Correlation Energy    =      -2.2014847206788950 [Eh]
	 SCS Total Energy          =    -479.7344618241702392 [Eh]
	-----------------------------------------------------------

  Dipole Moment: [D]
     X:     0.5232      Y:     1.7512      Z:     0.6410     Total:     1.9369

*** Psi4 exiting successfully. Buy a developer a beer!
