                               Psi4 1.4a3.dev225

  ==> Input File <==

--------------------------------------------------------------------------
#psi4
#
memory 32 gb

molecule  {
0 1
  N       -1.7531090     0.6487580     0.1985890
  C       -0.8261189    -0.3957931    -0.1270593
  C        0.5958890    -0.1944310    -0.0686340
  C       -1.6095070    -1.4830350    -0.4543950
  C       -3.0364380     0.1798280     0.0590890
  C       -2.9750140    -1.1422740    -0.3482900
  C       -1.4212420     1.9838780     0.6691930
  C        1.2419450     0.8845030    -0.6969540
  C        1.3787110    -1.1624060     0.5835710
  C        2.6315710     1.0013490    -0.6546280
  C        2.7689430    -1.0546610     0.6054980
  C        3.3999180     0.0321080    -0.0053240
  H       -1.1930810    -2.4304870    -0.7739750
  H       -3.8823240     0.8199580     0.2740310
  H       -3.8253090    -1.7817070    -0.5476340
  H       -2.2212640     2.3282100     1.3272780
  H       -0.4870200     1.9493020     1.2305480
  H       -1.3139190     2.6883760    -0.1607770
  H        0.6536140     1.6152250    -1.2478990
  H        0.8812590    -1.9928010     1.0799670
  H        3.1173860     1.8412050    -1.1464900
  H        3.3610660    -1.8124130     1.1137600
  H        4.4833320     0.1209150     0.0205430
units angstrom
no_reorient  #important for SAPT in psi4, default
symmetry c1  #important for SAPT in psi4, default
}

set PROPERTIES_ORIGIN ["COM"]
properties('MP2/aug-cc-pvtz', properties = ['dipole'])
--------------------------------------------------------------------------

    Molecular point group: c1
  Charge       = 0
  Multiplicity = 1
  Basis Set: AUG-CC-PVTZ
    Blend: AUG-CC-PVTZ
  Basis Set: (AUG-CC-PVTZ AUX)
    Blend: AUG-CC-PVTZ-JKFIT

    Orbital Energies [Eh]
    ---------------------

    Doubly Occupied:

       1A    -15.603741     2A    -11.267987     3A    -11.256208
       4A    -11.252501     5A    -11.248487     6A    -11.241107
       7A    -11.239966     8A    -11.239370     9A    -11.238162
      10A    -11.236960    11A    -11.209898    12A    -11.207144
      13A     -1.286364    14A     -1.156268    15A     -1.073480
      16A     -1.046575    17A     -1.016432    18A     -0.955511
      19A     -0.928450    20A     -0.836186    21A     -0.831088
      22A     -0.767051    23A     -0.744878    24A     -0.710133
      25A     -0.678020    26A     -0.637908    27A     -0.631822
      28A     -0.621581    29A     -0.596100    30A     -0.587210
      31A     -0.571851    32A     -0.562601    33A     -0.540929
      34A     -0.524190    35A     -0.520977    36A     -0.501485
      37A     -0.498051    38A     -0.490843    39A     -0.357019
      40A     -0.340294    41A     -0.333755    42A     -0.275468

  @DF-RHF Final Energy:  -477.54187472737567

   => Energetics <=

    Nuclear Repulsion Energy =            638.7680528151893213
    One-Electron Energy =               -1912.8917562104318222
    Two-Electron Energy =                 796.5818286678668301
    Total Energy =                       -477.5418747273756708
  Basis Set: (AUG-CC-PVTZ AUX)
    Blend: AUG-CC-PVTZ-RI
    Molecular point group: c1

    Geometry (in Angstrom), charge = 0, multiplicity = 1:

       Center              X                  Y                   Z               Mass
    ------------   -----------------  -----------------  -----------------  -----------------
         N           -1.758235863569     0.672659326543     0.206838079741    14.003074004430
         C           -0.831245763569    -0.371891773457    -0.118810220259    12.000000000000
         C            0.590762136431    -0.170529673457    -0.060384920259    12.000000000000
         C           -1.614633863569    -1.459133673457    -0.446145920259    12.000000000000
         C           -3.041564863569     0.203729326543     0.067338079741    12.000000000000
         C           -2.980140863569    -1.118372673457    -0.340040920259    12.000000000000
         C           -1.426368863569     2.007779326543     0.677442079741    12.000000000000
         C            1.236818136431     0.908404326543    -0.688704920259    12.000000000000
         C            1.373584136431    -1.138504673457     0.591820079741    12.000000000000
         C            2.626444136431     1.025250326543    -0.646378920259    12.000000000000
         C            2.763816136431    -1.030759673457     0.613747079741    12.000000000000
         C            3.394791136431     0.056009326543     0.002925079741    12.000000000000
         H           -1.198207863569    -2.406585673457    -0.765725920259     1.007825032230
         H           -3.887450863569     0.843859326543     0.282280079741     1.007825032230
         H           -3.830435863569    -1.757805673457    -0.539384920259     1.007825032230
         H           -2.226390863569     2.352111326543     1.335527079741     1.007825032230
         H           -0.492146863569     1.973203326543     1.238797079741     1.007825032230
         H           -1.319045863569     2.712277326543    -0.152527920259     1.007825032230
         H            0.648487136431     1.639126326543    -1.239649920259     1.007825032230
         H            0.876132136431    -1.968899673457     1.088216079741     1.007825032230
         H            3.112259136431     1.865106326543    -1.138240920259     1.007825032230
         H            3.355939136431    -1.788511673457     1.122009079741     1.007825032230
         H            4.478205136431     0.144816326543     0.028792079741     1.007825032230

  Basis Set: AUG-CC-PVTZ
    Blend: AUG-CC-PVTZ
  Basis Set: (AUG-CC-PVTZ AUX)
    Blend: AUG-CC-PVTZ-JKFIT
	 Reference Energy          =    -477.5418747273756708 [Eh]
	 Singles Energy            =      -0.0000000000000000 [Eh]
	 Same-Spin Energy          =      -0.5394723155544501 [Eh]
	 Opposite-Spin Energy      =      -1.6841787353231228 [Eh]
	 Correlation Energy        =      -2.2236510508775726 [Eh]
	 Total Energy              =    -479.7655257782532203 [Eh]

	 ================> DF-SCS-MP2 Energies <==================
	-----------------------------------------------------------
	 SCS Same-Spin Scale       =       0.3333333333333333 [-]
	 SCS Opposite-Spin Scale   =       1.2000000000000000 [-]
	 SCS Same-Spin Energy      =      -0.1798241051848167 [Eh]
	 SCS Opposite-Spin Energy  =      -2.0210144823877472 [Eh]
	 SCS Correlation Energy    =      -2.2008385875725640 [Eh]
	 SCS Total Energy          =    -479.7427133149482188 [Eh]
	-----------------------------------------------------------

  Dipole Moment: [D]
     X:     0.5058      Y:     1.7859      Z:     0.6457     Total:     1.9653

*** Psi4 exiting successfully. Buy a developer a beer!
