                               Psi4 1.3.2 release

  ==> Input File <==

--------------------------------------------------------------------------
#psi4
#
memory 32 gb

molecule  {
0 1
  N       -1.7531090     0.6487580     0.1985890
  C       -0.8584400    -0.3593730    -0.1157050
  C        0.5958890    -0.1944310    -0.0686340
  C       -1.6227943    -1.5283733    -0.4683525
  C       -3.0364380     0.1798280     0.0590890
  C       -2.9750140    -1.1422740    -0.3482900
  C       -1.4212420     1.9838780     0.6691930
  C        1.2419450     0.8845030    -0.6969540
  C        1.3787110    -1.1624060     0.5835710
  C        2.6315710     1.0013490    -0.6546280
  C        2.7689430    -1.0546610     0.6054980
  C        3.3999180     0.0321080    -0.0053240
  H       -1.1930810    -2.4304870    -0.7739750
  H       -3.8823240     0.8199580     0.2740310
  H       -3.8253090    -1.7817070    -0.5476340
  H       -2.2212640     2.3282100     1.3272780
  H       -0.4870200     1.9493020     1.2305480
  H       -1.3139190     2.6883760    -0.1607770
  H        0.6536140     1.6152250    -1.2478990
  H        0.8812590    -1.9928010     1.0799670
  H        3.1173860     1.8412050    -1.1464900
  H        3.3610660    -1.8124130     1.1137600
  H        4.4833320     0.1209150     0.0205430
units angstrom
no_reorient  #important for SAPT in psi4, default
symmetry c1  #important for SAPT in psi4, default
}

set PROPERTIES_ORIGIN ["COM"]
properties('MP2/aug-cc-pvtz', properties = ['dipole'])
--------------------------------------------------------------------------

    Molecular point group: c1
  Charge       = 0
  Multiplicity = 1
  Basis Set: AUG-CC-PVTZ
    Blend: AUG-CC-PVTZ
  Basis Set: (AUG-CC-PVTZ AUX)
    Blend: AUG-CC-PVTZ-JKFIT

    Orbital Energies [Eh]
    ---------------------

    Doubly Occupied:

       1A    -15.611451     2A    -11.272040     3A    -11.262229
       4A    -11.250232     5A    -11.247471     6A    -11.240761
       7A    -11.239590     8A    -11.239295     9A    -11.237945
      10A    -11.237034    11A    -11.210249    12A    -11.209051
      13A     -1.297856    14A     -1.155074    15A     -1.070503
      16A     -1.043590    17A     -1.016209    18A     -0.952857
      19A     -0.936110    20A     -0.833393    21A     -0.830546
      22A     -0.772451    23A     -0.743351    24A     -0.712876
      25A     -0.677682    26A     -0.640547    27A     -0.632852
      28A     -0.622860    29A     -0.598255    30A     -0.587345
      31A     -0.572915    32A     -0.567169    33A     -0.541147
      34A     -0.528387    35A     -0.521856    36A     -0.502290
      37A     -0.492804    38A     -0.490764    39A     -0.352846
      40A     -0.340512    41A     -0.336200    42A     -0.270560

  @DF-RHF Final Energy:  -477.54097077834155

   => Energetics <=

    Nuclear Repulsion Energy =            638.0268876333606158
    One-Electron Energy =               -1911.3374113677095920
    Two-Electron Energy =                 795.7695529560073737
    Total Energy =                       -477.5409707783414888
  Basis Set: (AUG-CC-PVTZ AUX)
    Blend: AUG-CC-PVTZ-RI
    Molecular point group: c1

    Geometry (in Angstrom), charge = 0, multiplicity = 1:

       Center              X                  Y                   Z               Mass
    ------------   -----------------  -----------------  -----------------  -----------------
         N           -1.754751849541     0.673340585564     0.207036937524    14.003074004430
         C           -0.860082849541    -0.334790414436    -0.107257062476    12.000000000000
         C            0.594246150459    -0.169848414436    -0.060186062476    12.000000000000
         C           -1.624437149541    -1.503790714436    -0.459904562476    12.000000000000
         C           -3.038080849541     0.204410585564     0.067536937524    12.000000000000
         C           -2.976656849541    -1.117691414436    -0.339842062476    12.000000000000
         C           -1.422884849541     2.008460585564     0.677640937524    12.000000000000
         C            1.240302150459     0.909085585564    -0.688506062476    12.000000000000
         C            1.377068150459    -1.137823414436     0.592018937524    12.000000000000
         C            2.629928150459     1.025931585564    -0.646180062476    12.000000000000
         C            2.767300150459    -1.030078414436     0.613945937524    12.000000000000
         C            3.398275150459     0.056690585564     0.003123937524    12.000000000000
         H           -1.194723849541    -2.405904414436    -0.765527062476     1.007825032230
         H           -3.883966849541     0.844540585564     0.282478937524     1.007825032230
         H           -3.826951849541    -1.757124414436    -0.539186062476     1.007825032230
         H           -2.222906849541     2.352792585564     1.335725937524     1.007825032230
         H           -0.488662849541     1.973884585564     1.238995937524     1.007825032230
         H           -1.315561849541     2.712958585564    -0.152329062476     1.007825032230
         H            0.651971150459     1.639807585564    -1.239451062476     1.007825032230
         H            0.879616150459    -1.968218414436     1.088414937524     1.007825032230
         H            3.115743150459     1.865787585564    -1.138042062476     1.007825032230
         H            3.359423150459    -1.787830414436     1.122207937524     1.007825032230
         H            4.481689150459     0.145497585564     0.028990937524     1.007825032230

  Basis Set: AUG-CC-PVTZ
    Blend: AUG-CC-PVTZ
  Basis Set: (AUG-CC-PVTZ AUX)
    Blend: AUG-CC-PVTZ-JKFIT
	 Reference Energy          =    -477.5409707783415456 [Eh]
	 Singles Energy            =      -0.0000000000000000 [Eh]
	 Same-Spin Energy          =      -0.5398143437277940 [Eh]
	 Opposite-Spin Energy      =      -1.6843477306953849 [Eh]
	 Correlation Energy        =      -2.2241620744231789 [Eh]
	 Total Energy              =    -479.7651328527647365 [Eh]

	 ================> DF-SCS-MP2 Energies <==================
	-----------------------------------------------------------
	 SCS Same-Spin Scale       =       0.3333333333333333 [-]
	 SCS Opposite-Spin Scale   =       1.2000000000000000 [-]
	 SCS Same-Spin Energy      =      -0.1799381145759313 [Eh]
	 SCS Opposite-Spin Energy  =      -2.0212172768344616 [Eh]
	 SCS Correlation Energy    =      -2.2011553914103930 [Eh]
	 SCS Total Energy          =    -479.7421261697519412 [Eh]
	-----------------------------------------------------------

  Dipole Moment: [D]
     X:     0.4401      Y:     1.8970      Z:     0.6856     Total:     2.0645

*** Psi4 exiting successfully. Buy a developer a beer!
