                               Psi4 1.3.2 release

  ==> Input File <==

--------------------------------------------------------------------------
#psi4
#
memory 32 gb

molecule  {
0 1
  N       -1.7531090     0.6487580     0.1985890
  C       -0.8584400    -0.3593730    -0.1157050
  C        0.5529953    -0.1772452    -0.0851436
  C       -1.6095070    -1.4830350    -0.4543950
  C       -3.0364380     0.1798280     0.0590890
  C       -2.9750140    -1.1422740    -0.3482900
  C       -1.4212420     1.9838780     0.6691930
  C        1.2419450     0.8845030    -0.6969540
  C        1.3787110    -1.1624060     0.5835710
  C        2.6315710     1.0013490    -0.6546280
  C        2.7689430    -1.0546610     0.6054980
  C        3.3999180     0.0321080    -0.0053240
  H       -1.1930810    -2.4304870    -0.7739750
  H       -3.8823240     0.8199580     0.2740310
  H       -3.8253090    -1.7817070    -0.5476340
  H       -2.2212640     2.3282100     1.3272780
  H       -0.4870200     1.9493020     1.2305480
  H       -1.3139190     2.6883760    -0.1607770
  H        0.6536140     1.6152250    -1.2478990
  H        0.8812590    -1.9928010     1.0799670
  H        3.1173860     1.8412050    -1.1464900
  H        3.3610660    -1.8124130     1.1137600
  H        4.4833320     0.1209150     0.0205430
units angstrom
no_reorient  #important for SAPT in psi4, default
symmetry c1  #important for SAPT in psi4, default
}

set PROPERTIES_ORIGIN ["COM"]
properties('MP2/aug-cc-pvtz', properties = ['dipole'])
--------------------------------------------------------------------------

    Molecular point group: c1
  Charge       = 0
  Multiplicity = 1
  Basis Set: AUG-CC-PVTZ
    Blend: AUG-CC-PVTZ
  Basis Set: (AUG-CC-PVTZ AUX)
    Blend: AUG-CC-PVTZ-JKFIT

    Orbital Energies [Eh]
    ---------------------

    Doubly Occupied:

       1A    -15.608078     2A    -11.270903     3A    -11.254824
       4A    -11.251177     5A    -11.249960     6A    -11.241346
       7A    -11.240451     8A    -11.239314     9A    -11.238672
      10A    -11.237632    11A    -11.209721    12A    -11.208615
      13A     -1.300484    14A     -1.151152    15A     -1.074729
      16A     -1.047708    17A     -1.013585    18A     -0.955694
      19A     -0.934123    20A     -0.837261    21A     -0.827518
      22A     -0.772225    23A     -0.743910    24A     -0.712934
      25A     -0.679126    26A     -0.640372    27A     -0.632914
      28A     -0.621183    29A     -0.595838    30A     -0.584837
      31A     -0.570505    32A     -0.569590    33A     -0.539445
      34A     -0.528324    35A     -0.524822    36A     -0.505623
      37A     -0.494977    38A     -0.484810    39A     -0.354765
      40A     -0.338766    41A     -0.336154    42A     -0.273030

  @DF-RHF Final Energy:  -477.54139372282276

   => Energetics <=

    Nuclear Repulsion Energy =            639.1319473157424227
    One-Electron Energy =               -1913.5524876046106328
    Two-Electron Energy =                 796.8791465660456197
    Total Energy =                       -477.5413937228227041
  Basis Set: (AUG-CC-PVTZ AUX)
    Blend: AUG-CC-PVTZ-RI
    Molecular point group: c1

    Geometry (in Angstrom), charge = 0, multiplicity = 1:

       Center              X                  Y                   Z               Mass
    ------------   -----------------  -----------------  -----------------  -----------------
         N           -1.752490224206     0.668564385533     0.207231891791    14.003074004430
         C           -0.857821224206    -0.339566614467    -0.107062108209    12.000000000000
         C            0.553614075794    -0.157438814467    -0.076500708209    12.000000000000
         C           -1.608888224206    -1.463228614467    -0.445752108209    12.000000000000
         C           -3.035819224206     0.199634385533     0.067731891791    12.000000000000
         C           -2.974395224206    -1.122467614467    -0.339647108209    12.000000000000
         C           -1.420623224206     2.003684385533     0.677835891791    12.000000000000
         C            1.242563775794     0.904309385533    -0.688311108209    12.000000000000
         C            1.379329775794    -1.142599614467     0.592213891791    12.000000000000
         C            2.632189775794     1.021155385533    -0.645985108209    12.000000000000
         C            2.769561775794    -1.034854614467     0.614140891791    12.000000000000
         C            3.400536775794     0.051914385533     0.003318891791    12.000000000000
         H           -1.192462224206    -2.410680614467    -0.765332108209     1.007825032230
         H           -3.881705224206     0.839764385533     0.282673891791     1.007825032230
         H           -3.824690224206    -1.761900614467    -0.538991108209     1.007825032230
         H           -2.220645224206     2.348016385533     1.335920891791     1.007825032230
         H           -0.486401224206     1.969108385533     1.239190891791     1.007825032230
         H           -1.313300224206     2.708182385533    -0.152134108209     1.007825032230
         H            0.654232775794     1.635031385533    -1.239256108209     1.007825032230
         H            0.881877775794    -1.972994614467     1.088609891791     1.007825032230
         H            3.118004775794     1.861011385533    -1.137847108209     1.007825032230
         H            3.361684775794    -1.792606614467     1.122402891791     1.007825032230
         H            4.483950775794     0.140721385533     0.029185891791     1.007825032230

  Basis Set: AUG-CC-PVTZ
    Blend: AUG-CC-PVTZ
  Basis Set: (AUG-CC-PVTZ AUX)
    Blend: AUG-CC-PVTZ-JKFIT
	 Reference Energy          =    -477.5413937228227610 [Eh]
	 Singles Energy            =      -0.0000000000000000 [Eh]
	 Same-Spin Energy          =      -0.5399572520703542 [Eh]
	 Opposite-Spin Energy      =      -1.6844269235581981 [Eh]
	 Correlation Energy        =      -2.2243841756285523 [Eh]
	 Total Energy              =    -479.7657778984512902 [Eh]

	 ================> DF-SCS-MP2 Energies <==================
	-----------------------------------------------------------
	 SCS Same-Spin Scale       =       0.3333333333333333 [-]
	 SCS Opposite-Spin Scale   =       1.2000000000000000 [-]
	 SCS Same-Spin Energy      =      -0.1799857506901180 [Eh]
	 SCS Opposite-Spin Energy  =      -2.0213123082698377 [Eh]
	 SCS Correlation Energy    =      -2.2012980589599556 [Eh]
	 SCS Total Energy          =    -479.7426917817826961 [Eh]
	-----------------------------------------------------------

  Dipole Moment: [D]
     X:     0.3437      Y:     1.8459      Z:     0.6662     Total:     1.9923

*** Psi4 exiting successfully. Buy a developer a beer!
