                               Psi4 1.3.2 release

  ==> Input File <==

--------------------------------------------------------------------------
#psi4
#
memory 32 gb

molecule  {
0 1
  N       -1.7531090     0.6487580     0.1985890
  C       -0.7529617    -0.2643588    -0.0868310
  C        0.5958890    -0.1944310    -0.0686340
  C       -1.6095070    -1.4830350    -0.4543950
  C       -3.0364380     0.1798280     0.0590890
  C       -2.9750140    -1.1422740    -0.3482900
  C       -1.4212420     1.9838780     0.6691930
  C        1.2419450     0.8845030    -0.6969540
  C        1.3787110    -1.1624060     0.5835710
  C        2.6315710     1.0013490    -0.6546280
  C        2.7689430    -1.0546610     0.6054980
  C        3.3999180     0.0321080    -0.0053240
  H       -1.1930810    -2.4304870    -0.7739750
  H       -3.8823240     0.8199580     0.2740310
  H       -3.8253090    -1.7817070    -0.5476340
  H       -2.2212640     2.3282100     1.3272780
  H       -0.4870200     1.9493020     1.2305480
  H       -1.3139190     2.6883760    -0.1607770
  H        0.6536140     1.6152250    -1.2478990
  H        0.8812590    -1.9928010     1.0799670
  H        3.1173860     1.8412050    -1.1464900
  H        3.3610660    -1.8124130     1.1137600
  H        4.4833320     0.1209150     0.0205430
units angstrom
no_reorient  #important for SAPT in psi4, default
symmetry c1  #important for SAPT in psi4, default
}

set PROPERTIES_ORIGIN ["COM"]
properties('MP2/aug-cc-pvtz', properties = ['dipole'])
--------------------------------------------------------------------------

    Molecular point group: c1
  Charge       = 0
  Multiplicity = 1
  Basis Set: AUG-CC-PVTZ
    Blend: AUG-CC-PVTZ
  Basis Set: (AUG-CC-PVTZ AUX)
    Blend: AUG-CC-PVTZ-JKFIT

    Orbital Energies [Eh]
    ---------------------

    Doubly Occupied:

       1A    -15.618687     2A    -11.269282     3A    -11.262024
       4A    -11.250372     5A    -11.243498     6A    -11.240618
       7A    -11.240175     8A    -11.238952     9A    -11.238488
      10A    -11.238005    11A    -11.219667    12A    -11.212745
      13A     -1.298267    14A     -1.161071    15A     -1.064495
      16A     -1.059741    17A     -1.016983    18A     -0.952344
      19A     -0.929193    20A     -0.846942    21A     -0.833341
      22A     -0.765857    23A     -0.747928    24A     -0.709225
      25A     -0.679353    26A     -0.644057    27A     -0.639986
      28A     -0.624219    29A     -0.601421    30A     -0.588152
      31A     -0.578022    32A     -0.560780    33A     -0.537411
      34A     -0.522668    35A     -0.517934    36A     -0.510260
      37A     -0.493497    38A     -0.480529    39A     -0.357636
      40A     -0.341081    41A     -0.334876    42A     -0.257170

  @DF-RHF Final Energy:  -477.50896704678144

   => Energetics <=

    Nuclear Repulsion Energy =            639.4407890842927600
    One-Electron Energy =               -1914.0456089778699607
    Two-Electron Energy =                 797.0958528467958786
    Total Energy =                       -477.5089670467814358
  Basis Set: (AUG-CC-PVTZ AUX)
    Blend: AUG-CC-PVTZ-RI
    Molecular point group: c1

    Geometry (in Angstrom), charge = 0, multiplicity = 1:

       Center              X                  Y                   Z               Mass
    ------------   -----------------  -----------------  -----------------  -----------------
         N           -1.763824323393     0.662619093934     0.203765050178    14.003074004430
         C           -0.763677023393    -0.250497706066    -0.081654949822    12.000000000000
         C            0.585173676607    -0.180569906066    -0.063457949822    12.000000000000
         C           -1.620222323393    -1.469173906066    -0.449218949822    12.000000000000
         C           -3.047153323393     0.193689093934     0.064265050178    12.000000000000
         C           -2.985729323393    -1.128412906066    -0.343113949822    12.000000000000
         C           -1.431957323393     1.997739093934     0.674369050178    12.000000000000
         C            1.231229676607     0.898364093934    -0.691777949822    12.000000000000
         C            1.367995676607    -1.148544906066     0.588747050178    12.000000000000
         C            2.620855676607     1.015210093934    -0.649451949822    12.000000000000
         C            2.758227676607    -1.040799906066     0.610674050178    12.000000000000
         C            3.389202676607     0.045969093934    -0.000147949822    12.000000000000
         H           -1.203796323393    -2.416625906066    -0.768798949822     1.007825032230
         H           -3.893039323393     0.833819093934     0.279207050178     1.007825032230
         H           -3.836024323393    -1.767845906066    -0.542457949822     1.007825032230
         H           -2.231979323393     2.342071093934     1.332454050178     1.007825032230
         H           -0.497735323393     1.963163093934     1.235724050178     1.007825032230
         H           -1.324634323393     2.702237093934    -0.155600949822     1.007825032230
         H            0.642898676607     1.629086093934    -1.242722949822     1.007825032230
         H            0.870543676607    -1.978939906066     1.085143050178     1.007825032230
         H            3.106670676607     1.855066093934    -1.141313949822     1.007825032230
         H            3.350350676607    -1.798551906066     1.118936050178     1.007825032230
         H            4.472616676607     0.134776093934     0.025719050178     1.007825032230

  Basis Set: AUG-CC-PVTZ
    Blend: AUG-CC-PVTZ
  Basis Set: (AUG-CC-PVTZ AUX)
    Blend: AUG-CC-PVTZ-JKFIT
	 Reference Energy          =    -477.5089670467814358 [Eh]
	 Singles Energy            =      -0.0000000000000000 [Eh]
	 Same-Spin Energy          =      -0.5439881973979755 [Eh]
	 Opposite-Spin Energy      =      -1.6903712033518077 [Eh]
	 Correlation Energy        =      -2.2343594007497831 [Eh]
	 Total Energy              =    -479.7433264475312171 [Eh]

	 ================> DF-SCS-MP2 Energies <==================
	-----------------------------------------------------------
	 SCS Same-Spin Scale       =       0.3333333333333333 [-]
	 SCS Opposite-Spin Scale   =       1.2000000000000000 [-]
	 SCS Same-Spin Energy      =      -0.1813293991326585 [Eh]
	 SCS Opposite-Spin Energy  =      -2.0284454440221693 [Eh]
	 SCS Correlation Energy    =      -2.2097748431548276 [Eh]
	 SCS Total Energy          =    -479.7187418899362683 [Eh]
	-----------------------------------------------------------

  Dipole Moment: [D]
     X:     0.2466      Y:     1.9091      Z:     0.6917     Total:     2.0454

*** Psi4 exiting successfully. Buy a developer a beer!
