                               Psi4 1.3.2 release

  ==> Input File <==

--------------------------------------------------------------------------
#psi4
#
memory 32 gb

molecule  {
0 1
  N       -1.7531090     0.6487580     0.1985890
  C       -0.8627520    -0.2737834    -0.1714148
  C        0.5958890    -0.1944310    -0.0686340
  C       -1.6095070    -1.4830350    -0.4543950
  C       -3.0364380     0.1798280     0.0590890
  C       -2.9750140    -1.1422740    -0.3482900
  C       -1.4212420     1.9838780     0.6691930
  C        1.2419450     0.8845030    -0.6969540
  C        1.3787110    -1.1624060     0.5835710
  C        2.6315710     1.0013490    -0.6546280
  C        2.7689430    -1.0546610     0.6054980
  C        3.3999180     0.0321080    -0.0053240
  H       -1.1930810    -2.4304870    -0.7739750
  H       -3.8823240     0.8199580     0.2740310
  H       -3.8253090    -1.7817070    -0.5476340
  H       -2.2212640     2.3282100     1.3272780
  H       -0.4870200     1.9493020     1.2305480
  H       -1.3139190     2.6883760    -0.1607770
  H        0.6536140     1.6152250    -1.2478990
  H        0.8812590    -1.9928010     1.0799670
  H        3.1173860     1.8412050    -1.1464900
  H        3.3610660    -1.8124130     1.1137600
  H        4.4833320     0.1209150     0.0205430
units angstrom
no_reorient  #important for SAPT in psi4, default
symmetry c1  #important for SAPT in psi4, default
}

set PROPERTIES_ORIGIN ["COM"]
properties('MP2/aug-cc-pvtz', properties = ['dipole'])
--------------------------------------------------------------------------

    Molecular point group: c1
  Charge       = 0
  Multiplicity = 1
  Basis Set: AUG-CC-PVTZ
    Blend: AUG-CC-PVTZ
  Basis Set: (AUG-CC-PVTZ AUX)
    Blend: AUG-CC-PVTZ-JKFIT

    Orbital Energies [Eh]
    ---------------------

    Doubly Occupied:

       1A    -15.614280     2A    -11.272941     3A    -11.258648
       4A    -11.250724     5A    -11.244590     6A    -11.240404
       7A    -11.240044     8A    -11.238814     9A    -11.238411
      10A    -11.237999    11A    -11.210128    12A    -11.208049
      13A     -1.312639    14A     -1.155333    15A     -1.069932
      16A     -1.045025    17A     -1.016377    18A     -0.958485
      19A     -0.934775    20A     -0.834263    21A     -0.830518
      22A     -0.772550    23A     -0.742335    24A     -0.713885
      25A     -0.678114    26A     -0.644945    27A     -0.633732
      28A     -0.623002    29A     -0.599185    30A     -0.587867
      31A     -0.577202    32A     -0.563784    33A     -0.535040
      34A     -0.527088    35A     -0.525365    36A     -0.503850
      37A     -0.494909    38A     -0.486301    39A     -0.352200
      40A     -0.340728    41A     -0.336342    42A     -0.269845

  @DF-RHF Final Energy:  -477.53791291145933

   => Energetics <=

    Nuclear Repulsion Energy =            639.3209207051935437
    One-Electron Energy =               -1913.8763768564115253
    Two-Electron Energy =                 797.0175432397587656
    Total Energy =                       -477.5379129114593297
  Basis Set: (AUG-CC-PVTZ AUX)
    Blend: AUG-CC-PVTZ-RI
    Molecular point group: c1

    Geometry (in Angstrom), charge = 0, multiplicity = 1:

       Center              X                  Y                   Z               Mass
    ------------   -----------------  -----------------  -----------------  -----------------
         N           -1.755437470416     0.663339036721     0.210226385058    14.003074004430
         C           -0.865080470416    -0.259202363279    -0.159777414942    12.000000000000
         C            0.593560529584    -0.179849963279    -0.056996614942    12.000000000000
         C           -1.611835470416    -1.468453963279    -0.442757614942    12.000000000000
         C           -3.038766470416     0.194409036721     0.070726385058    12.000000000000
         C           -2.977342470416    -1.127692963279    -0.336652614942    12.000000000000
         C           -1.423570470416     1.998459036721     0.680830385058    12.000000000000
         C            1.239616529584     0.899084036721    -0.685316614942    12.000000000000
         C            1.376382529584    -1.147824963279     0.595208385058    12.000000000000
         C            2.629242529584     1.015930036721    -0.642990614942    12.000000000000
         C            2.766614529584    -1.040079963279     0.617135385058    12.000000000000
         C            3.397589529584     0.046689036721     0.006313385058    12.000000000000
         H           -1.195409470416    -2.415905963279    -0.762337614942     1.007825032230
         H           -3.884652470416     0.834539036721     0.285668385058     1.007825032230
         H           -3.827637470416    -1.767125963279    -0.535996614942     1.007825032230
         H           -2.223592470416     2.342791036721     1.338915385058     1.007825032230
         H           -0.489348470416     1.963883036721     1.242185385058     1.007825032230
         H           -1.316247470416     2.702957036721    -0.149139614942     1.007825032230
         H            0.651285529584     1.629806036721    -1.236261614942     1.007825032230
         H            0.878930529584    -1.978219963279     1.091604385058     1.007825032230
         H            3.115057529584     1.855786036721    -1.134852614942     1.007825032230
         H            3.358737529584    -1.797831963279     1.125397385058     1.007825032230
         H            4.481003529584     0.135496036721     0.032180385058     1.007825032230

  Basis Set: AUG-CC-PVTZ
    Blend: AUG-CC-PVTZ
  Basis Set: (AUG-CC-PVTZ AUX)
    Blend: AUG-CC-PVTZ-JKFIT
	 Reference Energy          =    -477.5379129114593297 [Eh]
	 Singles Energy            =      -0.0000000000000000 [Eh]
	 Same-Spin Energy          =      -0.5401146229481568 [Eh]
	 Opposite-Spin Energy      =      -1.6842470373384582 [Eh]
	 Correlation Energy        =      -2.2243616602866148 [Eh]
	 Total Energy              =    -479.7622745717459338 [Eh]

	 ================> DF-SCS-MP2 Energies <==================
	-----------------------------------------------------------
	 SCS Same-Spin Scale       =       0.3333333333333333 [-]
	 SCS Opposite-Spin Scale   =       1.2000000000000000 [-]
	 SCS Same-Spin Energy      =      -0.1800382076493856 [Eh]
	 SCS Opposite-Spin Energy  =      -2.0210964448061497 [Eh]
	 SCS Correlation Energy    =      -2.2011346524555355 [Eh]
	 SCS Total Energy          =    -479.7390475639148804 [Eh]
	-----------------------------------------------------------

  Dipole Moment: [D]
     X:     0.4181      Y:     1.9444      Z:     0.7418     Total:     2.1227

*** Psi4 exiting successfully. Buy a developer a beer!
