                               Psi4 1.4a3.dev225

  ==> Input File <==

--------------------------------------------------------------------------
#psi4
#
memory 32 gb

molecule  {
0 1
  N       -1.7531090     0.6487580     0.1985890
  C       -0.8584400    -0.3593730    -0.1157050
  C        0.6157513    -0.1921783    -0.0679911
  C       -1.6095070    -1.4830350    -0.4543950
  C       -3.0364380     0.1798280     0.0590890
  C       -2.9750140    -1.1422740    -0.3482900
  C       -1.4212420     1.9838780     0.6691930
  C        1.2419450     0.8845030    -0.6969540
  C        1.3787110    -1.1624060     0.5835710
  C        2.6315710     1.0013490    -0.6546280
  C        2.7689430    -1.0546610     0.6054980
  C        3.3999180     0.0321080    -0.0053240
  H       -1.1930810    -2.4304870    -0.7739750
  H       -3.8823240     0.8199580     0.2740310
  H       -3.8253090    -1.7817070    -0.5476340
  H       -2.2212640     2.3282100     1.3272780
  H       -0.4870200     1.9493020     1.2305480
  H       -1.3139190     2.6883760    -0.1607770
  H        0.6536140     1.6152250    -1.2478990
  H        0.8812590    -1.9928010     1.0799670
  H        3.1173860     1.8412050    -1.1464900
  H        3.3610660    -1.8124130     1.1137600
  H        4.4833320     0.1209150     0.0205430
units angstrom
no_reorient  #important for SAPT in psi4, default
symmetry c1  #important for SAPT in psi4, default
}

set PROPERTIES_ORIGIN ["COM"]
properties('MP2/aug-cc-pvtz', properties = ['dipole'])
--------------------------------------------------------------------------

    Molecular point group: c1
  Charge       = 0
  Multiplicity = 1
  Basis Set: AUG-CC-PVTZ
    Blend: AUG-CC-PVTZ
  Basis Set: (AUG-CC-PVTZ AUX)
    Blend: AUG-CC-PVTZ-JKFIT

    Orbital Energies [Eh]
    ---------------------

    Doubly Occupied:

       1A    -15.607222     2A    -11.270525     3A    -11.257204
       4A    -11.249684     5A    -11.247869     6A    -11.240758
       7A    -11.239585     8A    -11.238625     9A    -11.237905
      10A    -11.236273    11A    -11.207877    12A    -11.206318
      13A     -1.298151    14A     -1.157113    15A     -1.072710
      16A     -1.042479    17A     -1.017491    18A     -0.955950
      19A     -0.933016    20A     -0.832023    21A     -0.831595
      22A     -0.770193    23A     -0.742636    24A     -0.712032
      25A     -0.677244    26A     -0.639741    27A     -0.631772
      28A     -0.623599    29A     -0.596669    30A     -0.588317
      31A     -0.569261    32A     -0.567520    33A     -0.537539
      34A     -0.526731    35A     -0.523325    36A     -0.502502
      37A     -0.494576    38A     -0.492777    39A     -0.354015
      40A     -0.340697    41A     -0.334975    42A     -0.275972

  @DF-RHF Final Energy:  -477.54618379399392

   => Energetics <=

    Nuclear Repulsion Energy =            639.0307559655000205
    One-Electron Energy =               -1913.3889436068006944
    Two-Electron Energy =                 796.8120038473067552
    Total Energy =                       -477.5461837939939187
  Basis Set: (AUG-CC-PVTZ AUX)
    Blend: AUG-CC-PVTZ-RI
    Molecular point group: c1

    Geometry (in Angstrom), charge = 0, multiplicity = 1:

       Center              X                  Y                   Z               Mass
    ------------   -----------------  -----------------  -----------------  -----------------
         N           -1.757284139019     0.669705121228     0.205921616697    14.003074004430
         C           -0.862615139019    -0.338425878772    -0.108372383303    12.000000000000
         C            0.611576160981    -0.171231178772    -0.060658483303    12.000000000000
         C           -1.613682139019    -1.462087878772    -0.447062383303    12.000000000000
         C           -3.040613139019     0.200775121228     0.066421616697    12.000000000000
         C           -2.979189139019    -1.121326878772    -0.340957383303    12.000000000000
         C           -1.425417139019     2.004825121228     0.676525616697    12.000000000000
         C            1.237769860981     0.905450121228    -0.689621383303    12.000000000000
         C            1.374535860981    -1.141458878772     0.590903616697    12.000000000000
         C            2.627395860981     1.022296121228    -0.647295383303    12.000000000000
         C            2.764767860981    -1.033713878772     0.612830616697    12.000000000000
         C            3.395742860981     0.053055121228     0.002008616697    12.000000000000
         H           -1.197256139019    -2.409539878772    -0.766642383303     1.007825032230
         H           -3.886499139019     0.840905121228     0.281363616697     1.007825032230
         H           -3.829484139019    -1.760759878772    -0.540301383303     1.007825032230
         H           -2.225439139019     2.349157121228     1.334610616697     1.007825032230
         H           -0.491195139019     1.970249121228     1.237880616697     1.007825032230
         H           -1.318094139019     2.709323121228    -0.153444383303     1.007825032230
         H            0.649438860981     1.636172121228    -1.240566383303     1.007825032230
         H            0.877083860981    -1.971853878772     1.087299616697     1.007825032230
         H            3.113210860981     1.862152121228    -1.139157383303     1.007825032230
         H            3.356890860981    -1.791465878772     1.121092616697     1.007825032230
         H            4.479156860981     0.141862121228     0.027875616697     1.007825032230

  Basis Set: AUG-CC-PVTZ
    Blend: AUG-CC-PVTZ
  Basis Set: (AUG-CC-PVTZ AUX)
    Blend: AUG-CC-PVTZ-JKFIT
	 Reference Energy          =    -477.5461837939939187 [Eh]
	 Singles Energy            =      -0.0000000000000000 [Eh]
	 Same-Spin Energy          =      -0.5388806816889335 [Eh]
	 Opposite-Spin Energy      =      -1.6828021751457698 [Eh]
	 Correlation Energy        =      -2.2216828568347031 [Eh]
	 Total Energy              =    -479.7678666508286369 [Eh]

	 ================> DF-SCS-MP2 Energies <==================
	-----------------------------------------------------------
	 SCS Same-Spin Scale       =       0.3333333333333333 [-]
	 SCS Opposite-Spin Scale   =       1.2000000000000000 [-]
	 SCS Same-Spin Energy      =      -0.1796268938963112 [Eh]
	 SCS Opposite-Spin Energy  =      -2.0193626101749236 [Eh]
	 SCS Correlation Energy    =      -2.1989895040712346 [Eh]
	 SCS Total Energy          =    -479.7451732980651400 [Eh]
	-----------------------------------------------------------

  Dipole Moment: [D]
     X:     0.5259      Y:     1.8629      Z:     0.6795     Total:     2.0515

*** Psi4 exiting successfully. Buy a developer a beer!
