                               Psi4 1.3.2 release

  ==> Input File <==

--------------------------------------------------------------------------
#psi4
#
memory 32 gb

molecule  {
0 1
  N       -1.7157108     0.6780011     0.2075336
  C       -0.8584400    -0.3593730    -0.1157050
  C        0.5958890    -0.1944310    -0.0686340
  C       -1.6095070    -1.4830350    -0.4543950
  C       -3.0364380     0.1798280     0.0590890
  C       -2.9750140    -1.1422740    -0.3482900
  C       -1.4212420     1.9838780     0.6691930
  C        1.2419450     0.8845030    -0.6969540
  C        1.3787110    -1.1624060     0.5835710
  C        2.6315710     1.0013490    -0.6546280
  C        2.7689430    -1.0546610     0.6054980
  C        3.3999180     0.0321080    -0.0053240
  H       -1.1930810    -2.4304870    -0.7739750
  H       -3.8823240     0.8199580     0.2740310
  H       -3.8253090    -1.7817070    -0.5476340
  H       -2.2212640     2.3282100     1.3272780
  H       -0.4870200     1.9493020     1.2305480
  H       -1.3139190     2.6883760    -0.1607770
  H        0.6536140     1.6152250    -1.2478990
  H        0.8812590    -1.9928010     1.0799670
  H        3.1173860     1.8412050    -1.1464900
  H        3.3610660    -1.8124130     1.1137600
  H        4.4833320     0.1209150     0.0205430
units angstrom
no_reorient  #important for SAPT in psi4, default
symmetry c1  #important for SAPT in psi4, default
}

set PROPERTIES_ORIGIN ["COM"]
properties('MP2/aug-cc-pvtz', properties = ['dipole'])
--------------------------------------------------------------------------

    Molecular point group: c1
  Charge       = 0
  Multiplicity = 1
  Basis Set: AUG-CC-PVTZ
    Blend: AUG-CC-PVTZ
  Basis Set: (AUG-CC-PVTZ AUX)
    Blend: AUG-CC-PVTZ-JKFIT

    Orbital Energies [Eh]
    ---------------------

    Doubly Occupied:

       1A    -15.605735     2A    -11.266434     3A    -11.260789
       4A    -11.251433     5A    -11.249517     6A    -11.240889
       7A    -11.239773     8A    -11.239414     9A    -11.238172
      10A    -11.237221    11A    -11.213035    12A    -11.207956
      13A     -1.293578    14A     -1.155005    15A     -1.080344
      16A     -1.042972    17A     -1.016359    18A     -0.954050
      19A     -0.930869    20A     -0.833343    21A     -0.830702
      22A     -0.769369    23A     -0.744888    24A     -0.712940
      25A     -0.676739    26A     -0.640841    27A     -0.631333
      28A     -0.623237    29A     -0.597846    30A     -0.587298
      31A     -0.581306    32A     -0.562407    33A     -0.537922
      34A     -0.525110    35A     -0.519180    36A     -0.500424
      37A     -0.494998    38A     -0.490509    39A     -0.352984
      40A     -0.340744    41A     -0.336739    42A     -0.275640

  @DF-RHF Final Energy:  -477.54205681196032

   => Energetics <=

    Nuclear Repulsion Energy =            638.9551430737440114
    One-Electron Energy =               -1913.2143067740539664
    Two-Electron Energy =                 796.7171068883496901
    Total Energy =                       -477.5420568119602649
  Basis Set: (AUG-CC-PVTZ AUX)
    Blend: AUG-CC-PVTZ-RI
    Molecular point group: c1

    Geometry (in Angstrom), charge = 0, multiplicity = 1:

       Center              X                  Y                   Z               Mass
    ------------   -----------------  -----------------  -----------------  -----------------
         N           -1.721702373594     0.696513547064     0.214117997636    14.003074004430
         C           -0.864431573594    -0.340860552936    -0.109120602364    12.000000000000
         C            0.589897426406    -0.175918552936    -0.062049602364    12.000000000000
         C           -1.615498573594    -1.464522552936    -0.447810602364    12.000000000000
         C           -3.042429573594     0.198340447064     0.065673397636    12.000000000000
         C           -2.981005573594    -1.123761552936    -0.341705602364    12.000000000000
         C           -1.427233573594     2.002390447064     0.675777397636    12.000000000000
         C            1.235953426406     0.903015447064    -0.690369602364    12.000000000000
         C            1.372719426406    -1.143893552936     0.590155397636    12.000000000000
         C            2.625579426406     1.019861447064    -0.648043602364    12.000000000000
         C            2.762951426406    -1.036148552936     0.612082397636    12.000000000000
         C            3.393926426406     0.050620447064     0.001260397636    12.000000000000
         H           -1.199072573594    -2.411974552936    -0.767390602364     1.007825032230
         H           -3.888315573594     0.838470447064     0.280615397636     1.007825032230
         H           -3.831300573594    -1.763194552936    -0.541049602364     1.007825032230
         H           -2.227255573594     2.346722447064     1.333862397636     1.007825032230
         H           -0.493011573594     1.967814447064     1.237132397636     1.007825032230
         H           -1.319910573594     2.706888447064    -0.154192602364     1.007825032230
         H            0.647622426406     1.633737447064    -1.241314602364     1.007825032230
         H            0.875267426406    -1.974288552936     1.086551397636     1.007825032230
         H            3.111394426406     1.859717447064    -1.139905602364     1.007825032230
         H            3.355074426406    -1.793900552936     1.120344397636     1.007825032230
         H            4.477340426406     0.139427447064     0.027127397636     1.007825032230

  Basis Set: AUG-CC-PVTZ
    Blend: AUG-CC-PVTZ
  Basis Set: (AUG-CC-PVTZ AUX)
    Blend: AUG-CC-PVTZ-JKFIT
	 Reference Energy          =    -477.5420568119603217 [Eh]
	 Singles Energy            =      -0.0000000000000000 [Eh]
	 Same-Spin Energy          =      -0.5392326653180441 [Eh]
	 Opposite-Spin Energy      =      -1.6838603950526623 [Eh]
	 Correlation Energy        =      -2.2230930603707062 [Eh]
	 Total Energy              =    -479.7651498723310510 [Eh]

	 ================> DF-SCS-MP2 Energies <==================
	-----------------------------------------------------------
	 SCS Same-Spin Scale       =       0.3333333333333333 [-]
	 SCS Opposite-Spin Scale   =       1.2000000000000000 [-]
	 SCS Same-Spin Energy      =      -0.1797442217726814 [Eh]
	 SCS Opposite-Spin Energy  =      -2.0206324740631945 [Eh]
	 SCS Correlation Energy    =      -2.2003766958358759 [Eh]
	 SCS Total Energy          =    -479.7424335077961928 [Eh]
	-----------------------------------------------------------

  Dipole Moment: [D]
     X:     0.4180      Y:     1.7143      Z:     0.6335     Total:     1.8748

*** Psi4 exiting successfully. Buy a developer a beer!
