                               Psi4 1.3.2 release

  ==> Input File <==

--------------------------------------------------------------------------
#psi4
#
memory 32 gb

molecule  {
0 1
  N       -1.7531090     0.6487580     0.1985890
  C       -0.8584400    -0.3593730    -0.1157050
  C        0.5958890    -0.1944310    -0.0686340
  C       -1.6095070    -1.4830350    -0.4543950
  C       -3.0364380     0.1798280     0.0590890
  C       -2.9705784    -1.2377461    -0.3777078
  C       -1.4212420     1.9838780     0.6691930
  C        1.2419450     0.8845030    -0.6969540
  C        1.3787110    -1.1624060     0.5835710
  C        2.6315710     1.0013490    -0.6546280
  C        2.7689430    -1.0546610     0.6054980
  C        3.3999180     0.0321080    -0.0053240
  H       -1.1930810    -2.4304870    -0.7739750
  H       -3.8823240     0.8199580     0.2740310
  H       -3.8253090    -1.7817070    -0.5476340
  H       -2.2212640     2.3282100     1.3272780
  H       -0.4870200     1.9493020     1.2305480
  H       -1.3139190     2.6883760    -0.1607770
  H        0.6536140     1.6152250    -1.2478990
  H        0.8812590    -1.9928010     1.0799670
  H        3.1173860     1.8412050    -1.1464900
  H        3.3610660    -1.8124130     1.1137600
  H        4.4833320     0.1209150     0.0205430
units angstrom
no_reorient  #important for SAPT in psi4, default
symmetry c1  #important for SAPT in psi4, default
}

set PROPERTIES_ORIGIN ["COM"]
properties('MP2/aug-cc-pvtz', properties = ['dipole'])
--------------------------------------------------------------------------

    Molecular point group: c1
  Charge       = 0
  Multiplicity = 1
  Basis Set: AUG-CC-PVTZ
    Blend: AUG-CC-PVTZ
  Basis Set: (AUG-CC-PVTZ AUX)
    Blend: AUG-CC-PVTZ-JKFIT

    Orbital Energies [Eh]
    ---------------------

    Doubly Occupied:

       1A    -15.617031     2A    -11.273512     3A    -11.259268
       4A    -11.253821     5A    -11.250070     6A    -11.240201
       7A    -11.238936     8A    -11.238639     9A    -11.237184
      10A    -11.236199    11A    -11.213091    12A    -11.209235
      13A     -1.298625    14A     -1.154435    15A     -1.073525
      16A     -1.040408    17A     -1.015606    18A     -0.949317
      19A     -0.941060    20A     -0.831149    21A     -0.829905
      22A     -0.777372    23A     -0.742345    24A     -0.713938
      25A     -0.677479    26A     -0.640570    27A     -0.632014
      28A     -0.624361    29A     -0.602538    30A     -0.586693
      31A     -0.576571    32A     -0.568664    33A     -0.549909
      34A     -0.524052    35A     -0.505428    36A     -0.501540
      37A     -0.496572    38A     -0.490640    39A     -0.353716
      40A     -0.340811    41A     -0.338247    42A     -0.264798

  @DF-RHF Final Energy:  -477.53063234887941

   => Energetics <=

    Nuclear Repulsion Energy =            637.7709574056506199
    One-Electron Energy =               -1910.7842279073258851
    Two-Electron Energy =                 795.4826381527959711
    Total Energy =                       -477.5306323488794078
  Basis Set: (AUG-CC-PVTZ AUX)
    Blend: AUG-CC-PVTZ-RI
    Molecular point group: c1

    Geometry (in Angstrom), charge = 0, multiplicity = 1:

       Center              X                  Y                   Z               Mass
    ------------   -----------------  -----------------  -----------------  -----------------
         N           -1.756105697346     0.677170293742     0.208217945892    14.003074004430
         C           -0.861436697346    -0.330960706258    -0.106076054108    12.000000000000
         C            0.592892302654    -0.166018706258    -0.059005054108    12.000000000000
         C           -1.612503697346    -1.454622706258    -0.444766054108    12.000000000000
         C           -3.039434697346     0.208240293742     0.068717945892    12.000000000000
         C           -2.973575097346    -1.209333806258    -0.368078854108    12.000000000000
         C           -1.424238697346     2.012290293742     0.678821945892    12.000000000000
         C            1.238948302654     0.912915293742    -0.687325054108    12.000000000000
         C            1.375714302654    -1.133993706258     0.593199945892    12.000000000000
         C            2.628574302654     1.029761293742    -0.644999054108    12.000000000000
         C            2.765946302654    -1.026248706258     0.615126945892    12.000000000000
         C            3.396921302654     0.060520293742     0.004304945892    12.000000000000
         H           -1.196077697346    -2.402074706258    -0.764346054108     1.007825032230
         H           -3.885320697346     0.848370293742     0.283659945892     1.007825032230
         H           -3.828305697346    -1.753294706258    -0.538005054108     1.007825032230
         H           -2.224260697346     2.356622293742     1.336906945892     1.007825032230
         H           -0.490016697346     1.977714293742     1.240176945892     1.007825032230
         H           -1.316915697346     2.716788293742    -0.151148054108     1.007825032230
         H            0.650617302654     1.643637293742    -1.238270054108     1.007825032230
         H            0.878262302654    -1.964388706258     1.089595945892     1.007825032230
         H            3.114389302654     1.869617293742    -1.136861054108     1.007825032230
         H            3.358069302654    -1.784000706258     1.123388945892     1.007825032230
         H            4.480335302654     0.149327293742     0.030171945892     1.007825032230

  Basis Set: AUG-CC-PVTZ
    Blend: AUG-CC-PVTZ
  Basis Set: (AUG-CC-PVTZ AUX)
    Blend: AUG-CC-PVTZ-JKFIT
	 Reference Energy          =    -477.5306323488794078 [Eh]
	 Singles Energy            =      -0.0000000000000000 [Eh]
	 Same-Spin Energy          =      -0.5407800022011362 [Eh]
	 Opposite-Spin Energy      =      -1.6861140647811230 [Eh]
	 Correlation Energy        =      -2.2268940669822594 [Eh]
	 Total Energy              =    -479.7575264158616619 [Eh]

	 ================> DF-SCS-MP2 Energies <==================
	-----------------------------------------------------------
	 SCS Same-Spin Scale       =       0.3333333333333333 [-]
	 SCS Opposite-Spin Scale   =       1.2000000000000000 [-]
	 SCS Same-Spin Energy      =      -0.1802600007337121 [Eh]
	 SCS Opposite-Spin Energy  =      -2.0233368777373477 [Eh]
	 SCS Correlation Energy    =      -2.2035968784710596 [Eh]
	 SCS Total Energy          =    -479.7342292273504540 [Eh]
	-----------------------------------------------------------

  Dipole Moment: [D]
     X:     0.4929      Y:     1.9016      Z:     0.6910     Total:     2.0824

*** Psi4 exiting successfully. Buy a developer a beer!
