                               Psi4 1.3.2 release

  ==> Input File <==

--------------------------------------------------------------------------
#psi4
#
memory 32 gb

molecule  {
0 1
  N       -1.7531090     0.6487580     0.1985890
  C       -0.8380860    -0.3718293    -0.1203885
  C        0.5958890    -0.1944310    -0.0686340
  C       -1.6095070    -1.4830350    -0.4543950
  C       -3.0364380     0.1798280     0.0590890
  C       -2.9750140    -1.1422740    -0.3482900
  C       -1.4212420     1.9838780     0.6691930
  C        1.2419450     0.8845030    -0.6969540
  C        1.3787110    -1.1624060     0.5835710
  C        2.6315710     1.0013490    -0.6546280
  C        2.7689430    -1.0546610     0.6054980
  C        3.3999180     0.0321080    -0.0053240
  H       -1.1930810    -2.4304870    -0.7739750
  H       -3.8823240     0.8199580     0.2740310
  H       -3.8253090    -1.7817070    -0.5476340
  H       -2.2212640     2.3282100     1.3272780
  H       -0.4870200     1.9493020     1.2305480
  H       -1.3139190     2.6883760    -0.1607770
  H        0.6536140     1.6152250    -1.2478990
  H        0.8812590    -1.9928010     1.0799670
  H        3.1173860     1.8412050    -1.1464900
  H        3.3610660    -1.8124130     1.1137600
  H        4.4833320     0.1209150     0.0205430
units angstrom
no_reorient  #important for SAPT in psi4, default
symmetry c1  #important for SAPT in psi4, default
}

set PROPERTIES_ORIGIN ["COM"]
properties('MP2/aug-cc-pvtz', properties = ['dipole'])
--------------------------------------------------------------------------

    Molecular point group: c1
  Charge       = 0
  Multiplicity = 1
  Basis Set: AUG-CC-PVTZ
    Blend: AUG-CC-PVTZ
  Basis Set: (AUG-CC-PVTZ AUX)
    Blend: AUG-CC-PVTZ-JKFIT

    Orbital Energies [Eh]
    ---------------------

    Doubly Occupied:

       1A    -15.606353     2A    -11.269338     3A    -11.256572
       4A    -11.250521     5A    -11.249038     6A    -11.240874
       7A    -11.239714     8A    -11.239348     9A    -11.238070
      10A    -11.237062    11A    -11.209331    12A    -11.207703
      13A     -1.292730    14A     -1.155846    15A     -1.072695
      16A     -1.045946    17A     -1.016327    18A     -0.955246
      19A     -0.931009    20A     -0.835219    21A     -0.830948
      22A     -0.768652    23A     -0.744237    24A     -0.711134
      25A     -0.678053    26A     -0.638966    27A     -0.632263
      28A     -0.622238    29A     -0.596622    30A     -0.587225
      31A     -0.569875    32A     -0.566244    33A     -0.539359
      34A     -0.525563    35A     -0.522189    36A     -0.502139
      37A     -0.496703    38A     -0.491414    39A     -0.355473
      40A     -0.340295    41A     -0.334459    42A     -0.274577

  @DF-RHF Final Energy:  -477.54416155806763

   => Energetics <=

    Nuclear Repulsion Energy =            638.9235317911852690
    One-Electron Energy =               -1913.1802456263174008
    Two-Electron Energy =                 796.7125522770645603
    Total Energy =                       -477.5441615580675716
  Basis Set: (AUG-CC-PVTZ AUX)
    Blend: AUG-CC-PVTZ-RI
    Molecular point group: c1

    Geometry (in Angstrom), charge = 0, multiplicity = 1:

       Center              X                  Y                   Z               Mass
    ------------   -----------------  -----------------  -----------------  -----------------
         N           -1.757321699856     0.670828737981     0.206328499032    14.003074004430
         C           -0.842298699856    -0.349758562019    -0.112649000968    12.000000000000
         C            0.591676300144    -0.172360262019    -0.060894500968    12.000000000000
         C           -1.613719699856    -1.460964262019    -0.446655500968    12.000000000000
         C           -3.040650699856     0.201898737981     0.066828499032    12.000000000000
         C           -2.979226699856    -1.120203262019    -0.340550500968    12.000000000000
         C           -1.425454699856     2.005948737981     0.676932499032    12.000000000000
         C            1.237732300144     0.906573737981    -0.689214500968    12.000000000000
         C            1.374498300144    -1.140335262019     0.591310499032    12.000000000000
         C            2.627358300144     1.023419737981    -0.646888500968    12.000000000000
         C            2.764730300144    -1.032590262019     0.613237499032    12.000000000000
         C            3.395705300144     0.054178737981     0.002415499032    12.000000000000
         H           -1.197293699856    -2.408416262019    -0.766235500968     1.007825032230
         H           -3.886536699856     0.842028737981     0.281770499032     1.007825032230
         H           -3.829521699856    -1.759636262019    -0.539894500968     1.007825032230
         H           -2.225476699856     2.350280737981     1.335017499032     1.007825032230
         H           -0.491232699856     1.971372737981     1.238287499032     1.007825032230
         H           -1.318131699856     2.710446737981    -0.153037500968     1.007825032230
         H            0.649401300144     1.637295737981    -1.240159500968     1.007825032230
         H            0.877046300144    -1.970730262019     1.087706499032     1.007825032230
         H            3.113173300144     1.863275737981    -1.138750500968     1.007825032230
         H            3.356853300144    -1.790342262019     1.121499499032     1.007825032230
         H            4.479119300144     0.142985737981     0.028282499032     1.007825032230

  Basis Set: AUG-CC-PVTZ
    Blend: AUG-CC-PVTZ
  Basis Set: (AUG-CC-PVTZ AUX)
    Blend: AUG-CC-PVTZ-JKFIT
	 Reference Energy          =    -477.5441615580676284 [Eh]
	 Singles Energy            =      -0.0000000000000000 [Eh]
	 Same-Spin Energy          =      -0.5394979568742917 [Eh]
	 Opposite-Spin Energy      =      -1.6839137077103075 [Eh]
	 Correlation Energy        =      -2.2234116645845994 [Eh]
	 Total Energy              =    -479.7675732226522314 [Eh]

	 ================> DF-SCS-MP2 Energies <==================
	-----------------------------------------------------------
	 SCS Same-Spin Scale       =       0.3333333333333333 [-]
	 SCS Opposite-Spin Scale   =       1.2000000000000000 [-]
	 SCS Same-Spin Energy      =      -0.1798326522914306 [Eh]
	 SCS Opposite-Spin Energy  =      -2.0206964492523687 [Eh]
	 SCS Correlation Energy    =      -2.2005291015437991 [Eh]
	 SCS Total Energy          =    -479.7446906596114218 [Eh]
	-----------------------------------------------------------

  Dipole Moment: [D]
     X:     0.4764      Y:     1.8283      Z:     0.6637     Total:     2.0025

*** Psi4 exiting successfully. Buy a developer a beer!
