                               Psi4 1.4a3.dev225

  ==> Input File <==

--------------------------------------------------------------------------
#psi4
#
memory 32 gb

molecule  {
0 1
  N       -1.7531090     0.6487580     0.1985890
  C       -0.8584400    -0.3593730    -0.1157050
  C        0.5958890    -0.1944310    -0.0686340
  C       -1.6095070    -1.4830350    -0.4543950
  C       -3.0364380     0.1798280     0.0590890
  C       -2.9750140    -1.1422740    -0.3482900
  C       -1.4212420     1.9838780     0.6691930
  C        1.2419450     0.8845030    -0.6969540
  C        1.3787110    -1.1624060     0.5835710
  C        2.6315710     1.0013490    -0.6546280
  C        2.7689430    -1.0546610     0.6054980
  C        3.3999180     0.0321080    -0.0053240
  H       -1.1930810    -2.4304870    -0.7739750
  H       -3.8432478     0.7903868     0.2641016
  H       -3.8253090    -1.7817070    -0.5476340
  H       -2.2212640     2.3282100     1.3272780
  H       -0.4870200     1.9493020     1.2305480
  H       -1.3139190     2.6883760    -0.1607770
  H        0.6536140     1.6152250    -1.2478990
  H        0.8812590    -1.9928010     1.0799670
  H        3.1173860     1.8412050    -1.1464900
  H        3.3610660    -1.8124130     1.1137600
  H        4.4833320     0.1209150     0.0205430
units angstrom
no_reorient  #important for SAPT in psi4, default
symmetry c1  #important for SAPT in psi4, default
}

set PROPERTIES_ORIGIN ["COM"]
properties('MP2/aug-cc-pvtz', properties = ['dipole'])
--------------------------------------------------------------------------

    Molecular point group: c1
  Charge       = 0
  Multiplicity = 1
  Basis Set: AUG-CC-PVTZ
    Blend: AUG-CC-PVTZ
  Basis Set: (AUG-CC-PVTZ AUX)
    Blend: AUG-CC-PVTZ-JKFIT

    Orbital Energies [Eh]
    ---------------------

    Doubly Occupied:

       1A    -15.607210     2A    -11.270726     3A    -11.256294
       4A    -11.250081     5A    -11.242744     6A    -11.240679
       7A    -11.239522     8A    -11.239216     9A    -11.237911
      10A    -11.236996    11A    -11.208062    12A    -11.206693
      13A     -1.298726    14A     -1.155039    15A     -1.073167
      16A     -1.044231    17A     -1.016135    18A     -0.958002
      19A     -0.933310    20A     -0.834661    21A     -0.830571
      22A     -0.772656    23A     -0.745194    24A     -0.712749
      25A     -0.680150    26A     -0.640828    27A     -0.633996
      28A     -0.622577    29A     -0.597444    30A     -0.587164
      31A     -0.570445    32A     -0.568765    33A     -0.539765
      34A     -0.527360    35A     -0.523851    36A     -0.502252
      37A     -0.494843    38A     -0.491727    39A     -0.353885
      40A     -0.340214    41A     -0.335077    42A     -0.275055

  @DF-RHF Final Energy:  -477.54517670039047

   => Energetics <=

    Nuclear Repulsion Energy =            639.3197219007655576
    One-Electron Energy =               -1913.9378508256650093
    Two-Electron Energy =                 797.0729522245088674
    Total Energy =                       -477.5451767003904706
  Basis Set: (AUG-CC-PVTZ AUX)
    Blend: AUG-CC-PVTZ-RI
    Molecular point group: c1

    Geometry (in Angstrom), charge = 0, multiplicity = 1:

       Center              X                  Y                   Z               Mass
    ------------   -----------------  -----------------  -----------------  -----------------
         N           -1.756017561230     0.670066922128     0.206034430968    14.003074004430
         C           -0.861348561230    -0.338064077872    -0.108259569032    12.000000000000
         C            0.592980438770    -0.173122077872    -0.061188569032    12.000000000000
         C           -1.612415561230    -1.461726077872    -0.446949569032    12.000000000000
         C           -3.039346561230     0.201136922128     0.066534430968    12.000000000000
         C           -2.977922561230    -1.120965077872    -0.340844569032    12.000000000000
         C           -1.424150561230     2.005186922128     0.676638430968    12.000000000000
         C            1.239036438770     0.905811922128    -0.689508569032    12.000000000000
         C            1.375802438770    -1.141097077872     0.591016430968    12.000000000000
         C            2.628662438770     1.022657922128    -0.647182569032    12.000000000000
         C            2.766034438770    -1.033352077872     0.612943430968    12.000000000000
         C            3.397009438770     0.053416922128     0.002121430968    12.000000000000
         H           -1.195989561230    -2.409178077872    -0.766529569032     1.007825032230
         H           -3.846156361230     0.811695722128     0.271547030968     1.007825032230
         H           -3.828217561230    -1.760398077872    -0.540188569032     1.007825032230
         H           -2.224172561230     2.349518922128     1.334723430968     1.007825032230
         H           -0.489928561230     1.970610922128     1.237993430968     1.007825032230
         H           -1.316827561230     2.709684922128    -0.153331569032     1.007825032230
         H            0.650705438770     1.636533922128    -1.240453569032     1.007825032230
         H            0.878350438770    -1.971492077872     1.087412430968     1.007825032230
         H            3.114477438770     1.862513922128    -1.139044569032     1.007825032230
         H            3.358157438770    -1.791104077872     1.121205430968     1.007825032230
         H            4.480423438770     0.142223922128     0.027988430968     1.007825032230

  Basis Set: AUG-CC-PVTZ
    Blend: AUG-CC-PVTZ
  Basis Set: (AUG-CC-PVTZ AUX)
    Blend: AUG-CC-PVTZ-JKFIT
	 Reference Energy          =    -477.5451767003904706 [Eh]
	 Singles Energy            =      -0.0000000000000000 [Eh]
	 Same-Spin Energy          =      -0.5390664025723861 [Eh]
	 Opposite-Spin Energy      =      -1.6828612743393241 [Eh]
	 Correlation Energy        =      -2.2219276769117102 [Eh]
	 Total Energy              =    -479.7671043773021893 [Eh]

	 ================> DF-SCS-MP2 Energies <==================
	-----------------------------------------------------------
	 SCS Same-Spin Scale       =       0.3333333333333333 [-]
	 SCS Opposite-Spin Scale   =       1.2000000000000000 [-]
	 SCS Same-Spin Energy      =      -0.1796888008574620 [Eh]
	 SCS Opposite-Spin Energy  =      -2.0194335292071890 [Eh]
	 SCS Correlation Energy    =      -2.1991223300646512 [Eh]
	 SCS Total Energy          =    -479.7442990304551245 [Eh]
	-----------------------------------------------------------

  Dipole Moment: [D]
     X:     0.4650      Y:     1.8627      Z:     0.6781     Total:     2.0361

*** Psi4 exiting successfully. Buy a developer a beer!
