                               Psi4 1.4a3.dev225

  ==> Input File <==

--------------------------------------------------------------------------
#psi4
#
memory 32 gb

molecule  {
0 1
  N       -1.7531090     0.6487580     0.1985890
  C       -0.8584400    -0.3593730    -0.1157050
  C        0.5958890    -0.1944310    -0.0686340
  C       -1.6095070    -1.4830350    -0.4543950
  C       -3.0364380     0.1798280     0.0590890
  C       -2.9943640    -1.1374452    -0.3467864
  C       -1.4212420     1.9838780     0.6691930
  C        1.2419450     0.8845030    -0.6969540
  C        1.3787110    -1.1624060     0.5835710
  C        2.6315710     1.0013490    -0.6546280
  C        2.7689430    -1.0546610     0.6054980
  C        3.3999180     0.0321080    -0.0053240
  H       -1.1930810    -2.4304870    -0.7739750
  H       -3.8823240     0.8199580     0.2740310
  H       -3.8253090    -1.7817070    -0.5476340
  H       -2.2212640     2.3282100     1.3272780
  H       -0.4870200     1.9493020     1.2305480
  H       -1.3139190     2.6883760    -0.1607770
  H        0.6536140     1.6152250    -1.2478990
  H        0.8812590    -1.9928010     1.0799670
  H        3.1173860     1.8412050    -1.1464900
  H        3.3610660    -1.8124130     1.1137600
  H        4.4833320     0.1209150     0.0205430
units angstrom
no_reorient  #important for SAPT in psi4, default
symmetry c1  #important for SAPT in psi4, default
}

set PROPERTIES_ORIGIN ["COM"]
properties('MP2/aug-cc-pvtz', properties = ['dipole'])
--------------------------------------------------------------------------

    Molecular point group: c1
  Charge       = 0
  Multiplicity = 1
  Basis Set: AUG-CC-PVTZ
    Blend: AUG-CC-PVTZ
  Basis Set: (AUG-CC-PVTZ AUX)
    Blend: AUG-CC-PVTZ-JKFIT

    Orbital Energies [Eh]
    ---------------------

    Doubly Occupied:

       1A    -15.606571     2A    -11.270549     3A    -11.257013
       4A    -11.250312     5A    -11.248911     6A    -11.240835
       7A    -11.239693     8A    -11.239371     9A    -11.238089
      10A    -11.237180    11A    -11.209029    12A    -11.207953
      13A     -1.298210    14A     -1.155196    15A     -1.071266
      16A     -1.044183    17A     -1.016277    18A     -0.956889
      19A     -0.931804    20A     -0.833536    21A     -0.830738
      22A     -0.772107    23A     -0.742438    24A     -0.712307
      25A     -0.677932    26A     -0.639909    27A     -0.632010
      28A     -0.622600    29A     -0.597503    30A     -0.587285
      31A     -0.571369    32A     -0.568119    33A     -0.535369
      34A     -0.529001    35A     -0.522508    36A     -0.502277
      37A     -0.494350    38A     -0.491865    39A     -0.354234
      40A     -0.340202    41A     -0.333246    42A     -0.276791

  @DF-RHF Final Energy:  -477.54606439159062

   => Energetics <=

    Nuclear Repulsion Energy =            638.7563321852049967
    One-Electron Energy =               -1912.8307402017501317
    Two-Electron Energy =                 796.5283436249544593
    Total Energy =                       -477.5460643915905621
  Basis Set: (AUG-CC-PVTZ AUX)
    Blend: AUG-CC-PVTZ-RI
    Molecular point group: c1

    Geometry (in Angstrom), charge = 0, multiplicity = 1:

       Center              X                  Y                   Z               Mass
    ------------   -----------------  -----------------  -----------------  -----------------
         N           -1.754288721436     0.669508333607     0.205855868043    14.003074004430
         C           -0.859619721436    -0.338622666393    -0.108438131957    12.000000000000
         C            0.594709278564    -0.173680666393    -0.061367131957    12.000000000000
         C           -1.610686721436    -1.462284666393    -0.447128131957    12.000000000000
         C           -3.037617721436     0.200578333607     0.066355868043    12.000000000000
         C           -2.995543721436    -1.116694866393    -0.339519531957    12.000000000000
         C           -1.422421721436     2.004628333607     0.676459868043    12.000000000000
         C            1.240765278564     0.905253333607    -0.689687131957    12.000000000000
         C            1.377531278564    -1.141655666393     0.590837868043    12.000000000000
         C            2.630391278564     1.022099333607    -0.647361131957    12.000000000000
         C            2.767763278564    -1.033910666393     0.612764868043    12.000000000000
         C            3.398738278564     0.052858333607     0.001942868043    12.000000000000
         H           -1.194260721436    -2.409736666393    -0.766708131957     1.007825032230
         H           -3.883503721436     0.840708333607     0.281297868043     1.007825032230
         H           -3.826488721436    -1.760956666393    -0.540367131957     1.007825032230
         H           -2.222443721436     2.348960333607     1.334544868043     1.007825032230
         H           -0.488199721436     1.970052333607     1.237814868043     1.007825032230
         H           -1.315098721436     2.709126333607    -0.153510131957     1.007825032230
         H            0.652434278564     1.635975333607    -1.240632131957     1.007825032230
         H            0.880079278564    -1.972050666393     1.087233868043     1.007825032230
         H            3.116206278564     1.861955333607    -1.139223131957     1.007825032230
         H            3.359886278564    -1.791662666393     1.121026868043     1.007825032230
         H            4.482152278564     0.141665333607     0.027809868043     1.007825032230

  Basis Set: AUG-CC-PVTZ
    Blend: AUG-CC-PVTZ
  Basis Set: (AUG-CC-PVTZ AUX)
    Blend: AUG-CC-PVTZ-JKFIT
	 Reference Energy          =    -477.5460643915906189 [Eh]
	 Singles Energy            =      -0.0000000000000000 [Eh]
	 Same-Spin Energy          =      -0.5388380784877815 [Eh]
	 Opposite-Spin Energy      =      -1.6829493511649629 [Eh]
	 Correlation Energy        =      -2.2217874296527444 [Eh]
	 Total Energy              =    -479.7678518212433687 [Eh]

	 ================> DF-SCS-MP2 Energies <==================
	-----------------------------------------------------------
	 SCS Same-Spin Scale       =       0.3333333333333333 [-]
	 SCS Opposite-Spin Scale   =       1.2000000000000000 [-]
	 SCS Same-Spin Energy      =      -0.1796126928292605 [Eh]
	 SCS Opposite-Spin Energy  =      -2.0195392213979555 [Eh]
	 SCS Correlation Energy    =      -2.1991519142272158 [Eh]
	 SCS Total Energy          =    -479.7452163058178485 [Eh]
	-----------------------------------------------------------

  Dipole Moment: [D]
     X:     0.4797      Y:     1.8575      Z:     0.6770     Total:     2.0344

*** Psi4 exiting successfully. Buy a developer a beer!
