                               Psi4 1.3.2 release

  ==> Input File <==

--------------------------------------------------------------------------
#psi4
#
memory 32 gb

molecule  {
0 1
  N       -1.7531090     0.6487580     0.1985890
  C       -0.8584400    -0.3593730    -0.1157050
  C        0.5958890    -0.1944310    -0.0686340
  C       -1.6095070    -1.4830350    -0.4543950
  C       -3.0364380     0.1798280     0.0590890
  C       -3.0716469    -1.1437374    -0.3466439
  C       -1.4212420     1.9838780     0.6691930
  C        1.2419450     0.8845030    -0.6969540
  C        1.3787110    -1.1624060     0.5835710
  C        2.6315710     1.0013490    -0.6546280
  C        2.7689430    -1.0546610     0.6054980
  C        3.3999180     0.0321080    -0.0053240
  H       -1.1930810    -2.4304870    -0.7739750
  H       -3.8823240     0.8199580     0.2740310
  H       -3.8253090    -1.7817070    -0.5476340
  H       -2.2212640     2.3282100     1.3272780
  H       -0.4870200     1.9493020     1.2305480
  H       -1.3139190     2.6883760    -0.1607770
  H        0.6536140     1.6152250    -1.2478990
  H        0.8812590    -1.9928010     1.0799670
  H        3.1173860     1.8412050    -1.1464900
  H        3.3610660    -1.8124130     1.1137600
  H        4.4833320     0.1209150     0.0205430
units angstrom
no_reorient  #important for SAPT in psi4, default
symmetry c1  #important for SAPT in psi4, default
}

set PROPERTIES_ORIGIN ["COM"]
properties('MP2/aug-cc-pvtz', properties = ['dipole'])
--------------------------------------------------------------------------

    Molecular point group: c1
  Charge       = 0
  Multiplicity = 1
  Basis Set: AUG-CC-PVTZ
    Blend: AUG-CC-PVTZ
  Basis Set: (AUG-CC-PVTZ AUX)
    Blend: AUG-CC-PVTZ-JKFIT

    Orbital Energies [Eh]
    ---------------------

    Doubly Occupied:

       1A    -15.605475     2A    -11.270998     3A    -11.258666
       4A    -11.254326     5A    -11.250959     6A    -11.241256
       7A    -11.240151     8A    -11.239709     9A    -11.238504
      10A    -11.237567    11A    -11.214515    12A    -11.210661
      13A     -1.295902    14A     -1.155599    15A     -1.064045
      16A     -1.043846    17A     -1.016590    18A     -0.958881
      19A     -0.928377    20A     -0.833947    21A     -0.831111
      22A     -0.779811    23A     -0.740504    24A     -0.713565
      25A     -0.677804    26A     -0.639936    27A     -0.632218
      28A     -0.623688    29A     -0.604378    30A     -0.587730
      31A     -0.578389    32A     -0.568324    33A     -0.540060
      34A     -0.524189    35A     -0.511639    36A     -0.502502
      37A     -0.491957    38A     -0.489383    39A     -0.355049
      40A     -0.340309    41A     -0.326333    42A     -0.280401

  @DF-RHF Final Energy:  -477.53556531711996

   => Energetics <=

    Nuclear Repulsion Energy =            637.2789279721359890
    One-Electron Energy =               -1909.8304806861178804
    Two-Electron Energy =                 795.0159873968618740
    Total Energy =                       -477.5355653171200174
  Basis Set: (AUG-CC-PVTZ AUX)
    Blend: AUG-CC-PVTZ-RI
    Molecular point group: c1

    Geometry (in Angstrom), charge = 0, multiplicity = 1:

       Center              X                  Y                   Z               Mass
    ------------   -----------------  -----------------  -----------------  -----------------
         N           -1.748385100443     0.669988993158     0.205844982505    14.003074004430
         C           -0.853716100443    -0.338142006842    -0.108449017495    12.000000000000
         C            0.600612899557    -0.173200006842    -0.061378017495    12.000000000000
         C           -1.604783100443    -1.461804006842    -0.447139017495    12.000000000000
         C           -3.031714100443     0.201058993158     0.066344982505    12.000000000000
         C           -3.066923000443    -1.122506406842    -0.339387917495    12.000000000000
         C           -1.416518100443     2.005108993158     0.676448982505    12.000000000000
         C            1.246668899557     0.905733993158    -0.689698017495    12.000000000000
         C            1.383434899557    -1.141175006842     0.590826982505    12.000000000000
         C            2.636294899557     1.022579993158    -0.647372017495    12.000000000000
         C            2.773666899557    -1.033430006842     0.612753982505    12.000000000000
         C            3.404641899557     0.053338993158     0.001931982505    12.000000000000
         H           -1.188357100443    -2.409256006842    -0.766719017495     1.007825032230
         H           -3.877600100443     0.841188993158     0.281286982505     1.007825032230
         H           -3.820585100443    -1.760476006842    -0.540378017495     1.007825032230
         H           -2.216540100443     2.349440993158     1.334533982505     1.007825032230
         H           -0.482296100443     1.970532993158     1.237803982505     1.007825032230
         H           -1.309195100443     2.709606993158    -0.153521017495     1.007825032230
         H            0.658337899557     1.636455993158    -1.240643017495     1.007825032230
         H            0.885982899557    -1.971570006842     1.087222982505     1.007825032230
         H            3.122109899557     1.862435993158    -1.139234017495     1.007825032230
         H            3.365789899557    -1.791182006842     1.121015982505     1.007825032230
         H            4.488055899557     0.142145993158     0.027798982505     1.007825032230

  Basis Set: AUG-CC-PVTZ
    Blend: AUG-CC-PVTZ
  Basis Set: (AUG-CC-PVTZ AUX)
    Blend: AUG-CC-PVTZ-JKFIT
	 Reference Energy          =    -477.5355653171199606 [Eh]
	 Singles Energy            =      -0.0000000000000000 [Eh]
	 Same-Spin Energy          =      -0.5381095683607029 [Eh]
	 Opposite-Spin Energy      =      -1.6831281278256787 [Eh]
	 Correlation Energy        =      -2.2212376961863818 [Eh]
	 Total Energy              =    -479.7568030133063530 [Eh]

	 ================> DF-SCS-MP2 Energies <==================
	-----------------------------------------------------------
	 SCS Same-Spin Scale       =       0.3333333333333333 [-]
	 SCS Opposite-Spin Scale   =       1.2000000000000000 [-]
	 SCS Same-Spin Energy      =      -0.1793698561202343 [Eh]
	 SCS Opposite-Spin Energy  =      -2.0197537533908143 [Eh]
	 SCS Correlation Energy    =      -2.1991236095110485 [Eh]
	 SCS Total Energy          =    -479.7346889266310086 [Eh]
	-----------------------------------------------------------

  Dipole Moment: [D]
     X:     0.5419      Y:     1.8734      Z:     0.6825     Total:     2.0662

*** Psi4 exiting successfully. Buy a developer a beer!
