                               Psi4 1.3.2 release

  ==> Input File <==

--------------------------------------------------------------------------
#psi4
#
memory 32 gb

molecule  {
0 1
  N       -1.7531090     0.6487580     0.1985890
  C       -0.7291555    -0.5050534    -0.1611222
  C        0.5958890    -0.1944310    -0.0686340
  C       -1.6095070    -1.4830350    -0.4543950
  C       -3.0364380     0.1798280     0.0590890
  C       -2.9750140    -1.1422740    -0.3482900
  C       -1.4212420     1.9838780     0.6691930
  C        1.2419450     0.8845030    -0.6969540
  C        1.3787110    -1.1624060     0.5835710
  C        2.6315710     1.0013490    -0.6546280
  C        2.7689430    -1.0546610     0.6054980
  C        3.3999180     0.0321080    -0.0053240
  H       -1.1930810    -2.4304870    -0.7739750
  H       -3.8823240     0.8199580     0.2740310
  H       -3.8253090    -1.7817070    -0.5476340
  H       -2.2212640     2.3282100     1.3272780
  H       -0.4870200     1.9493020     1.2305480
  H       -1.3139190     2.6883760    -0.1607770
  H        0.6536140     1.6152250    -1.2478990
  H        0.8812590    -1.9928010     1.0799670
  H        3.1173860     1.8412050    -1.1464900
  H        3.3610660    -1.8124130     1.1137600
  H        4.4833320     0.1209150     0.0205430
units angstrom
no_reorient  #important for SAPT in psi4, default
symmetry c1  #important for SAPT in psi4, default
}

set PROPERTIES_ORIGIN ["COM"]
properties('MP2/aug-cc-pvtz', properties = ['dipole'])
--------------------------------------------------------------------------

    Molecular point group: c1
  Charge       = 0
  Multiplicity = 1
  Basis Set: AUG-CC-PVTZ
    Blend: AUG-CC-PVTZ
  Basis Set: (AUG-CC-PVTZ AUX)
    Blend: AUG-CC-PVTZ-JKFIT

    Orbital Energies [Eh]
    ---------------------

    Doubly Occupied:

       1A    -15.589477     2A    -11.261687     3A    -11.259993
       4A    -11.258260     5A    -11.245112     6A    -11.243451
       7A    -11.242039     8A    -11.240601     9A    -11.239424
      10A    -11.237925    11A    -11.218185    12A    -11.204564
      13A     -1.257409    14A     -1.161593    15A     -1.076868
      16A     -1.052750    17A     -1.018091    18A     -0.958393
      19A     -0.915022    20A     -0.846188    21A     -0.833455
      22A     -0.759399    23A     -0.748994    24A     -0.703982
      25A     -0.678326    26A     -0.639020    27A     -0.632656
      28A     -0.614887    29A     -0.596072    30A     -0.588576
      31A     -0.579519    32A     -0.549691    33A     -0.545540
      34A     -0.517655    35A     -0.515744    36A     -0.507111
      37A     -0.491756    38A     -0.477652    39A     -0.366583
      40A     -0.341514    41A     -0.330696    42A     -0.272665

  @DF-RHF Final Energy:  -477.50412914031426

   => Energetics <=

    Nuclear Repulsion Energy =            638.0712629978822861
    One-Electron Energy =               -1911.5137355250376459
    Two-Electron Energy =                 795.9383433868410975
    Total Energy =                       -477.5041291403142623
  Basis Set: (AUG-CC-PVTZ AUX)
    Blend: AUG-CC-PVTZ-RI
    Molecular point group: c1

    Geometry (in Angstrom), charge = 0, multiplicity = 1:

       Center              X                  Y                   Z               Mass
    ------------   -----------------  -----------------  -----------------  -----------------
         N           -1.765642872931     0.681005692956     0.209440135972    14.003074004430
         C           -0.741689372931    -0.472805707044    -0.150271064028    12.000000000000
         C            0.583355127069    -0.162183307044    -0.057782864028    12.000000000000
         C           -1.622040872931    -1.450787307044    -0.443543864028    12.000000000000
         C           -3.048971872931     0.212075692956     0.069940135972    12.000000000000
         C           -2.987547872931    -1.110026307044    -0.337438864028    12.000000000000
         C           -1.433775872931     2.016125692956     0.680044135972    12.000000000000
         C            1.229411127069     0.916750692956    -0.686102864028    12.000000000000
         C            1.366177127069    -1.130158307044     0.594422135972    12.000000000000
         C            2.619037127069     1.033596692956    -0.643776864028    12.000000000000
         C            2.756409127069    -1.022413307044     0.616349135972    12.000000000000
         C            3.387384127069     0.064355692956     0.005527135972    12.000000000000
         H           -1.205614872931    -2.398239307044    -0.763123864028     1.007825032230
         H           -3.894857872931     0.852205692956     0.284882135972     1.007825032230
         H           -3.837842872931    -1.749459307044    -0.536782864028     1.007825032230
         H           -2.233797872931     2.360457692956     1.338129135972     1.007825032230
         H           -0.499553872931     1.981549692956     1.241399135972     1.007825032230
         H           -1.326452872931     2.720623692956    -0.149925864028     1.007825032230
         H            0.641080127069     1.647472692956    -1.237047864028     1.007825032230
         H            0.868725127069    -1.960553307044     1.090818135972     1.007825032230
         H            3.104852127069     1.873452692956    -1.135638864028     1.007825032230
         H            3.348532127069    -1.780165307044     1.124611135972     1.007825032230
         H            4.470798127069     0.153162692956     0.031394135972     1.007825032230

  Basis Set: AUG-CC-PVTZ
    Blend: AUG-CC-PVTZ
  Basis Set: (AUG-CC-PVTZ AUX)
    Blend: AUG-CC-PVTZ-JKFIT
	 Reference Energy          =    -477.5041291403142623 [Eh]
	 Singles Energy            =      -0.0000000000000000 [Eh]
	 Same-Spin Energy          =      -0.5411706019425864 [Eh]
	 Opposite-Spin Energy      =      -1.6882304241409254 [Eh]
	 Correlation Energy        =      -2.2294010260835115 [Eh]
	 Total Energy              =    -479.7335301663977702 [Eh]

	 ================> DF-SCS-MP2 Energies <==================
	-----------------------------------------------------------
	 SCS Same-Spin Scale       =       0.3333333333333333 [-]
	 SCS Opposite-Spin Scale   =       1.2000000000000000 [-]
	 SCS Same-Spin Energy      =      -0.1803902006475288 [Eh]
	 SCS Opposite-Spin Energy  =      -2.0258765089691102 [Eh]
	 SCS Correlation Energy    =      -2.2062667096166391 [Eh]
	 SCS Total Energy          =    -479.7103958499308760 [Eh]
	-----------------------------------------------------------

  Dipole Moment: [D]
     X:     0.7196      Y:     1.5854      Z:     0.5596     Total:     1.8288

*** Psi4 exiting successfully. Buy a developer a beer!
