                               Psi4 1.3.2 release

  ==> Input File <==

--------------------------------------------------------------------------
#psi4
#
memory 32 gb

molecule  {
0 1
  N       -1.7531090     0.6487580     0.1985890
  C       -0.8179397    -0.3851201    -0.1235885
  C        0.5958890    -0.1944310    -0.0686340
  C       -1.6095070    -1.4830350    -0.4543950
  C       -3.0364380     0.1798280     0.0590890
  C       -2.9750140    -1.1422740    -0.3482900
  C       -1.4212420     1.9838780     0.6691930
  C        1.2419450     0.8845030    -0.6969540
  C        1.3787110    -1.1624060     0.5835710
  C        2.6315710     1.0013490    -0.6546280
  C        2.7689430    -1.0546610     0.6054980
  C        3.3999180     0.0321080    -0.0053240
  H       -1.1930810    -2.4304870    -0.7739750
  H       -3.8823240     0.8199580     0.2740310
  H       -3.8253090    -1.7817070    -0.5476340
  H       -2.2212640     2.3282100     1.3272780
  H       -0.4870200     1.9493020     1.2305480
  H       -1.3139190     2.6883760    -0.1607770
  H        0.6536140     1.6152250    -1.2478990
  H        0.8812590    -1.9928010     1.0799670
  H        3.1173860     1.8412050    -1.1464900
  H        3.3610660    -1.8124130     1.1137600
  H        4.4833320     0.1209150     0.0205430
units angstrom
no_reorient  #important for SAPT in psi4, default
symmetry c1  #important for SAPT in psi4, default
}

set PROPERTIES_ORIGIN ["COM"]
properties('MP2/aug-cc-pvtz', properties = ['dipole'])
--------------------------------------------------------------------------

    Molecular point group: c1
  Charge       = 0
  Multiplicity = 1
  Basis Set: AUG-CC-PVTZ
    Blend: AUG-CC-PVTZ
  Basis Set: (AUG-CC-PVTZ AUX)
    Blend: AUG-CC-PVTZ-JKFIT

    Orbital Energies [Eh]
    ---------------------

    Doubly Occupied:

       1A    -15.604977     2A    -11.268030     3A    -11.256741
       4A    -11.252446     5A    -11.247887     6A    -11.241059
       7A    -11.239916     8A    -11.239408     9A    -11.238184
      10A    -11.237066    11A    -11.211127    12A    -11.207648
      13A     -1.286954    14A     -1.156684    15A     -1.072206
      16A     -1.047908    17A     -1.016483    18A     -0.954760
      19A     -0.928642    20A     -0.837173    21A     -0.831309
      22A     -0.766611    23A     -0.745364    24A     -0.709988
      25A     -0.678192    26A     -0.638364    27A     -0.632416
      28A     -0.621803    29A     -0.596559    30A     -0.587295
      31A     -0.571435    32A     -0.563013    33A     -0.540660
      34A     -0.523833    35A     -0.520739    36A     -0.502589
      37A     -0.497467    38A     -0.490881    39A     -0.357034
      40A     -0.340352    41A     -0.333654    42A     -0.273885

  @DF-RHF Final Energy:  -477.54095184233449

   => Energetics <=

    Nuclear Repulsion Energy =            638.8116691270836327
    One-Electron Energy =               -1912.9677616916467287
    Two-Electron Energy =                 796.6151407222286025
    Total Energy =                       -477.5409518423344934
  Basis Set: (AUG-CC-PVTZ AUX)
    Blend: AUG-CC-PVTZ-RI
    Molecular point group: c1

    Geometry (in Angstrom), charge = 0, multiplicity = 1:

       Center              X                  Y                   Z               Mass
    ------------   -----------------  -----------------  -----------------  -----------------
         N           -1.758860670568     0.671844018799     0.206572946215    14.003074004430
         C           -0.823691370568    -0.362034081201    -0.115604553785    12.000000000000
         C            0.590137329432    -0.171344981201    -0.060650053785    12.000000000000
         C           -1.615258670568    -1.459948981201    -0.446411053785    12.000000000000
         C           -3.042189670568     0.202914018799     0.067072946215    12.000000000000
         C           -2.980765670568    -1.119187981201    -0.340306053785    12.000000000000
         C           -1.426993670568     2.006964018799     0.677176946215    12.000000000000
         C            1.236193329432     0.907589018799    -0.688970053785    12.000000000000
         C            1.372959329432    -1.139319981201     0.591554946215    12.000000000000
         C            2.625819329432     1.024435018799    -0.646644053785    12.000000000000
         C            2.763191329432    -1.031574981201     0.613481946215    12.000000000000
         C            3.394166329432     0.055194018799     0.002659946215    12.000000000000
         H           -1.198832670568    -2.407400981201    -0.765991053785     1.007825032230
         H           -3.888075670568     0.843044018799     0.282014946215     1.007825032230
         H           -3.831060670568    -1.758620981201    -0.539650053785     1.007825032230
         H           -2.227015670568     2.351296018799     1.335261946215     1.007825032230
         H           -0.492771670568     1.972388018799     1.238531946215     1.007825032230
         H           -1.319670670568     2.711462018799    -0.152793053785     1.007825032230
         H            0.647862329432     1.638311018799    -1.239915053785     1.007825032230
         H            0.875507329432    -1.969714981201     1.087950946215     1.007825032230
         H            3.111634329432     1.864291018799    -1.138506053785     1.007825032230
         H            3.355314329432    -1.789326981201     1.121743946215     1.007825032230
         H            4.477580329432     0.144001018799     0.028526946215     1.007825032230

  Basis Set: AUG-CC-PVTZ
    Blend: AUG-CC-PVTZ
  Basis Set: (AUG-CC-PVTZ AUX)
    Blend: AUG-CC-PVTZ-JKFIT
	 Reference Energy          =    -477.5409518423344934 [Eh]
	 Singles Energy            =      -0.0000000000000000 [Eh]
	 Same-Spin Energy          =      -0.5398573463297587 [Eh]
	 Opposite-Spin Energy      =      -1.6846673908294949 [Eh]
	 Correlation Energy        =      -2.2245247371592534 [Eh]
	 Total Energy              =    -479.7654765794937362 [Eh]

	 ================> DF-SCS-MP2 Energies <==================
	-----------------------------------------------------------
	 SCS Same-Spin Scale       =       0.3333333333333333 [-]
	 SCS Opposite-Spin Scale   =       1.2000000000000000 [-]
	 SCS Same-Spin Energy      =      -0.1799524487765862 [Eh]
	 SCS Opposite-Spin Energy  =      -2.0216008689953937 [Eh]
	 SCS Correlation Energy    =      -2.2015533177719799 [Eh]
	 SCS Total Energy          =    -479.7425051601064752 [Eh]
	-----------------------------------------------------------

  Dipole Moment: [D]
     X:     0.4860      Y:     1.7986      Z:     0.6504     Total:     1.9734

*** Psi4 exiting successfully. Buy a developer a beer!
