                               Psi4 1.3.2 release

  ==> Input File <==

--------------------------------------------------------------------------
#psi4
#
memory 32 gb

molecule  {
0 1
  N       -1.7531090     0.6487580     0.1985890
  C       -0.8584400    -0.3593730    -0.1157050
  C        0.5958890    -0.1944310    -0.0686340
  C       -1.6095070    -1.4830350    -0.4543950
  C       -2.8495575     0.2481144     0.0794032
  C       -2.9750140    -1.1422740    -0.3482900
  C       -1.4212420     1.9838780     0.6691930
  C        1.2419450     0.8845030    -0.6969540
  C        1.3787110    -1.1624060     0.5835710
  C        2.6315710     1.0013490    -0.6546280
  C        2.7689430    -1.0546610     0.6054980
  C        3.3999180     0.0321080    -0.0053240
  H       -1.1930810    -2.4304870    -0.7739750
  H       -3.8823240     0.8199580     0.2740310
  H       -3.8253090    -1.7817070    -0.5476340
  H       -2.2212640     2.3282100     1.3272780
  H       -0.4870200     1.9493020     1.2305480
  H       -1.3139190     2.6883760    -0.1607770
  H        0.6536140     1.6152250    -1.2478990
  H        0.8812590    -1.9928010     1.0799670
  H        3.1173860     1.8412050    -1.1464900
  H        3.3610660    -1.8124130     1.1137600
  H        4.4833320     0.1209150     0.0205430
units angstrom
no_reorient  #important for SAPT in psi4, default
symmetry c1  #important for SAPT in psi4, default
}

set PROPERTIES_ORIGIN ["COM"]
properties('MP2/aug-cc-pvtz', properties = ['dipole'])
--------------------------------------------------------------------------

    Molecular point group: c1
  Charge       = 0
  Multiplicity = 1
  Basis Set: AUG-CC-PVTZ
    Blend: AUG-CC-PVTZ
  Basis Set: (AUG-CC-PVTZ AUX)
    Blend: AUG-CC-PVTZ-JKFIT

    Orbital Energies [Eh]
    ---------------------

    Doubly Occupied:

       1A    -15.621014     2A    -11.283296     3A    -11.256742
       4A    -11.246679     5A    -11.238768     6A    -11.237502
       7A    -11.236040     8A    -11.234472     9A    -11.233186
      10A    -11.231591    11A    -11.213594    12A    -11.200796
      13A     -1.374037    14A     -1.152469    15A     -1.081895
      16A     -1.044322    17A     -1.012457    18A     -0.971044
      19A     -0.940900    20A     -0.829122    21A     -0.823228
      22A     -0.786601    23A     -0.738982    24A     -0.720671
      25A     -0.676529    26A     -0.665041    27A     -0.634054
      28A     -0.621530    29A     -0.600325    30A     -0.594666
      31A     -0.584160    32A     -0.560711    33A     -0.548275
      34A     -0.540747    35A     -0.504207    36A     -0.492758
      37A     -0.490252    38A     -0.478067    39A     -0.364361
      40A     -0.337115    41A     -0.335522    42A     -0.259134

  @DF-RHF Final Energy:  -477.48717827335383

   => Energetics <=

    Nuclear Repulsion Energy =            643.3272811140436716
    One-Electron Energy =               -1921.6351989272841365
    Two-Electron Energy =                 800.8207395398866311
    Total Energy =                       -477.4871782733538339
  Basis Set: (AUG-CC-PVTZ AUX)
    Blend: AUG-CC-PVTZ-RI
    Molecular point group: c1

    Geometry (in Angstrom), charge = 0, multiplicity = 1:

       Center              X                  Y                   Z               Mass
    ------------   -----------------  -----------------  -----------------  -----------------
         N           -1.770042616662     0.664660823750     0.204418931114    14.003074004430
         C           -0.875373616662    -0.343470176250    -0.109875068886    12.000000000000
         C            0.578955383338    -0.178528176250    -0.062804068886    12.000000000000
         C           -1.626440616662    -1.467132176250    -0.448565068886    12.000000000000
         C           -2.866491116662     0.264017223750     0.085233131114    12.000000000000
         C           -2.991947616662    -1.126371176250    -0.342460068886    12.000000000000
         C           -1.438175616662     1.999780823750     0.675022931114    12.000000000000
         C            1.225011383338     0.900405823750    -0.691124068886    12.000000000000
         C            1.361777383338    -1.146503176250     0.589400931114    12.000000000000
         C            2.614637383338     1.017251823750    -0.648798068886    12.000000000000
         C            2.752009383338    -1.038758176250     0.611327931114    12.000000000000
         C            3.382984383338     0.048010823750     0.000505931114    12.000000000000
         H           -1.210014616662    -2.414584176250    -0.768145068886     1.007825032230
         H           -3.899257616662     0.835860823750     0.279860931114     1.007825032230
         H           -3.842242616662    -1.765804176250    -0.541804068886     1.007825032230
         H           -2.238197616662     2.344112823750     1.333107931114     1.007825032230
         H           -0.503953616662     1.965204823750     1.236377931114     1.007825032230
         H           -1.330852616662     2.704278823750    -0.154947068886     1.007825032230
         H            0.636680383338     1.631127823750    -1.242069068886     1.007825032230
         H            0.864325383338    -1.976898176250     1.085796931114     1.007825032230
         H            3.100452383338     1.857107823750    -1.140660068886     1.007825032230
         H            3.344132383338    -1.796510176250     1.119589931114     1.007825032230
         H            4.466398383338     0.136817823750     0.026372931114     1.007825032230

  Basis Set: AUG-CC-PVTZ
    Blend: AUG-CC-PVTZ
  Basis Set: (AUG-CC-PVTZ AUX)
    Blend: AUG-CC-PVTZ-JKFIT
	 Reference Energy          =    -477.4871782733538339 [Eh]
	 Singles Energy            =      -0.0000000000000000 [Eh]
	 Same-Spin Energy          =      -0.5400769402199370 [Eh]
	 Opposite-Spin Energy      =      -1.6825766299215670 [Eh]
	 Correlation Energy        =      -2.2226535701415040 [Eh]
	 Total Energy              =    -479.7098318434953512 [Eh]

	 ================> DF-SCS-MP2 Energies <==================
	-----------------------------------------------------------
	 SCS Same-Spin Scale       =       0.3333333333333333 [-]
	 SCS Opposite-Spin Scale   =       1.2000000000000000 [-]
	 SCS Same-Spin Energy      =      -0.1800256467399790 [Eh]
	 SCS Opposite-Spin Energy  =      -2.0190919559058802 [Eh]
	 SCS Correlation Energy    =      -2.1991176026458592 [Eh]
	 SCS Total Energy          =    -479.6862958759996900 [Eh]
	-----------------------------------------------------------

  Dipole Moment: [D]
     X:     0.3823      Y:     2.1854      Z:     0.7836     Total:     2.3529

*** Psi4 exiting successfully. Buy a developer a beer!
