                               Psi4 1.4a3.dev225

  ==> Input File <==

--------------------------------------------------------------------------
#psi4
#
memory 32 gb

molecule  {
0 1
  N       -1.7531090     0.6487580     0.1985890
  C       -0.8584400    -0.3593730    -0.1157050
  C        0.5958890    -0.1944310    -0.0686340
  C       -1.6095070    -1.4830350    -0.4543950
  C       -3.0364380     0.1798280     0.0590890
  C       -2.9750140    -1.1422740    -0.3482900
  C       -1.4098299     2.0297896     0.6853760
  C        1.2419450     0.8845030    -0.6969540
  C        1.3787110    -1.1624060     0.5835710
  C        2.6315710     1.0013490    -0.6546280
  C        2.7689430    -1.0546610     0.6054980
  C        3.3999180     0.0321080    -0.0053240
  H       -1.1930810    -2.4304870    -0.7739750
  H       -3.8823240     0.8199580     0.2740310
  H       -3.8253090    -1.7817070    -0.5476340
  H       -2.2212640     2.3282100     1.3272780
  H       -0.4870200     1.9493020     1.2305480
  H       -1.3139190     2.6883760    -0.1607770
  H        0.6536140     1.6152250    -1.2478990
  H        0.8812590    -1.9928010     1.0799670
  H        3.1173860     1.8412050    -1.1464900
  H        3.3610660    -1.8124130     1.1137600
  H        4.4833320     0.1209150     0.0205430
units angstrom
no_reorient  #important for SAPT in psi4, default
symmetry c1  #important for SAPT in psi4, default
}

set PROPERTIES_ORIGIN ["COM"]
properties('MP2/aug-cc-pvtz', properties = ['dipole'])
--------------------------------------------------------------------------

    Molecular point group: c1
  Charge       = 0
  Multiplicity = 1
  Basis Set: AUG-CC-PVTZ
    Blend: AUG-CC-PVTZ
  Basis Set: (AUG-CC-PVTZ AUX)
    Blend: AUG-CC-PVTZ-JKFIT

    Orbital Energies [Eh]
    ---------------------

    Doubly Occupied:

       1A    -15.606649     2A    -11.272113     3A    -11.254825
       4A    -11.249752     5A    -11.247112     6A    -11.240579
       7A    -11.239334     8A    -11.239059     9A    -11.237669
      10A    -11.236629    11A    -11.206738    12A    -11.205400
      13A     -1.291274    14A     -1.154619    15A     -1.067119
      16A     -1.043030    17A     -1.015913    18A     -0.954423
      19A     -0.937485    20A     -0.832692    21A     -0.830166
      22A     -0.767979    23A     -0.740906    24A     -0.707561
      25A     -0.676766    26A     -0.640256    27A     -0.631916
      28A     -0.623317    29A     -0.600691    30A     -0.587064
      31A     -0.570286    32A     -0.558707    33A     -0.539313
      34A     -0.529805    35A     -0.527237    36A     -0.501850
      37A     -0.494546    38A     -0.492047    39A     -0.353330
      40A     -0.340092    41A     -0.334586    42A     -0.273858

  @DF-RHF Final Energy:  -477.54374320490751

   => Energetics <=

    Nuclear Repulsion Energy =            638.0869124345854289
    One-Electron Energy =               -1911.5519251815851476
    Two-Electron Energy =                 795.9212695420922046
    Total Energy =                       -477.5437432049075142
  Basis Set: (AUG-CC-PVTZ AUX)
    Blend: AUG-CC-PVTZ-RI
    Molecular point group: c1

    Geometry (in Angstrom), charge = 0, multiplicity = 1:

       Center              X                  Y                   Z               Mass
    ------------   -----------------  -----------------  -----------------  -----------------
         N           -1.756638630399     0.666370029007     0.204734512426    14.003074004430
         C           -0.861969630399    -0.341760970993    -0.109559487574    12.000000000000
         C            0.592359369601    -0.176818970993    -0.062488487574    12.000000000000
         C           -1.613036630399    -1.465422970993    -0.448249487574    12.000000000000
         C           -3.039967630399     0.197440029007     0.065234512426    12.000000000000
         C           -2.978543630399    -1.124661970993    -0.342144487574    12.000000000000
         C           -1.413359530399     2.047401629007     0.691521512426    12.000000000000
         C            1.238415369601     0.902115029007    -0.690808487574    12.000000000000
         C            1.375181369601    -1.144793970993     0.589716512426    12.000000000000
         C            2.628041369601     1.018961029007    -0.648482487574    12.000000000000
         C            2.765413369601    -1.037048970993     0.611643512426    12.000000000000
         C            3.396388369601     0.049720029007     0.000821512426    12.000000000000
         H           -1.196610630399    -2.412874970993    -0.767829487574     1.007825032230
         H           -3.885853630399     0.837570029007     0.280176512426     1.007825032230
         H           -3.828838630399    -1.764094970993    -0.541488487574     1.007825032230
         H           -2.224793630399     2.345822029007     1.333423512426     1.007825032230
         H           -0.490549630399     1.966914029007     1.236693512426     1.007825032230
         H           -1.317448630399     2.705988029007    -0.154631487574     1.007825032230
         H            0.650084369601     1.632837029007    -1.241753487574     1.007825032230
         H            0.877729369601    -1.975188970993     1.086112512426     1.007825032230
         H            3.113856369601     1.858817029007    -1.140344487574     1.007825032230
         H            3.357536369601    -1.794800970993     1.119905512426     1.007825032230
         H            4.479802369601     0.138527029007     0.026688512426     1.007825032230

  Basis Set: AUG-CC-PVTZ
    Blend: AUG-CC-PVTZ
  Basis Set: (AUG-CC-PVTZ AUX)
    Blend: AUG-CC-PVTZ-JKFIT
	 Reference Energy          =    -477.5437432049075142 [Eh]
	 Singles Energy            =      -0.0000000000000000 [Eh]
	 Same-Spin Energy          =      -0.5390372099801526 [Eh]
	 Opposite-Spin Energy      =      -1.6833915619647364 [Eh]
	 Correlation Energy        =      -2.2224287719448892 [Eh]
	 Total Energy              =    -479.7661719768523767 [Eh]

	 ================> DF-SCS-MP2 Energies <==================
	-----------------------------------------------------------
	 SCS Same-Spin Scale       =       0.3333333333333333 [-]
	 SCS Opposite-Spin Scale   =       1.2000000000000000 [-]
	 SCS Same-Spin Energy      =      -0.1796790699933842 [Eh]
	 SCS Opposite-Spin Energy  =      -2.0200698743576835 [Eh]
	 SCS Correlation Energy    =      -2.1997489443510676 [Eh]
	 SCS Total Energy          =    -479.7434921492586000 [Eh]
	-----------------------------------------------------------

  Dipole Moment: [D]
     X:     0.4818      Y:     1.9929      Z:     0.7157     Total:     2.1717

*** Psi4 exiting successfully. Buy a developer a beer!
