                               Psi4 1.3.2 release

  ==> Input File <==

--------------------------------------------------------------------------
#psi4
#
memory 32 gb

molecule  {
0 1
  N       -1.7531090     0.6487580     0.1985890
  C       -0.8790228    -0.3472590    -0.1111246
  C        0.5958890    -0.1944310    -0.0686340
  C       -1.6095070    -1.4830350    -0.4543950
  C       -3.0364380     0.1798280     0.0590890
  C       -2.9750140    -1.1422740    -0.3482900
  C       -1.4212420     1.9838780     0.6691930
  C        1.2419450     0.8845030    -0.6969540
  C        1.3787110    -1.1624060     0.5835710
  C        2.6315710     1.0013490    -0.6546280
  C        2.7689430    -1.0546610     0.6054980
  C        3.3999180     0.0321080    -0.0053240
  H       -1.1930810    -2.4304870    -0.7739750
  H       -3.8823240     0.8199580     0.2740310
  H       -3.8253090    -1.7817070    -0.5476340
  H       -2.2212640     2.3282100     1.3272780
  H       -0.4870200     1.9493020     1.2305480
  H       -1.3139190     2.6883760    -0.1607770
  H        0.6536140     1.6152250    -1.2478990
  H        0.8812590    -1.9928010     1.0799670
  H        3.1173860     1.8412050    -1.1464900
  H        3.3610660    -1.8124130     1.1137600
  H        4.4833320     0.1209150     0.0205430
units angstrom
no_reorient  #important for SAPT in psi4, default
symmetry c1  #important for SAPT in psi4, default
}

set PROPERTIES_ORIGIN ["COM"]
properties('MP2/aug-cc-pvtz', properties = ['dipole'])
--------------------------------------------------------------------------

    Molecular point group: c1
  Charge       = 0
  Multiplicity = 1
  Basis Set: AUG-CC-PVTZ
    Blend: AUG-CC-PVTZ
  Basis Set: (AUG-CC-PVTZ AUX)
    Blend: AUG-CC-PVTZ-JKFIT

    Orbital Energies [Eh]
    ---------------------

    Doubly Occupied:

       1A    -15.608747     2A    -11.272034     3A    -11.256426
       4A    -11.251259     5A    -11.246548     6A    -11.240576
       7A    -11.239478     8A    -11.239117     9A    -11.237839
      10A    -11.237042    11A    -11.208418    12A    -11.205298
      13A     -1.305431    14A     -1.154355    15A     -1.074203
      16A     -1.041899    17A     -1.016038    18A     -0.956961
      19A     -0.935635    20A     -0.831446    21A     -0.830259
      22A     -0.772953    23A     -0.741942    24A     -0.713417
      25A     -0.677713    26A     -0.641459    27A     -0.631778
      28A     -0.622601    29A     -0.596887    30A     -0.587156
      31A     -0.573371    32A     -0.566583    33A     -0.536966
      34A     -0.528794    35A     -0.525366    36A     -0.502393
      37A     -0.492518    38A     -0.491898    39A     -0.352481
      40A     -0.340314    41A     -0.336204    42A     -0.275572

  @DF-RHF Final Energy:  -477.54635246957434

   => Energetics <=

    Nuclear Repulsion Energy =            639.1746820413933392
    One-Electron Energy =               -1913.6473123207831577
    Two-Electron Energy =                 796.9262778098153603
    Total Energy =                       -477.5463524695743445
  Basis Set: (AUG-CC-PVTZ AUX)
    Blend: AUG-CC-PVTZ-RI
    Molecular point group: c1

    Geometry (in Angstrom), charge = 0, multiplicity = 1:

       Center              X                  Y                   Z               Mass
    ------------   -----------------  -----------------  -----------------  -----------------
         N           -1.754194548159     0.668951819040     0.205620832077    14.003074004430
         C           -0.880108348159    -0.327065180960    -0.104092767923    12.000000000000
         C            0.594803451841    -0.174237180960    -0.061602167923    12.000000000000
         C           -1.610592548159    -1.462841180960    -0.447363167923    12.000000000000
         C           -3.037523548159     0.200021819040     0.066120832077    12.000000000000
         C           -2.976099548159    -1.122080180960    -0.341258167923    12.000000000000
         C           -1.422327548159     2.004071819040     0.676224832077    12.000000000000
         C            1.240859451841     0.904696819040    -0.689922167923    12.000000000000
         C            1.377625451841    -1.142212180960     0.590602832077    12.000000000000
         C            2.630485451841     1.021542819040    -0.647596167923    12.000000000000
         C            2.767857451841    -1.034467180960     0.612529832077    12.000000000000
         C            3.398832451841     0.052301819040     0.001707832077    12.000000000000
         H           -1.194166548159    -2.410293180960    -0.766943167923     1.007825032230
         H           -3.883409548159     0.840151819040     0.281062832077     1.007825032230
         H           -3.826394548159    -1.761513180960    -0.540602167923     1.007825032230
         H           -2.222349548159     2.348403819040     1.334309832077     1.007825032230
         H           -0.488105548159     1.969495819040     1.237579832077     1.007825032230
         H           -1.315004548159     2.708569819040    -0.153745167923     1.007825032230
         H            0.652528451841     1.635418819040    -1.240867167923     1.007825032230
         H            0.880173451841    -1.972607180960     1.086998832077     1.007825032230
         H            3.116300451841     1.861398819040    -1.139458167923     1.007825032230
         H            3.359980451841    -1.792219180960     1.120791832077     1.007825032230
         H            4.482246451841     0.141108819040     0.027574832077     1.007825032230

  Basis Set: AUG-CC-PVTZ
    Blend: AUG-CC-PVTZ
  Basis Set: (AUG-CC-PVTZ AUX)
    Blend: AUG-CC-PVTZ-JKFIT
	 Reference Energy          =    -477.5463524695743445 [Eh]
	 Singles Energy            =      -0.0000000000000000 [Eh]
	 Same-Spin Energy          =      -0.5388812857668320 [Eh]
	 Opposite-Spin Energy      =      -1.6825900395511417 [Eh]
	 Correlation Energy        =      -2.2214713253179736 [Eh]
	 Total Energy              =    -479.7678237948923083 [Eh]

	 ================> DF-SCS-MP2 Energies <==================
	-----------------------------------------------------------
	 SCS Same-Spin Scale       =       0.3333333333333333 [-]
	 SCS Opposite-Spin Scale   =       1.2000000000000000 [-]
	 SCS Same-Spin Energy      =      -0.1796270952556107 [Eh]
	 SCS Opposite-Spin Energy  =      -2.0191080474613701 [Eh]
	 SCS Correlation Energy    =      -2.1987351427169806 [Eh]
	 SCS Total Energy          =    -479.7450876122913428 [Eh]
	-----------------------------------------------------------

  Dipole Moment: [D]
     X:     0.4666      Y:     1.8904      Z:     0.6901     Total:     2.0658

*** Psi4 exiting successfully. Buy a developer a beer!
