                               Psi4 1.3.2 release

  ==> Input File <==

--------------------------------------------------------------------------
#psi4
#
memory 32 gb

molecule  {
0 1
  N       -1.7531090     0.6487580     0.1985890
  C       -0.8584400    -0.3593730    -0.1157050
  C        0.5958890    -0.1944310    -0.0686340
  C       -1.5796814    -1.3448993    -0.4113418
  C       -3.0364380     0.1798280     0.0590890
  C       -2.9750140    -1.1422740    -0.3482900
  C       -1.4212420     1.9838780     0.6691930
  C        1.2419450     0.8845030    -0.6969540
  C        1.3787110    -1.1624060     0.5835710
  C        2.6315710     1.0013490    -0.6546280
  C        2.7689430    -1.0546610     0.6054980
  C        3.3999180     0.0321080    -0.0053240
  H       -1.1930810    -2.4304870    -0.7739750
  H       -3.8823240     0.8199580     0.2740310
  H       -3.8253090    -1.7817070    -0.5476340
  H       -2.2212640     2.3282100     1.3272780
  H       -0.4870200     1.9493020     1.2305480
  H       -1.3139190     2.6883760    -0.1607770
  H        0.6536140     1.6152250    -1.2478990
  H        0.8812590    -1.9928010     1.0799670
  H        3.1173860     1.8412050    -1.1464900
  H        3.3610660    -1.8124130     1.1137600
  H        4.4833320     0.1209150     0.0205430
units angstrom
no_reorient  #important for SAPT in psi4, default
symmetry c1  #important for SAPT in psi4, default
}

set PROPERTIES_ORIGIN ["COM"]
properties('MP2/aug-cc-pvtz', properties = ['dipole'])
--------------------------------------------------------------------------

    Molecular point group: c1
  Charge       = 0
  Multiplicity = 1
  Basis Set: AUG-CC-PVTZ
    Blend: AUG-CC-PVTZ
  Basis Set: (AUG-CC-PVTZ AUX)
    Blend: AUG-CC-PVTZ-JKFIT

    Orbital Energies [Eh]
    ---------------------

    Doubly Occupied:

       1A    -15.596937     2A    -11.266868     3A    -11.252342
       4A    -11.250698     5A    -11.240998     6A    -11.239934
       7A    -11.239504     8A    -11.238368     9A    -11.237593
      10A    -11.237494    11A    -11.205034    12A    -11.201297
      13A     -1.306226    14A     -1.155515    15A     -1.084332
      16A     -1.045911    17A     -1.016452    18A     -0.968501
      19A     -0.925544    20A     -0.834675    21A     -0.831284
      22A     -0.775909    23A     -0.739338    24A     -0.706892
      25A     -0.679710    26A     -0.640547    27A     -0.633033
      28A     -0.621503    29A     -0.594600    30A     -0.587155
      31A     -0.578644    32A     -0.560698    33A     -0.546466
      34A     -0.532596    35A     -0.505820    36A     -0.501595
      37A     -0.493692    38A     -0.479935    39A     -0.359422
      40A     -0.340068    41A     -0.333707    42A     -0.289352

  @DF-RHF Final Energy:  -477.51731016446610

   => Energetics <=

    Nuclear Repulsion Energy =            642.3144995299493303
    One-Electron Energy =               -1919.9112453717234530
    Two-Electron Energy =                 800.0794356773078562
    Total Energy =                       -477.5173101644661529
  Basis Set: (AUG-CC-PVTZ AUX)
    Blend: AUG-CC-PVTZ-RI
    Molecular point group: c1

    Geometry (in Angstrom), charge = 0, multiplicity = 1:

       Center              X                  Y                   Z               Mass
    ------------   -----------------  -----------------  -----------------  -----------------
         N           -1.758045232961     0.659325053562     0.202681904711    14.003074004430
         C           -0.863376232961    -0.348805946438    -0.111612095289    12.000000000000
         C            0.590952767039    -0.183863946438    -0.064541095289    12.000000000000
         C           -1.584617632961    -1.334332246438    -0.407248895289    12.000000000000
         C           -3.041374232961     0.190395053562     0.063181904711    12.000000000000
         C           -2.979950232961    -1.131706946438    -0.344197095289    12.000000000000
         C           -1.426178232961     1.994445053562     0.673285904711    12.000000000000
         C            1.237008767039     0.895070053562    -0.692861095289    12.000000000000
         C            1.373774767039    -1.151838946438     0.587663904711    12.000000000000
         C            2.626634767039     1.011916053562    -0.650535095289    12.000000000000
         C            2.764006767039    -1.044093946438     0.609590904711    12.000000000000
         C            3.394981767039     0.042675053562    -0.001231095289    12.000000000000
         H           -1.198017232961    -2.419919946438    -0.769882095289     1.007825032230
         H           -3.887260232961     0.830525053562     0.278123904711     1.007825032230
         H           -3.830245232961    -1.771139946438    -0.543541095289     1.007825032230
         H           -2.226200232961     2.338777053562     1.331370904711     1.007825032230
         H           -0.491956232961     1.959869053562     1.234640904711     1.007825032230
         H           -1.318855232961     2.698943053562    -0.156684095289     1.007825032230
         H            0.648677767039     1.625792053562    -1.243806095289     1.007825032230
         H            0.876322767039    -1.982233946438     1.084059904711     1.007825032230
         H            3.112449767039     1.851772053562    -1.142397095289     1.007825032230
         H            3.356129767039    -1.801845946438     1.117852904711     1.007825032230
         H            4.478395767039     0.131482053562     0.024635904711     1.007825032230

  Basis Set: AUG-CC-PVTZ
    Blend: AUG-CC-PVTZ
  Basis Set: (AUG-CC-PVTZ AUX)
    Blend: AUG-CC-PVTZ-JKFIT
	 Reference Energy          =    -477.5173101644660960 [Eh]
	 Singles Energy            =      -0.0000000000000000 [Eh]
	 Same-Spin Energy          =      -0.5379404145026059 [Eh]
	 Opposite-Spin Energy      =      -1.6816664051026731 [Eh]
	 Correlation Energy        =      -2.2196068196052789 [Eh]
	 Total Energy              =    -479.7369169840713994 [Eh]

	 ================> DF-SCS-MP2 Energies <==================
	-----------------------------------------------------------
	 SCS Same-Spin Scale       =       0.3333333333333333 [-]
	 SCS Opposite-Spin Scale   =       1.2000000000000000 [-]
	 SCS Same-Spin Energy      =      -0.1793134715008686 [Eh]
	 SCS Opposite-Spin Energy  =      -2.0179996861232077 [Eh]
	 SCS Correlation Energy    =      -2.1973131576240763 [Eh]
	 SCS Total Energy          =    -479.7146233220901763 [Eh]
	-----------------------------------------------------------

  Dipole Moment: [D]
     X:     0.5347      Y:     1.7872      Z:     0.6641     Total:     1.9802

*** Psi4 exiting successfully. Buy a developer a beer!
