                               Psi4 1.3.2 release

  ==> Input File <==

--------------------------------------------------------------------------
#psi4
#
memory 32 gb

molecule  {
0 1
  N       -1.7531090     0.6487580     0.1985890
  C       -0.8584400    -0.3593730    -0.1157050
  C        0.5958890    -0.1944310    -0.0686340
  C       -1.6095070    -1.4830350    -0.4543950
  C       -3.0364380     0.1798280     0.0590890
  C       -2.9750140    -1.1422740    -0.3482900
  C       -1.4212420     1.9838780     0.6691930
  C        1.1081479     0.9322498    -0.7353080
  C        1.3787110    -1.1624060     0.5835710
  C        2.6315710     1.0013490    -0.6546280
  C        2.7689430    -1.0546610     0.6054980
  C        3.3999180     0.0321080    -0.0053240
  H       -1.1930810    -2.4304870    -0.7739750
  H       -3.8823240     0.8199580     0.2740310
  H       -3.8253090    -1.7817070    -0.5476340
  H       -2.2212640     2.3282100     1.3272780
  H       -0.4870200     1.9493020     1.2305480
  H       -1.3139190     2.6883760    -0.1607770
  H        0.6536140     1.6152250    -1.2478990
  H        0.8812590    -1.9928010     1.0799670
  H        3.1173860     1.8412050    -1.1464900
  H        3.3610660    -1.8124130     1.1137600
  H        4.4833320     0.1209150     0.0205430
units angstrom
no_reorient  #important for SAPT in psi4, default
symmetry c1  #important for SAPT in psi4, default
}

set PROPERTIES_ORIGIN ["COM"]
properties('MP2/aug-cc-pvtz', properties = ['dipole'])
--------------------------------------------------------------------------

    Molecular point group: c1
  Charge       = 0
  Multiplicity = 1
  Basis Set: AUG-CC-PVTZ
    Blend: AUG-CC-PVTZ
  Basis Set: (AUG-CC-PVTZ AUX)
    Blend: AUG-CC-PVTZ-JKFIT

    Orbital Energies [Eh]
    ---------------------

    Doubly Occupied:

       1A    -15.606592     2A    -11.270196     3A    -11.254230
       4A    -11.254187     5A    -11.253285     6A    -11.247037
       7A    -11.243727     8A    -11.243250     9A    -11.238953
      10A    -11.238502    11A    -11.207145    12A    -11.204742
      13A     -1.298094    14A     -1.146940    15A     -1.072104
      16A     -1.047257    17A     -1.006648    18A     -0.954703
      19A     -0.932633    20A     -0.845587    21A     -0.826320
      22A     -0.770132    23A     -0.741061    24A     -0.712426
      25A     -0.687899    26A     -0.645536    27A     -0.636928
      28A     -0.620419    29A     -0.600031    30A     -0.582186
      31A     -0.569403    32A     -0.567923    33A     -0.536700
      34A     -0.527614    35A     -0.523521    36A     -0.509502
      37A     -0.492770    38A     -0.476207    39A     -0.358076
      40A     -0.335214    41A     -0.327638    42A     -0.274861

  @DF-RHF Final Energy:  -477.51568736934871

   => Energetics <=

    Nuclear Repulsion Energy =            638.2523395342799404
    One-Electron Energy =               -1911.7596972825228931
    Two-Electron Energy =                 795.9916703788943551
    Total Energy =                       -477.5156873693487114
  Basis Set: (AUG-CC-PVTZ AUX)
    Blend: AUG-CC-PVTZ-RI
    Molecular point group: c1

    Geometry (in Angstrom), charge = 0, multiplicity = 1:

       Center              X                  Y                   Z               Mass
    ------------   -----------------  -----------------  -----------------  -----------------
         N           -1.745546136696     0.666229838548     0.208900579928    14.003074004430
         C           -0.850877136696    -0.341901161452    -0.105393420072    12.000000000000
         C            0.603451863304    -0.176959161452    -0.058322420072    12.000000000000
         C           -1.601944136696    -1.465563161452    -0.444083420072    12.000000000000
         C           -3.028875136696     0.197299838548     0.069400579928    12.000000000000
         C           -2.967451136696    -1.124802161452    -0.337978420072    12.000000000000
         C           -1.413679136696     2.001349838548     0.679504579928    12.000000000000
         C            1.115710763304     0.949721638548    -0.724996420072    12.000000000000
         C            1.386273863304    -1.144934161452     0.593882579928    12.000000000000
         C            2.639133863304     1.018820838548    -0.644316420072    12.000000000000
         C            2.776505863304    -1.037189161452     0.615809579928    12.000000000000
         C            3.407480863304     0.049579838548     0.004987579928    12.000000000000
         H           -1.185518136696    -2.413015161452    -0.763663420072     1.007825032230
         H           -3.874761136696     0.837429838548     0.284342579928     1.007825032230
         H           -3.817746136696    -1.764235161452    -0.537322420072     1.007825032230
         H           -2.213701136696     2.345681838548     1.337589579928     1.007825032230
         H           -0.479457136696     1.966773838548     1.240859579928     1.007825032230
         H           -1.306356136696     2.705847838548    -0.150465420072     1.007825032230
         H            0.661176863304     1.632696838548    -1.237587420072     1.007825032230
         H            0.888821863304    -1.975329161452     1.090278579928     1.007825032230
         H            3.124948863304     1.858676838548    -1.136178420072     1.007825032230
         H            3.368628863304    -1.794941161452     1.124071579928     1.007825032230
         H            4.490894863304     0.138386838548     0.030854579928     1.007825032230

  Basis Set: AUG-CC-PVTZ
    Blend: AUG-CC-PVTZ
  Basis Set: (AUG-CC-PVTZ AUX)
    Blend: AUG-CC-PVTZ-JKFIT
	 Reference Energy          =    -477.5156873693487114 [Eh]
	 Singles Energy            =      -0.0000000000000000 [Eh]
	 Same-Spin Energy          =      -0.5395231891092831 [Eh]
	 Opposite-Spin Energy      =      -1.6855512876369030 [Eh]
	 Correlation Energy        =      -2.2250744767461859 [Eh]
	 Total Energy              =    -479.7407618460948697 [Eh]

	 ================> DF-SCS-MP2 Energies <==================
	-----------------------------------------------------------
	 SCS Same-Spin Scale       =       0.3333333333333333 [-]
	 SCS Opposite-Spin Scale   =       1.2000000000000000 [-]
	 SCS Same-Spin Energy      =      -0.1798410630364277 [Eh]
	 SCS Opposite-Spin Energy  =      -2.0226615451642833 [Eh]
	 SCS Correlation Energy    =      -2.2025026082007111 [Eh]
	 SCS Total Energy          =    -479.7181899775494003 [Eh]
	-----------------------------------------------------------

  Dipole Moment: [D]
     X:     0.5719      Y:     1.8398      Z:     0.6843     Total:     2.0445

*** Psi4 exiting successfully. Buy a developer a beer!
