                               Psi4 1.3.2 release

  ==> Input File <==

--------------------------------------------------------------------------
#psi4
#
memory 32 gb

molecule  {
0 1
  N       -1.7531090     0.6487580     0.1985890
  C       -0.8958021    -0.3878996    -0.1268452
  C        0.5958890    -0.1944310    -0.0686340
  C       -1.6095070    -1.4830350    -0.4543950
  C       -3.0364380     0.1798280     0.0590890
  C       -2.9750140    -1.1422740    -0.3482900
  C       -1.4212420     1.9838780     0.6691930
  C        1.2419450     0.8845030    -0.6969540
  C        1.3787110    -1.1624060     0.5835710
  C        2.6315710     1.0013490    -0.6546280
  C        2.7689430    -1.0546610     0.6054980
  C        3.3999180     0.0321080    -0.0053240
  H       -1.1930810    -2.4304870    -0.7739750
  H       -3.8823240     0.8199580     0.2740310
  H       -3.8253090    -1.7817070    -0.5476340
  H       -2.2212640     2.3282100     1.3272780
  H       -0.4870200     1.9493020     1.2305480
  H       -1.3139190     2.6883760    -0.1607770
  H        0.6536140     1.6152250    -1.2478990
  H        0.8812590    -1.9928010     1.0799670
  H        3.1173860     1.8412050    -1.1464900
  H        3.3610660    -1.8124130     1.1137600
  H        4.4833320     0.1209150     0.0205430
units angstrom
no_reorient  #important for SAPT in psi4, default
symmetry c1  #important for SAPT in psi4, default
}

set PROPERTIES_ORIGIN ["COM"]
properties('MP2/aug-cc-pvtz', properties = ['dipole'])
--------------------------------------------------------------------------

    Molecular point group: c1
  Charge       = 0
  Multiplicity = 1
  Basis Set: AUG-CC-PVTZ
    Blend: AUG-CC-PVTZ
  Basis Set: (AUG-CC-PVTZ AUX)
    Blend: AUG-CC-PVTZ-JKFIT

    Orbital Energies [Eh]
    ---------------------

    Doubly Occupied:

       1A    -15.604264     2A    -11.271271     3A    -11.254517
       4A    -11.251852     5A    -11.248224     6A    -11.240552
       7A    -11.239337     8A    -11.238974     9A    -11.237611
      10A    -11.236483    11A    -11.206955    12A    -11.202345
      13A     -1.299833    14A     -1.153441    15A     -1.078700
      16A     -1.038831    17A     -1.015741    18A     -0.957650
      19A     -0.934781    20A     -0.829633    21A     -0.829192
      22A     -0.773266    23A     -0.741062    24A     -0.712994
      25A     -0.677186    26A     -0.639280    27A     -0.629879
      28A     -0.621815    29A     -0.595595    30A     -0.586747
      31A     -0.574884    32A     -0.564663    33A     -0.538486
      34A     -0.529393    35A     -0.525349    36A     -0.500523
      37A     -0.493004    38A     -0.490603    39A     -0.353175
      40A     -0.339927    41A     -0.336007    42A     -0.280594

  @DF-RHF Final Energy:  -477.54548323099459

   => Energetics <=

    Nuclear Repulsion Energy =            638.9975005459054955
    One-Electron Energy =               -1913.3367296921533125
    Two-Electron Energy =                 796.7937459152532256
    Total Energy =                       -477.5454832309945914
  Basis Set: (AUG-CC-PVTZ AUX)
    Blend: AUG-CC-PVTZ-RI
    Molecular point group: c1

    Geometry (in Angstrom), charge = 0, multiplicity = 1:

       Center              X                  Y                   Z               Mass
    ------------   -----------------  -----------------  -----------------  -----------------
         N           -1.752912781718     0.672056344094     0.206821724696    14.003074004430
         C           -0.895605881718    -0.364601255906    -0.118612475304    12.000000000000
         C            0.596085218282    -0.171132655906    -0.060401275304    12.000000000000
         C           -1.609310781718    -1.459736655906    -0.446162275304    12.000000000000
         C           -3.036241781718     0.203126344094     0.067321724696    12.000000000000
         C           -2.974817781718    -1.118975655906    -0.340057275304    12.000000000000
         C           -1.421045781718     2.007176344094     0.677425724696    12.000000000000
         C            1.242141218282     0.907801344094    -0.688721275304    12.000000000000
         C            1.378907218282    -1.139107655906     0.591803724696    12.000000000000
         C            2.631767218282     1.024647344094    -0.646395275304    12.000000000000
         C            2.769139218282    -1.031362655906     0.613730724696    12.000000000000
         C            3.400114218282     0.055406344094     0.002908724696    12.000000000000
         H           -1.192884781718    -2.407188655906    -0.765742275304     1.007825032230
         H           -3.882127781718     0.843256344094     0.282263724696     1.007825032230
         H           -3.825112781718    -1.758408655906    -0.539401275304     1.007825032230
         H           -2.221067781718     2.351508344094     1.335510724696     1.007825032230
         H           -0.486823781718     1.972600344094     1.238780724696     1.007825032230
         H           -1.313722781718     2.711674344094    -0.152544275304     1.007825032230
         H            0.653810218282     1.638523344094    -1.239666275304     1.007825032230
         H            0.881455218282    -1.969502655906     1.088199724696     1.007825032230
         H            3.117582218282     1.864503344094    -1.138257275304     1.007825032230
         H            3.361262218282    -1.789114655906     1.121992724696     1.007825032230
         H            4.483528218282     0.144213344094     0.028775724696     1.007825032230

  Basis Set: AUG-CC-PVTZ
    Blend: AUG-CC-PVTZ
  Basis Set: (AUG-CC-PVTZ AUX)
    Blend: AUG-CC-PVTZ-JKFIT
	 Reference Energy          =    -477.5454832309945914 [Eh]
	 Singles Energy            =      -0.0000000000000000 [Eh]
	 Same-Spin Energy          =      -0.5379820862704143 [Eh]
	 Opposite-Spin Energy      =      -1.6816650870466616 [Eh]
	 Correlation Energy        =      -2.2196471733170759 [Eh]
	 Total Energy              =    -479.7651304043116625 [Eh]

	 ================> DF-SCS-MP2 Energies <==================
	-----------------------------------------------------------
	 SCS Same-Spin Scale       =       0.3333333333333333 [-]
	 SCS Opposite-Spin Scale   =       1.2000000000000000 [-]
	 SCS Same-Spin Energy      =      -0.1793273620901381 [Eh]
	 SCS Opposite-Spin Energy  =      -2.0179981044559940 [Eh]
	 SCS Correlation Energy    =      -2.1973254665461321 [Eh]
	 SCS Total Energy          =    -479.7428086975407382 [Eh]
	-----------------------------------------------------------

  Dipole Moment: [D]
     X:     0.5138      Y:     1.8293      Z:     0.6669     Total:     2.0138

*** Psi4 exiting successfully. Buy a developer a beer!
