                               Psi4 1.3.2 release

  ==> Input File <==

--------------------------------------------------------------------------
#psi4
#
memory 32 gb

molecule  {
0 1
  N       -1.7531090     0.6487580     0.1985890
  C       -0.8584400    -0.3593730    -0.1157050
  C        0.5958890    -0.1944310    -0.0686340
  C       -1.6095070    -1.4830350    -0.4543950
  C       -3.0122843     0.1806332     0.0594008
  C       -2.9750140    -1.1422740    -0.3482900
  C       -1.4212420     1.9838780     0.6691930
  C        1.2419450     0.8845030    -0.6969540
  C        1.3787110    -1.1624060     0.5835710
  C        2.6315710     1.0013490    -0.6546280
  C        2.7689430    -1.0546610     0.6054980
  C        3.3999180     0.0321080    -0.0053240
  H       -1.1930810    -2.4304870    -0.7739750
  H       -3.8823240     0.8199580     0.2740310
  H       -3.8253090    -1.7817070    -0.5476340
  H       -2.2212640     2.3282100     1.3272780
  H       -0.4870200     1.9493020     1.2305480
  H       -1.3139190     2.6883760    -0.1607770
  H        0.6536140     1.6152250    -1.2478990
  H        0.8812590    -1.9928010     1.0799670
  H        3.1173860     1.8412050    -1.1464900
  H        3.3610660    -1.8124130     1.1137600
  H        4.4833320     0.1209150     0.0205430
units angstrom
no_reorient  #important for SAPT in psi4, default
symmetry c1  #important for SAPT in psi4, default
}

set PROPERTIES_ORIGIN ["COM"]
properties('MP2/aug-cc-pvtz', properties = ['dipole'])
--------------------------------------------------------------------------

    Molecular point group: c1
  Charge       = 0
  Multiplicity = 1
  Basis Set: AUG-CC-PVTZ
    Blend: AUG-CC-PVTZ
  Basis Set: (AUG-CC-PVTZ AUX)
    Blend: AUG-CC-PVTZ-JKFIT

    Orbital Energies [Eh]
    ---------------------

    Doubly Occupied:

       1A    -15.608764     2A    -11.272038     3A    -11.254537
       4A    -11.249703     5A    -11.248947     6A    -11.240327
       7A    -11.239107     8A    -11.238807     9A    -11.237445
      10A    -11.236458    11A    -11.207869    12A    -11.206138
      13A     -1.305637    14A     -1.154773    15A     -1.074667
      16A     -1.043947    17A     -1.015768    18A     -0.955404
      19A     -0.936189    20A     -0.832152    21A     -0.830334
      22A     -0.772068    23A     -0.742003    24A     -0.713475
      25A     -0.677320    26A     -0.641382    27A     -0.631585
      28A     -0.622690    29A     -0.596862    30A     -0.586862
      31A     -0.572923    32A     -0.567374    33A     -0.536527
      34A     -0.528080    35A     -0.524180    36A     -0.501918
      37A     -0.494448    38A     -0.491765    39A     -0.354240
      40A     -0.339987    41A     -0.335772    42A     -0.274202

  @DF-RHF Final Energy:  -477.54571801000657

   => Energetics <=

    Nuclear Repulsion Energy =            639.6006504161684916
    One-Electron Energy =               -1914.5033858129315831
    Two-Electron Energy =                 797.3570173867565245
    Total Energy =                       -477.5457180100065671
  Basis Set: (AUG-CC-PVTZ AUX)
    Blend: AUG-CC-PVTZ-RI
    Molecular point group: c1

    Geometry (in Angstrom), charge = 0, multiplicity = 1:

       Center              X                  Y                   Z               Mass
    ------------   -----------------  -----------------  -----------------  -----------------
         N           -1.757611957969     0.669815695383     0.205946909341    14.003074004430
         C           -0.862942957969    -0.338315304617    -0.108347090659    12.000000000000
         C            0.591386042031    -0.173373304617    -0.061276090659    12.000000000000
         C           -1.614009957969    -1.461977304617    -0.447037090659    12.000000000000
         C           -3.016787257969     0.201690895383     0.066758709341    12.000000000000
         C           -2.979516957969    -1.121216304617    -0.340932090659    12.000000000000
         C           -1.425744957969     2.004935695383     0.676550909341    12.000000000000
         C            1.237442042031     0.905560695383    -0.689596090659    12.000000000000
         C            1.374208042031    -1.141348304617     0.590928909341    12.000000000000
         C            2.627068042031     1.022406695383    -0.647270090659    12.000000000000
         C            2.764440042031    -1.033603304617     0.612855909341    12.000000000000
         C            3.395415042031     0.053165695383     0.002033909341    12.000000000000
         H           -1.197583957969    -2.409429304617    -0.766617090659     1.007825032230
         H           -3.886826957969     0.841015695383     0.281388909341     1.007825032230
         H           -3.829811957969    -1.760649304617    -0.540276090659     1.007825032230
         H           -2.225766957969     2.349267695383     1.334635909341     1.007825032230
         H           -0.491522957969     1.970359695383     1.237905909341     1.007825032230
         H           -1.318421957969     2.709433695383    -0.153419090659     1.007825032230
         H            0.649111042031     1.636282695383    -1.240541090659     1.007825032230
         H            0.876756042031    -1.971743304617     1.087324909341     1.007825032230
         H            3.112883042031     1.862262695383    -1.139132090659     1.007825032230
         H            3.356563042031    -1.791355304617     1.121117909341     1.007825032230
         H            4.478829042031     0.141972695383     0.027900909341     1.007825032230

  Basis Set: AUG-CC-PVTZ
    Blend: AUG-CC-PVTZ
  Basis Set: (AUG-CC-PVTZ AUX)
    Blend: AUG-CC-PVTZ-JKFIT
	 Reference Energy          =    -477.5457180100065671 [Eh]
	 Singles Energy            =      -0.0000000000000000 [Eh]
	 Same-Spin Energy          =      -0.5392090549003914 [Eh]
	 Opposite-Spin Energy      =      -1.6829301160932633 [Eh]
	 Correlation Energy        =      -2.2221391709936547 [Eh]
	 Total Energy              =    -479.7678571810002381 [Eh]

	 ================> DF-SCS-MP2 Energies <==================
	-----------------------------------------------------------
	 SCS Same-Spin Scale       =       0.3333333333333333 [-]
	 SCS Opposite-Spin Scale   =       1.2000000000000000 [-]
	 SCS Same-Spin Energy      =      -0.1797363516334638 [Eh]
	 SCS Opposite-Spin Energy  =      -2.0195161393119156 [Eh]
	 SCS Correlation Energy    =      -2.1992524909453794 [Eh]
	 SCS Total Energy          =    -479.7449705009519221 [Eh]
	-----------------------------------------------------------

  Dipole Moment: [D]
     X:     0.4572      Y:     1.8865      Z:     0.6860     Total:     2.0587

*** Psi4 exiting successfully. Buy a developer a beer!
