                               Psi4 1.3.2 release

  ==> Input File <==

--------------------------------------------------------------------------
#psi4
#
memory 32 gb

molecule  {
0 1
  N       -1.7531090     0.6487580     0.1985890
  C       -0.8790364    -0.3470109    -0.1119174
  C        0.5958890    -0.1944310    -0.0686340
  C       -1.6095070    -1.4830350    -0.4543950
  C       -3.0364380     0.1798280     0.0590890
  C       -2.9750140    -1.1422740    -0.3482900
  C       -1.4212420     1.9838780     0.6691930
  C        1.2419450     0.8845030    -0.6969540
  C        1.3787110    -1.1624060     0.5835710
  C        2.6315710     1.0013490    -0.6546280
  C        2.7689430    -1.0546610     0.6054980
  C        3.3999180     0.0321080    -0.0053240
  H       -1.1930810    -2.4304870    -0.7739750
  H       -3.8823240     0.8199580     0.2740310
  H       -3.8253090    -1.7817070    -0.5476340
  H       -2.2212640     2.3282100     1.3272780
  H       -0.4870200     1.9493020     1.2305480
  H       -1.3139190     2.6883760    -0.1607770
  H        0.6536140     1.6152250    -1.2478990
  H        0.8812590    -1.9928010     1.0799670
  H        3.1173860     1.8412050    -1.1464900
  H        3.3610660    -1.8124130     1.1137600
  H        4.4833320     0.1209150     0.0205430
units angstrom
no_reorient  #important for SAPT in psi4, default
symmetry c1  #important for SAPT in psi4, default
}

set PROPERTIES_ORIGIN ["COM"]
properties('MP2/aug-cc-pvtz', properties = ['dipole'])
--------------------------------------------------------------------------

    Molecular point group: c1
  Charge       = 0
  Multiplicity = 1
  Basis Set: AUG-CC-PVTZ
    Blend: AUG-CC-PVTZ
  Basis Set: (AUG-CC-PVTZ AUX)
    Blend: AUG-CC-PVTZ-JKFIT

    Orbital Energies [Eh]
    ---------------------

    Doubly Occupied:

       1A    -15.608748     2A    -11.272035     3A    -11.256424
       4A    -11.251257     5A    -11.246545     6A    -11.240572
       7A    -11.239481     8A    -11.239113     9A    -11.237843
      10A    -11.237053    11A    -11.208415    12A    -11.205292
      13A     -1.305433    14A     -1.154355    15A     -1.074201
      16A     -1.041898    17A     -1.016040    18A     -0.956961
      19A     -0.935636    20A     -0.831443    21A     -0.830262
      22A     -0.772951    23A     -0.741940    24A     -0.713417
      25A     -0.677714    26A     -0.641465    27A     -0.631773
      28A     -0.622597    29A     -0.596895    30A     -0.587159
      31A     -0.573374    32A     -0.566582    33A     -0.536966
      34A     -0.528788    35A     -0.525368    36A     -0.502380
      37A     -0.492541    38A     -0.491883    39A     -0.352475
      40A     -0.340315    41A     -0.336204    42A     -0.275576

  @DF-RHF Final Energy:  -477.54635138131073

   => Energetics <=

    Nuclear Repulsion Energy =            639.1745766776834898
    One-Electron Energy =               -1913.6471142466552919
    Two-Electron Energy =                 796.9261861876610737
    Total Energy =                       -477.5463513813107284
  Basis Set: (AUG-CC-PVTZ AUX)
    Blend: AUG-CC-PVTZ-RI
    Molecular point group: c1

    Geometry (in Angstrom), charge = 0, multiplicity = 1:

       Center              X                  Y                   Z               Mass
    ------------   -----------------  -----------------  -----------------  -----------------
         N           -1.754193509259     0.668932866744     0.205681393867    14.003074004430
         C           -0.880120909259    -0.326836033256    -0.104825006133    12.000000000000
         C            0.594804490741    -0.174256133256    -0.061541606133    12.000000000000
         C           -1.610591509259    -1.462860133256    -0.447302606133    12.000000000000
         C           -3.037522509259     0.200002866744     0.066181393867    12.000000000000
         C           -2.976098509259    -1.122099133256    -0.341197606133    12.000000000000
         C           -1.422326509259     2.004052866744     0.676285393867    12.000000000000
         C            1.240860490741     0.904677866744    -0.689861606133    12.000000000000
         C            1.377626490741    -1.142231133256     0.590663393867    12.000000000000
         C            2.630486490741     1.021523866744    -0.647535606133    12.000000000000
         C            2.767858490741    -1.034486133256     0.612590393867    12.000000000000
         C            3.398833490741     0.052282866744     0.001768393867    12.000000000000
         H           -1.194165509259    -2.410312133256    -0.766882606133     1.007825032230
         H           -3.883408509259     0.840132866744     0.281123393867     1.007825032230
         H           -3.826393509259    -1.761532133256    -0.540541606133     1.007825032230
         H           -2.222348509259     2.348384866744     1.334370393867     1.007825032230
         H           -0.488104509259     1.969476866744     1.237640393867     1.007825032230
         H           -1.315003509259     2.708550866744    -0.153684606133     1.007825032230
         H            0.652529490741     1.635399866744    -1.240806606133     1.007825032230
         H            0.880174490741    -1.972626133256     1.087059393867     1.007825032230
         H            3.116301490741     1.861379866744    -1.139397606133     1.007825032230
         H            3.359981490741    -1.792238133256     1.120852393867     1.007825032230
         H            4.482247490741     0.141089866744     0.027635393867     1.007825032230

  Basis Set: AUG-CC-PVTZ
    Blend: AUG-CC-PVTZ
  Basis Set: (AUG-CC-PVTZ AUX)
    Blend: AUG-CC-PVTZ-JKFIT
	 Reference Energy          =    -477.5463513813107284 [Eh]
	 Singles Energy            =      -0.0000000000000000 [Eh]
	 Same-Spin Energy          =      -0.5388810658823939 [Eh]
	 Opposite-Spin Energy      =      -1.6825897048096441 [Eh]
	 Correlation Energy        =      -2.2214707706920382 [Eh]
	 Total Energy              =    -479.7678221520027932 [Eh]

	 ================> DF-SCS-MP2 Energies <==================
	-----------------------------------------------------------
	 SCS Same-Spin Scale       =       0.3333333333333333 [-]
	 SCS Opposite-Spin Scale   =       1.2000000000000000 [-]
	 SCS Same-Spin Energy      =      -0.1796270219607980 [Eh]
	 SCS Opposite-Spin Energy  =      -2.0191076457715726 [Eh]
	 SCS Correlation Energy    =      -2.1987346677323707 [Eh]
	 SCS Total Energy          =    -479.7450860490430955 [Eh]
	-----------------------------------------------------------

  Dipole Moment: [D]
     X:     0.4669      Y:     1.8904      Z:     0.6904     Total:     2.0660

*** Psi4 exiting successfully. Buy a developer a beer!
