                               Psi4 1.3.2 release

  ==> Input File <==

--------------------------------------------------------------------------
#psi4
#
memory 32 gb

molecule  {
0 1
  N       -1.7531090     0.6487580     0.1985890
  C       -0.8584400    -0.3593730    -0.1157050
  C        0.6952007    -0.1831676    -0.0654197
  C       -1.6095070    -1.4830350    -0.4543950
  C       -3.0364380     0.1798280     0.0590890
  C       -2.9750140    -1.1422740    -0.3482900
  C       -1.4212420     1.9838780     0.6691930
  C        1.2419450     0.8845030    -0.6969540
  C        1.3787110    -1.1624060     0.5835710
  C        2.6315710     1.0013490    -0.6546280
  C        2.7689430    -1.0546610     0.6054980
  C        3.3999180     0.0321080    -0.0053240
  H       -1.1930810    -2.4304870    -0.7739750
  H       -3.8823240     0.8199580     0.2740310
  H       -3.8253090    -1.7817070    -0.5476340
  H       -2.2212640     2.3282100     1.3272780
  H       -0.4870200     1.9493020     1.2305480
  H       -1.3139190     2.6883760    -0.1607770
  H        0.6536140     1.6152250    -1.2478990
  H        0.8812590    -1.9928010     1.0799670
  H        3.1173860     1.8412050    -1.1464900
  H        3.3610660    -1.8124130     1.1137600
  H        4.4833320     0.1209150     0.0205430
units angstrom
no_reorient  #important for SAPT in psi4, default
symmetry c1  #important for SAPT in psi4, default
}

set PROPERTIES_ORIGIN ["COM"]
properties('MP2/aug-cc-pvtz', properties = ['dipole'])
--------------------------------------------------------------------------

    Molecular point group: c1
  Charge       = 0
  Multiplicity = 1
  Basis Set: AUG-CC-PVTZ
    Blend: AUG-CC-PVTZ
  Basis Set: (AUG-CC-PVTZ AUX)
    Blend: AUG-CC-PVTZ-JKFIT

    Orbital Energies [Eh]
    ---------------------

    Doubly Occupied:

       1A    -15.605549     2A    -11.269875     3A    -11.258956
       4A    -11.248165     5A    -11.245271     6A    -11.241671
       7A    -11.240521     8A    -11.237791     9A    -11.235276
      10A    -11.233245    11A    -11.205990    12A    -11.203700
      13A     -1.295318    14A     -1.166145    15A     -1.070298
      16A     -1.038015    17A     -1.023478    18A     -0.955115
      19A     -0.931580    20A     -0.837647    21A     -0.826008
      22A     -0.767851    23A     -0.740855    24A     -0.711487
      25A     -0.674298    26A     -0.639430    27A     -0.632080
      28A     -0.627893    29A     -0.597685    30A     -0.590747
      31A     -0.567411    32A     -0.564626    33A     -0.535796
      34A     -0.524862    35A     -0.521805    36A     -0.508188
      37A     -0.503598    38A     -0.477598    39A     -0.354873
      40A     -0.342798    41A     -0.333439    42A     -0.278112

  @DF-RHF Final Energy:  -477.53711296724157

   => Energetics <=

    Nuclear Repulsion Energy =            639.0431883888250013
    One-Electron Energy =               -1913.4305101532806930
    Two-Electron Energy =                 796.8502087972141226
    Total Energy =                       -477.5371129672415691
  Basis Set: (AUG-CC-PVTZ AUX)
    Blend: AUG-CC-PVTZ-RI
    Molecular point group: c1

    Geometry (in Angstrom), charge = 0, multiplicity = 1:

       Center              X                  Y                   Z               Mass
    ------------   -----------------  -----------------  -----------------  -----------------
         N           -1.763353258394     0.669016796156     0.205725188107    14.003074004430
         C           -0.868684258394    -0.339114203844    -0.108568811893    12.000000000000
         C            0.684956441606    -0.162908803844    -0.058283511893    12.000000000000
         C           -1.619751258394    -1.462776203844    -0.447258811893    12.000000000000
         C           -3.046682258394     0.200086796156     0.066225188107    12.000000000000
         C           -2.985258258394    -1.122015203844    -0.341153811893    12.000000000000
         C           -1.431486258394     2.004136796156     0.676329188107    12.000000000000
         C            1.231700741606     0.904761796156    -0.689817811893    12.000000000000
         C            1.368466741606    -1.142147203844     0.590707188107    12.000000000000
         C            2.621326741606     1.021607796156    -0.647491811893    12.000000000000
         C            2.758698741606    -1.034402203844     0.612634188107    12.000000000000
         C            3.389673741606     0.052366796156     0.001812188107    12.000000000000
         H           -1.203325258394    -2.410228203844    -0.766838811893     1.007825032230
         H           -3.892568258394     0.840216796156     0.281167188107     1.007825032230
         H           -3.835553258394    -1.761448203844    -0.540497811893     1.007825032230
         H           -2.231508258394     2.348468796156     1.334414188107     1.007825032230
         H           -0.497264258394     1.969560796156     1.237684188107     1.007825032230
         H           -1.324163258394     2.708634796156    -0.153640811893     1.007825032230
         H            0.643369741606     1.635483796156    -1.240762811893     1.007825032230
         H            0.871014741606    -1.972542203844     1.087103188107     1.007825032230
         H            3.107141741606     1.861463796156    -1.139353811893     1.007825032230
         H            3.350821741606    -1.792154203844     1.120896188107     1.007825032230
         H            4.473087741606     0.141173796156     0.027679188107     1.007825032230

  Basis Set: AUG-CC-PVTZ
    Blend: AUG-CC-PVTZ
  Basis Set: (AUG-CC-PVTZ AUX)
    Blend: AUG-CC-PVTZ-JKFIT
	 Reference Energy          =    -477.5371129672415691 [Eh]
	 Singles Energy            =      -0.0000000000000000 [Eh]
	 Same-Spin Energy          =      -0.5382148389162652 [Eh]
	 Opposite-Spin Energy      =      -1.6819620716317454 [Eh]
	 Correlation Energy        =      -2.2201769105480107 [Eh]
	 Total Energy              =    -479.7572898777895603 [Eh]

	 ================> DF-SCS-MP2 Energies <==================
	-----------------------------------------------------------
	 SCS Same-Spin Scale       =       0.3333333333333333 [-]
	 SCS Opposite-Spin Scale   =       1.2000000000000000 [-]
	 SCS Same-Spin Energy      =      -0.1794049463054217 [Eh]
	 SCS Opposite-Spin Energy  =      -2.0183544859580942 [Eh]
	 SCS Correlation Energy    =      -2.1977594322635161 [Eh]
	 SCS Total Energy          =    -479.7348723995050932 [Eh]
	-----------------------------------------------------------

  Dipole Moment: [D]
     X:     0.7355      Y:     1.8775      Z:     0.6890     Total:     2.1309

*** Psi4 exiting successfully. Buy a developer a beer!
