                               Psi4 1.3.2 release

  ==> Input File <==

--------------------------------------------------------------------------
#psi4
#
memory 32 gb

molecule  {
0 1
  N       -1.7531090     0.6487580     0.1985890
  C       -0.8584400    -0.3593730    -0.1157050
  C        0.5958890    -0.1944310    -0.0686340
  C       -1.6095070    -1.4830350    -0.4543950
  C       -3.0364380     0.1798280     0.0590890
  C       -3.0717640    -1.1181301    -0.3407722
  C       -1.4212420     1.9838780     0.6691930
  C        1.2419450     0.8845030    -0.6969540
  C        1.3787110    -1.1624060     0.5835710
  C        2.6315710     1.0013490    -0.6546280
  C        2.7689430    -1.0546610     0.6054980
  C        3.3999180     0.0321080    -0.0053240
  H       -1.1930810    -2.4304870    -0.7739750
  H       -3.8823240     0.8199580     0.2740310
  H       -3.8253090    -1.7817070    -0.5476340
  H       -2.2212640     2.3282100     1.3272780
  H       -0.4870200     1.9493020     1.2305480
  H       -1.3139190     2.6883760    -0.1607770
  H        0.6536140     1.6152250    -1.2478990
  H        0.8812590    -1.9928010     1.0799670
  H        3.1173860     1.8412050    -1.1464900
  H        3.3610660    -1.8124130     1.1137600
  H        4.4833320     0.1209150     0.0205430
units angstrom
no_reorient  #important for SAPT in psi4, default
symmetry c1  #important for SAPT in psi4, default
}

set PROPERTIES_ORIGIN ["COM"]
properties('MP2/aug-cc-pvtz', properties = ['dipole'])
--------------------------------------------------------------------------

    Molecular point group: c1
  Charge       = 0
  Multiplicity = 1
  Basis Set: AUG-CC-PVTZ
    Blend: AUG-CC-PVTZ
  Basis Set: (AUG-CC-PVTZ AUX)
    Blend: AUG-CC-PVTZ-JKFIT

    Orbital Energies [Eh]
    ---------------------

    Doubly Occupied:

       1A    -15.603057     2A    -11.270206     3A    -11.259152
       4A    -11.250901     5A    -11.250832     6A    -11.241309
       7A    -11.240223     8A    -11.239764     9A    -11.238596
      10A    -11.237675    11A    -11.213753    12A    -11.209359
      13A     -1.295890    14A     -1.155675    15A     -1.064448
      16A     -1.045174    17A     -1.016658    18A     -0.960699
      19A     -0.926468    20A     -0.834565    21A     -0.831043
      22A     -0.777446    23A     -0.740648    24A     -0.712991
      25A     -0.677908    26A     -0.639725    27A     -0.632131
      28A     -0.623163    29A     -0.603018    30A     -0.587791
      31A     -0.578589    32A     -0.567848    33A     -0.538937
      34A     -0.524710    35A     -0.512313    36A     -0.502605
      37A     -0.492133    38A     -0.488035    39A     -0.355523
      40A     -0.340350    41A     -0.326324    42A     -0.282609

  @DF-RHF Final Energy:  -477.53761020163773

   => Energetics <=

    Nuclear Repulsion Energy =            637.6373766646001968
    One-Electron Energy =               -1910.5694840573689817
    Two-Electron Energy =                 795.3944971911309949
    Total Energy =                       -477.5376102016377899
  Basis Set: (AUG-CC-PVTZ AUX)
    Blend: AUG-CC-PVTZ-RI
    Molecular point group: c1

    Geometry (in Angstrom), charge = 0, multiplicity = 1:

       Center              X                  Y                   Z               Mass
    ------------   -----------------  -----------------  -----------------  -----------------
         N           -1.748376155204     0.668032858051     0.205396444841    14.003074004430
         C           -0.853707155204    -0.340098141949    -0.108897555159    12.000000000000
         C            0.600621844796    -0.175156141949    -0.061826555159    12.000000000000
         C           -1.604774155204    -1.463760141949    -0.447587555159    12.000000000000
         C           -3.031705155204     0.199102858051     0.065896444841    12.000000000000
         C           -3.067031155204    -1.098855241949    -0.333964755159    12.000000000000
         C           -1.416509155204     2.003152858051     0.676000444841    12.000000000000
         C            1.246677844796     0.903777858051    -0.690146555159    12.000000000000
         C            1.383443844796    -1.143131141949     0.590378444841    12.000000000000
         C            2.636303844796     1.020623858051    -0.647820555159    12.000000000000
         C            2.773675844796    -1.035386141949     0.612305444841    12.000000000000
         C            3.404650844796     0.051382858051     0.001483444841    12.000000000000
         H           -1.188348155204    -2.411212141949    -0.767167555159     1.007825032230
         H           -3.877591155204     0.839232858051     0.280838444841     1.007825032230
         H           -3.820576155204    -1.762432141949    -0.540826555159     1.007825032230
         H           -2.216531155204     2.347484858051     1.334085444841     1.007825032230
         H           -0.482287155204     1.968576858051     1.237355444841     1.007825032230
         H           -1.309186155204     2.707650858051    -0.153969555159     1.007825032230
         H            0.658346844796     1.634499858051    -1.241091555159     1.007825032230
         H            0.885991844796    -1.973526141949     1.086774444841     1.007825032230
         H            3.122118844796     1.860479858051    -1.139682555159     1.007825032230
         H            3.365798844796    -1.793138141949     1.120567444841     1.007825032230
         H            4.488064844796     0.140189858051     0.027350444841     1.007825032230

  Basis Set: AUG-CC-PVTZ
    Blend: AUG-CC-PVTZ
  Basis Set: (AUG-CC-PVTZ AUX)
    Blend: AUG-CC-PVTZ-JKFIT
	 Reference Energy          =    -477.5376102016377331 [Eh]
	 Singles Energy            =      -0.0000000000000000 [Eh]
	 Same-Spin Energy          =      -0.5377153059256082 [Eh]
	 Opposite-Spin Energy      =      -1.6824473506233653 [Eh]
	 Correlation Energy        =      -2.2201626565489736 [Eh]
	 Total Energy              =    -479.7577728581866836 [Eh]

	 ================> DF-SCS-MP2 Energies <==================
	-----------------------------------------------------------
	 SCS Same-Spin Scale       =       0.3333333333333333 [-]
	 SCS Opposite-Spin Scale   =       1.2000000000000000 [-]
	 SCS Same-Spin Energy      =      -0.1792384353085361 [Eh]
	 SCS Opposite-Spin Energy  =      -2.0189368207480380 [Eh]
	 SCS Correlation Energy    =      -2.1981752560565742 [Eh]
	 SCS Total Energy          =    -479.7357854576943055 [Eh]
	-----------------------------------------------------------

  Dipole Moment: [D]
     X:     0.5252      Y:     1.8486      Z:     0.6769     Total:     2.0375

*** Psi4 exiting successfully. Buy a developer a beer!
