                               Psi4 1.3.2 release

  ==> Input File <==

--------------------------------------------------------------------------
#psi4
#
memory 32 gb

molecule  {
0 1
  N       -1.7531090     0.6487580     0.1985890
  C       -0.8584400    -0.3593730    -0.1157050
  C        0.5958890    -0.1944310    -0.0686340
  C       -1.6095070    -1.4830350    -0.4543950
  C       -3.0364380     0.1798280     0.0590890
  C       -2.9965744    -1.2332202    -0.3794138
  C       -1.4212420     1.9838780     0.6691930
  C        1.2419450     0.8845030    -0.6969540
  C        1.3787110    -1.1624060     0.5835710
  C        2.6315710     1.0013490    -0.6546280
  C        2.7689430    -1.0546610     0.6054980
  C        3.3999180     0.0321080    -0.0053240
  H       -1.1930810    -2.4304870    -0.7739750
  H       -3.8823240     0.8199580     0.2740310
  H       -3.8253090    -1.7817070    -0.5476340
  H       -2.2212640     2.3282100     1.3272780
  H       -0.4870200     1.9493020     1.2305480
  H       -1.3139190     2.6883760    -0.1607770
  H        0.6536140     1.6152250    -1.2478990
  H        0.8812590    -1.9928010     1.0799670
  H        3.1173860     1.8412050    -1.1464900
  H        3.3610660    -1.8124130     1.1137600
  H        4.4833320     0.1209150     0.0205430
units angstrom
no_reorient  #important for SAPT in psi4, default
symmetry c1  #important for SAPT in psi4, default
}

set PROPERTIES_ORIGIN ["COM"]
properties('MP2/aug-cc-pvtz', properties = ['dipole'])
--------------------------------------------------------------------------

    Molecular point group: c1
  Charge       = 0
  Multiplicity = 1
  Basis Set: AUG-CC-PVTZ
    Blend: AUG-CC-PVTZ
  Basis Set: (AUG-CC-PVTZ AUX)
    Blend: AUG-CC-PVTZ-JKFIT

    Orbital Energies [Eh]
    ---------------------

    Doubly Occupied:

       1A    -15.615931     2A    -11.273488     3A    -11.260494
       4A    -11.254689     5A    -11.250357     6A    -11.240419
       7A    -11.239155     8A    -11.238892     9A    -11.237436
      10A    -11.236452    11A    -11.213593    12A    -11.211513
      13A     -1.297983    14A     -1.154674    15A     -1.070500
      16A     -1.040392    17A     -1.015797    18A     -0.950493
      19A     -0.939111    20A     -0.831237    21A     -0.830530
      22A     -0.780307    23A     -0.741436    24A     -0.713944
      25A     -0.677587    26A     -0.640559    27A     -0.632108
      28A     -0.624767    29A     -0.604072    30A     -0.586903
      31A     -0.576851    32A     -0.569056    33A     -0.548267
      34A     -0.523634    35A     -0.506323    36A     -0.501735
      37A     -0.495847    38A     -0.490775    39A     -0.353768
      40A     -0.339975    41A     -0.335947    42A     -0.266885

  @DF-RHF Final Energy:  -477.52974558986409

   => Energetics <=

    Nuclear Repulsion Energy =            637.3478580065025199
    One-Electron Energy =               -1909.9274469615738781
    Two-Electron Energy =                 795.0498433652072663
    Total Energy =                       -477.5297455898640919
  Basis Set: (AUG-CC-PVTZ AUX)
    Blend: AUG-CC-PVTZ-RI
    Molecular point group: c1

    Geometry (in Angstrom), charge = 0, multiplicity = 1:

       Center              X                  Y                   Z               Mass
    ------------   -----------------  -----------------  -----------------  -----------------
         N           -1.754119869545     0.676824561397     0.208348266797    14.003074004430
         C           -0.859450869545    -0.331306438603    -0.105945733203    12.000000000000
         C            0.594878130455    -0.166364438603    -0.058874733203    12.000000000000
         C           -1.610517869545    -1.454968438603    -0.444635733203    12.000000000000
         C           -3.037448869545     0.207894561397     0.068848266797    12.000000000000
         C           -2.997585269545    -1.205153638603    -0.369654533203    12.000000000000
         C           -1.422252869545     2.011944561397     0.678952266797    12.000000000000
         C            1.240934130455     0.912569561397    -0.687194733203    12.000000000000
         C            1.377700130455    -1.134339438603     0.593330266797    12.000000000000
         C            2.630560130455     1.029415561397    -0.644868733203    12.000000000000
         C            2.767932130455    -1.026594438603     0.615257266797    12.000000000000
         C            3.398907130455     0.060174561397     0.004435266797    12.000000000000
         H           -1.194091869545    -2.402420438603    -0.764215733203     1.007825032230
         H           -3.883334869545     0.848024561397     0.283790266797     1.007825032230
         H           -3.826319869545    -1.753640438603    -0.537874733203     1.007825032230
         H           -2.222274869545     2.356276561397     1.337037266797     1.007825032230
         H           -0.488030869545     1.977368561397     1.240307266797     1.007825032230
         H           -1.314929869545     2.716442561397    -0.151017733203     1.007825032230
         H            0.652603130455     1.643291561397    -1.238139733203     1.007825032230
         H            0.880248130455    -1.964734438603     1.089726266797     1.007825032230
         H            3.116375130455     1.869271561397    -1.136730733203     1.007825032230
         H            3.360055130455    -1.784346438603     1.123519266797     1.007825032230
         H            4.482321130455     0.148981561397     0.030302266797     1.007825032230

  Basis Set: AUG-CC-PVTZ
    Blend: AUG-CC-PVTZ
  Basis Set: (AUG-CC-PVTZ AUX)
    Blend: AUG-CC-PVTZ-JKFIT
	 Reference Energy          =    -477.5297455898640919 [Eh]
	 Singles Energy            =      -0.0000000000000000 [Eh]
	 Same-Spin Energy          =      -0.5404117780326989 [Eh]
	 Opposite-Spin Energy      =      -1.6858843427326631 [Eh]
	 Correlation Energy        =      -2.2262961207653618 [Eh]
	 Total Energy              =    -479.7560417106294608 [Eh]

	 ================> DF-SCS-MP2 Energies <==================
	-----------------------------------------------------------
	 SCS Same-Spin Scale       =       0.3333333333333333 [-]
	 SCS Opposite-Spin Scale   =       1.2000000000000000 [-]
	 SCS Same-Spin Energy      =      -0.1801372593442330 [Eh]
	 SCS Opposite-Spin Energy  =      -2.0230612112791957 [Eh]
	 SCS Correlation Energy    =      -2.2031984706234287 [Eh]
	 SCS Total Energy          =    -479.7329440604875117 [Eh]
	-----------------------------------------------------------

  Dipole Moment: [D]
     X:     0.5180      Y:     1.9116      Z:     0.6986     Total:     2.1002

*** Psi4 exiting successfully. Buy a developer a beer!
