                               Psi4 1.3.2 release

  ==> Input File <==

--------------------------------------------------------------------------
#psi4
#
memory 32 gb

molecule  {
0 1
  N       -1.7531090     0.6487580     0.1985890
  C       -0.8584400    -0.3593730    -0.1157050
  C        0.5926743    -0.1701649    -0.0612816
  C       -1.6095070    -1.4830350    -0.4543950
  C       -3.0364380     0.1798280     0.0590890
  C       -2.9750140    -1.1422740    -0.3482900
  C       -1.4212420     1.9838780     0.6691930
  C        1.2419450     0.8845030    -0.6969540
  C        1.3787110    -1.1624060     0.5835710
  C        2.6315710     1.0013490    -0.6546280
  C        2.7689430    -1.0546610     0.6054980
  C        3.3999180     0.0321080    -0.0053240
  H       -1.1930810    -2.4304870    -0.7739750
  H       -3.8823240     0.8199580     0.2740310
  H       -3.8253090    -1.7817070    -0.5476340
  H       -2.2212640     2.3282100     1.3272780
  H       -0.4870200     1.9493020     1.2305480
  H       -1.3139190     2.6883760    -0.1607770
  H        0.6536140     1.6152250    -1.2478990
  H        0.8812590    -1.9928010     1.0799670
  H        3.1173860     1.8412050    -1.1464900
  H        3.3610660    -1.8124130     1.1137600
  H        4.4833320     0.1209150     0.0205430
units angstrom
no_reorient  #important for SAPT in psi4, default
symmetry c1  #important for SAPT in psi4, default
}

set PROPERTIES_ORIGIN ["COM"]
properties('MP2/aug-cc-pvtz', properties = ['dipole'])
--------------------------------------------------------------------------

    Molecular point group: c1
  Charge       = 0
  Multiplicity = 1
  Basis Set: AUG-CC-PVTZ
    Blend: AUG-CC-PVTZ
  Basis Set: (AUG-CC-PVTZ AUX)
    Blend: AUG-CC-PVTZ-JKFIT

    Orbital Energies [Eh]
    ---------------------

    Doubly Occupied:

       1A    -15.607129     2A    -11.270555     3A    -11.256644
       4A    -11.250163     5A    -11.248391     6A    -11.240594
       7A    -11.239620     8A    -11.238657     9A    -11.238347
      10A    -11.237806    11A    -11.208561    12A    -11.207335
      13A     -1.298866    14A     -1.154987    15A     -1.073214
      16A     -1.044181    17A     -1.016093    18A     -0.955942
      19A     -0.933348    20A     -0.833701    21A     -0.830146
      22A     -0.770928    23A     -0.742928    24A     -0.712252
      25A     -0.677969    26A     -0.639858    27A     -0.631900
      28A     -0.622890    29A     -0.595932    30A     -0.587477
      31A     -0.569543    32A     -0.568225    33A     -0.538171
      34A     -0.527253    35A     -0.523733    36A     -0.501586
      37A     -0.496715    38A     -0.490645    39A     -0.354331
      40A     -0.339714    41A     -0.335458    42A     -0.275189

  @DF-RHF Final Energy:  -477.54534150755660

   => Energetics <=

    Nuclear Repulsion Energy =            639.0937040820175525
    One-Electron Energy =               -1913.5041414612060180
    Two-Electron Energy =                 796.8650958716317518
    Total Energy =                       -477.5453415075565999
  Basis Set: (AUG-CC-PVTZ AUX)
    Blend: AUG-CC-PVTZ-RI
    Molecular point group: c1

    Geometry (in Angstrom), charge = 0, multiplicity = 1:

       Center              X                  Y                   Z               Mass
    ------------   -----------------  -----------------  -----------------  -----------------
         N           -1.755521292883     0.668023523224     0.205409079705    14.003074004430
         C           -0.860852292883    -0.340107476776    -0.108884920295    12.000000000000
         C            0.590262007117    -0.150899376776    -0.054461520295    12.000000000000
         C           -1.611919292883    -1.463769476776    -0.447574920295    12.000000000000
         C           -3.038850292883     0.199093523224     0.065909079705    12.000000000000
         C           -2.977426292883    -1.123008476776    -0.341469920295    12.000000000000
         C           -1.423654292883     2.003143523224     0.676013079705    12.000000000000
         C            1.239532707117     0.903768523224    -0.690133920295    12.000000000000
         C            1.376298707117    -1.143140476776     0.590391079705    12.000000000000
         C            2.629158707117     1.020614523224    -0.647807920295    12.000000000000
         C            2.766530707117    -1.035395476776     0.612318079705    12.000000000000
         C            3.397505707117     0.051373523224     0.001496079705    12.000000000000
         H           -1.195493292883    -2.411221476776    -0.767154920295     1.007825032230
         H           -3.884736292883     0.839223523224     0.280851079705     1.007825032230
         H           -3.827721292883    -1.762441476776    -0.540813920295     1.007825032230
         H           -2.223676292883     2.347475523224     1.334098079705     1.007825032230
         H           -0.489432292883     1.968567523224     1.237368079705     1.007825032230
         H           -1.316331292883     2.707641523224    -0.153956920295     1.007825032230
         H            0.651201707117     1.634490523224    -1.241078920295     1.007825032230
         H            0.878846707117    -1.973535476776     1.086787079705     1.007825032230
         H            3.114973707117     1.860470523224    -1.139669920295     1.007825032230
         H            3.358653707117    -1.793147476776     1.120580079705     1.007825032230
         H            4.480919707117     0.140180523224     0.027363079705     1.007825032230

  Basis Set: AUG-CC-PVTZ
    Blend: AUG-CC-PVTZ
  Basis Set: (AUG-CC-PVTZ AUX)
    Blend: AUG-CC-PVTZ-JKFIT
	 Reference Energy          =    -477.5453415075565999 [Eh]
	 Singles Energy            =      -0.0000000000000000 [Eh]
	 Same-Spin Energy          =      -0.5392265070265928 [Eh]
	 Opposite-Spin Energy      =      -1.6833411570688692 [Eh]
	 Correlation Energy        =      -2.2225676640954619 [Eh]
	 Total Energy              =    -479.7679091716520361 [Eh]

	 ================> DF-SCS-MP2 Energies <==================
	-----------------------------------------------------------
	 SCS Same-Spin Scale       =       0.3333333333333333 [-]
	 SCS Opposite-Spin Scale   =       1.2000000000000000 [-]
	 SCS Same-Spin Energy      =      -0.1797421690088642 [Eh]
	 SCS Opposite-Spin Energy  =      -2.0200093884826429 [Eh]
	 SCS Correlation Energy    =      -2.1997515574915072 [Eh]
	 SCS Total Energy          =    -479.7450930650480814 [Eh]
	-----------------------------------------------------------

  Dipole Moment: [D]
     X:     0.4731      Y:     1.8527      Z:     0.6721     Total:     2.0268

*** Psi4 exiting successfully. Buy a developer a beer!
