                               Psi4 1.3.2 release

  ==> Input File <==

--------------------------------------------------------------------------
#psi4
#
memory 32 gb

molecule  {
0 1
  N       -1.8585848     0.5535995     0.1701850
  C       -0.8584400    -0.3593730    -0.1157050
  C        0.5958890    -0.1944310    -0.0686340
  C       -1.6095070    -1.4830350    -0.4543950
  C       -3.0364380     0.1798280     0.0590890
  C       -2.9750140    -1.1422740    -0.3482900
  C       -1.4212420     1.9838780     0.6691930
  C        1.2419450     0.8845030    -0.6969540
  C        1.3787110    -1.1624060     0.5835710
  C        2.6315710     1.0013490    -0.6546280
  C        2.7689430    -1.0546610     0.6054980
  C        3.3999180     0.0321080    -0.0053240
  H       -1.1930810    -2.4304870    -0.7739750
  H       -3.8823240     0.8199580     0.2740310
  H       -3.8253090    -1.7817070    -0.5476340
  H       -2.2212640     2.3282100     1.3272780
  H       -0.4870200     1.9493020     1.2305480
  H       -1.3139190     2.6883760    -0.1607770
  H        0.6536140     1.6152250    -1.2478990
  H        0.8812590    -1.9928010     1.0799670
  H        3.1173860     1.8412050    -1.1464900
  H        3.3610660    -1.8124130     1.1137600
  H        4.4833320     0.1209150     0.0205430
units angstrom
no_reorient  #important for SAPT in psi4, default
symmetry c1  #important for SAPT in psi4, default
}

set PROPERTIES_ORIGIN ["COM"]
properties('MP2/aug-cc-pvtz', properties = ['dipole'])
--------------------------------------------------------------------------

    Molecular point group: c1
  Charge       = 0
  Multiplicity = 1
  Basis Set: AUG-CC-PVTZ
    Blend: AUG-CC-PVTZ
  Basis Set: (AUG-CC-PVTZ AUX)
    Blend: AUG-CC-PVTZ-JKFIT

    Orbital Energies [Eh]
    ---------------------

    Doubly Occupied:

       1A    -15.612594     2A    -11.283204     3A    -11.252245
       4A    -11.244653     5A    -11.240081     6A    -11.239427
       7A    -11.238951     8A    -11.238317     9A    -11.237025
      10A    -11.236270    11A    -11.205320    12A    -11.193683
      13A     -1.328930    14A     -1.155388    15A     -1.057887
      16A     -1.044741    17A     -1.015411    18A     -0.970670
      19A     -0.933754    20A     -0.834016    21A     -0.829786
      22A     -0.776238    23A     -0.738827    24A     -0.708136
      25A     -0.683554    26A     -0.641403    27A     -0.637054
      28A     -0.621429    29A     -0.594698    30A     -0.589349
      31A     -0.585686    32A     -0.547313    33A     -0.540007
      34A     -0.528893    35A     -0.521497    36A     -0.503968
      37A     -0.495140    38A     -0.489232    39A     -0.358683
      40A     -0.339481    41A     -0.329995    42A     -0.271509

  @DF-RHF Final Energy:  -477.51555112436165

   => Energetics <=

    Nuclear Repulsion Energy =            639.7026719924490408
    One-Electron Energy =               -1914.6475569439983246
    Two-Electron Energy =                 797.4293338271876337
    Total Energy =                       -477.5155511243616502
  Basis Set: (AUG-CC-PVTZ AUX)
    Blend: AUG-CC-PVTZ-RI
    Molecular point group: c1

    Geometry (in Angstrom), charge = 0, multiplicity = 1:

       Center              X                  Y                   Z               Mass
    ------------   -----------------  -----------------  -----------------  -----------------
         N           -1.851840451326     0.583201222282     0.180098686845    14.003074004430
         C           -0.851695651326    -0.329771277718    -0.105791313155    12.000000000000
         C            0.602633348674    -0.164829277718    -0.058720313155    12.000000000000
         C           -1.602762651326    -1.453433277718    -0.444481313155    12.000000000000
         C           -3.029693651326     0.209429722282     0.069002686845    12.000000000000
         C           -2.968269651326    -1.112672277718    -0.338376313155    12.000000000000
         C           -1.414497651326     2.013479722282     0.679106686845    12.000000000000
         C            1.248689348674     0.914104722282    -0.687040313155    12.000000000000
         C            1.385455348674    -1.132804277718     0.593484686845    12.000000000000
         C            2.638315348674     1.030950722282    -0.644714313155    12.000000000000
         C            2.775687348674    -1.025059277718     0.615411686845    12.000000000000
         C            3.406662348674     0.061709722282     0.004589686845    12.000000000000
         H           -1.186336651326    -2.400885277718    -0.764061313155     1.007825032230
         H           -3.875579651326     0.849559722282     0.283944686845     1.007825032230
         H           -3.818564651326    -1.752105277718    -0.537720313155     1.007825032230
         H           -2.214519651326     2.357811722282     1.337191686845     1.007825032230
         H           -0.480275651326     1.978903722282     1.240461686845     1.007825032230
         H           -1.307174651326     2.717977722282    -0.150863313155     1.007825032230
         H            0.660358348674     1.644826722282    -1.237985313155     1.007825032230
         H            0.888003348674    -1.963199277718     1.089880686845     1.007825032230
         H            3.124130348674     1.870806722282    -1.136576313155     1.007825032230
         H            3.367810348674    -1.782811277718     1.123673686845     1.007825032230
         H            4.490076348674     0.150516722282     0.030456686845     1.007825032230

  Basis Set: AUG-CC-PVTZ
    Blend: AUG-CC-PVTZ
  Basis Set: (AUG-CC-PVTZ AUX)
    Blend: AUG-CC-PVTZ-JKFIT
	 Reference Energy          =    -477.5155511243616502 [Eh]
	 Singles Energy            =      -0.0000000000000000 [Eh]
	 Same-Spin Energy          =      -0.5399203951323317 [Eh]
	 Opposite-Spin Energy      =      -1.6834426808582870 [Eh]
	 Correlation Energy        =      -2.2233630759906187 [Eh]
	 Total Energy              =    -479.7389142003522693 [Eh]

	 ================> DF-SCS-MP2 Energies <==================
	-----------------------------------------------------------
	 SCS Same-Spin Scale       =       0.3333333333333333 [-]
	 SCS Opposite-Spin Scale   =       1.2000000000000000 [-]
	 SCS Same-Spin Energy      =      -0.1799734650441105 [Eh]
	 SCS Opposite-Spin Energy  =      -2.0201312170299444 [Eh]
	 SCS Correlation Energy    =      -2.2001046820740551 [Eh]
	 SCS Total Energy          =    -479.7156558064356773 [Eh]
	-----------------------------------------------------------

  Dipole Moment: [D]
     X:     0.5688      Y:     2.2892      Z:     0.8068     Total:     2.4930

*** Psi4 exiting successfully. Buy a developer a beer!
