                               Psi4 1.3.2 release

  ==> Input File <==

--------------------------------------------------------------------------
#psi4
#
memory 32 gb

molecule  {
0 1
  N       -1.7531090     0.6487580     0.1985890
  C       -0.8584400    -0.3593730    -0.1157050
  C        0.5958890    -0.1944310    -0.0686340
  C       -1.5879375    -1.3911686    -0.4261094
  C       -3.0364380     0.1798280     0.0590890
  C       -2.9750140    -1.1422740    -0.3482900
  C       -1.4212420     1.9838780     0.6691930
  C        1.2419450     0.8845030    -0.6969540
  C        1.3787110    -1.1624060     0.5835710
  C        2.6315710     1.0013490    -0.6546280
  C        2.7689430    -1.0546610     0.6054980
  C        3.3999180     0.0321080    -0.0053240
  H       -1.1930810    -2.4304870    -0.7739750
  H       -3.8823240     0.8199580     0.2740310
  H       -3.8253090    -1.7817070    -0.5476340
  H       -2.2212640     2.3282100     1.3272780
  H       -0.4870200     1.9493020     1.2305480
  H       -1.3139190     2.6883760    -0.1607770
  H        0.6536140     1.6152250    -1.2478990
  H        0.8812590    -1.9928010     1.0799670
  H        3.1173860     1.8412050    -1.1464900
  H        3.3610660    -1.8124130     1.1137600
  H        4.4833320     0.1209150     0.0205430
units angstrom
no_reorient  #important for SAPT in psi4, default
symmetry c1  #important for SAPT in psi4, default
}

set PROPERTIES_ORIGIN ["COM"]
properties('MP2/aug-cc-pvtz', properties = ['dipole'])
--------------------------------------------------------------------------

    Molecular point group: c1
  Charge       = 0
  Multiplicity = 1
  Basis Set: AUG-CC-PVTZ
    Blend: AUG-CC-PVTZ
  Basis Set: (AUG-CC-PVTZ AUX)
    Blend: AUG-CC-PVTZ-JKFIT

    Orbital Energies [Eh]
    ---------------------

    Doubly Occupied:

       1A    -15.600262     2A    -11.268047     3A    -11.250961
       4A    -11.250420     5A    -11.243967     6A    -11.240826
       7A    -11.239727     8A    -11.239363     9A    -11.238162
      10A    -11.237280    11A    -11.205745    12A    -11.203043
      13A     -1.302921    14A     -1.155286    15A     -1.080312
      16A     -1.045064    17A     -1.016296    18A     -0.963815
      19A     -0.928051    20A     -0.833947    21A     -0.830973
      22A     -0.773053    23A     -0.740625    24A     -0.709248
      25A     -0.678901    26A     -0.639987    27A     -0.632188
      28A     -0.621772    29A     -0.594959    30A     -0.587079
      31A     -0.574267    32A     -0.563418    33A     -0.544117
      34A     -0.529644    35A     -0.508483    36A     -0.501671
      37A     -0.495037    38A     -0.489889    39A     -0.357173
      40A     -0.340064    41A     -0.334006    42A     -0.284641

  @DF-RHF Final Energy:  -477.53486794387317

   => Energetics <=

    Nuclear Repulsion Energy =            641.1878422715154784
    One-Electron Energy =               -1917.6960372429123254
    Two-Electron Energy =                 798.9733270275236237
    Total Energy =                       -477.5348679438731097
  Basis Set: (AUG-CC-PVTZ AUX)
    Blend: AUG-CC-PVTZ-RI
    Molecular point group: c1

    Geometry (in Angstrom), charge = 0, multiplicity = 1:

       Center              X                  Y                   Z               Mass
    ------------   -----------------  -----------------  -----------------  -----------------
         N           -1.757414551591     0.662859553572     0.203809997903    14.003074004430
         C           -0.862745551591    -0.345271446428    -0.110484002097    12.000000000000
         C            0.591583448409    -0.180329446428    -0.063413002097    12.000000000000
         C           -1.592243051591    -1.377067046428    -0.420888402097    12.000000000000
         C           -3.040743551591     0.193929553572     0.064309997903    12.000000000000
         C           -2.979319551591    -1.128172446428    -0.343069002097    12.000000000000
         C           -1.425547551591     1.997979553572     0.674413997903    12.000000000000
         C            1.237639448409     0.898604553572    -0.691733002097    12.000000000000
         C            1.374405448409    -1.148304446428     0.588791997903    12.000000000000
         C            2.627265448409     1.015450553572    -0.649407002097    12.000000000000
         C            2.764637448409    -1.040559446428     0.610718997903    12.000000000000
         C            3.395612448409     0.046209553572    -0.000103002097    12.000000000000
         H           -1.197386551591    -2.416385446428    -0.768754002097     1.007825032230
         H           -3.886629551591     0.834059553572     0.279251997903     1.007825032230
         H           -3.829614551591    -1.767605446428    -0.542413002097     1.007825032230
         H           -2.225569551591     2.342311553572     1.332498997903     1.007825032230
         H           -0.491325551591     1.963403553572     1.235768997903     1.007825032230
         H           -1.318224551591     2.702477553572    -0.155556002097     1.007825032230
         H            0.649308448409     1.629326553572    -1.242678002097     1.007825032230
         H            0.876953448409    -1.978699446428     1.085187997903     1.007825032230
         H            3.113080448409     1.855306553572    -1.141269002097     1.007825032230
         H            3.356760448409    -1.798311446428     1.118980997903     1.007825032230
         H            4.479026448409     0.135016553572     0.025763997903     1.007825032230

  Basis Set: AUG-CC-PVTZ
    Blend: AUG-CC-PVTZ
  Basis Set: (AUG-CC-PVTZ AUX)
    Blend: AUG-CC-PVTZ-JKFIT
	 Reference Energy          =    -477.5348679438731665 [Eh]
	 Singles Energy            =      -0.0000000000000000 [Eh]
	 Same-Spin Energy          =      -0.5382213395806941 [Eh]
	 Opposite-Spin Energy      =      -1.6818831644648307 [Eh]
	 Correlation Energy        =      -2.2201045040455245 [Eh]
	 Total Energy              =    -479.7549724479187034 [Eh]

	 ================> DF-SCS-MP2 Energies <==================
	-----------------------------------------------------------
	 SCS Same-Spin Scale       =       0.3333333333333333 [-]
	 SCS Opposite-Spin Scale   =       1.2000000000000000 [-]
	 SCS Same-Spin Energy      =      -0.1794071131935647 [Eh]
	 SCS Opposite-Spin Energy  =      -2.0182597973577967 [Eh]
	 SCS Correlation Energy    =      -2.1976669105513613 [Eh]
	 SCS Total Energy          =    -479.7325348544245003 [Eh]
	-----------------------------------------------------------

  Dipole Moment: [D]
     X:     0.5167      Y:     1.8008      Z:     0.6652     Total:     1.9881

*** Psi4 exiting successfully. Buy a developer a beer!
