                               Psi4 1.3.2 release

  ==> Input File <==

--------------------------------------------------------------------------
#psi4
#
memory 32 gb

molecule  {
0 1
  N       -1.7531090     0.6487580     0.1985890
  C       -0.8770056    -0.3741613    -0.1201906
  C        0.5958890    -0.1944310    -0.0686340
  C       -1.6095070    -1.4830350    -0.4543950
  C       -3.0364380     0.1798280     0.0590890
  C       -2.9750140    -1.1422740    -0.3482900
  C       -1.4212420     1.9838780     0.6691930
  C        1.2419450     0.8845030    -0.6969540
  C        1.3787110    -1.1624060     0.5835710
  C        2.6315710     1.0013490    -0.6546280
  C        2.7689430    -1.0546610     0.6054980
  C        3.3999180     0.0321080    -0.0053240
  H       -1.1930810    -2.4304870    -0.7739750
  H       -3.8823240     0.8199580     0.2740310
  H       -3.8253090    -1.7817070    -0.5476340
  H       -2.2212640     2.3282100     1.3272780
  H       -0.4870200     1.9493020     1.2305480
  H       -1.3139190     2.6883760    -0.1607770
  H        0.6536140     1.6152250    -1.2478990
  H        0.8812590    -1.9928010     1.0799670
  H        3.1173860     1.8412050    -1.1464900
  H        3.3610660    -1.8124130     1.1137600
  H        4.4833320     0.1209150     0.0205430
units angstrom
no_reorient  #important for SAPT in psi4, default
symmetry c1  #important for SAPT in psi4, default
}

set PROPERTIES_ORIGIN ["COM"]
properties('MP2/aug-cc-pvtz', properties = ['dipole'])
--------------------------------------------------------------------------

    Molecular point group: c1
  Charge       = 0
  Multiplicity = 1
  Basis Set: AUG-CC-PVTZ
    Blend: AUG-CC-PVTZ
  Basis Set: (AUG-CC-PVTZ AUX)
    Blend: AUG-CC-PVTZ-JKFIT

    Orbital Energies [Eh]
    ---------------------

    Doubly Occupied:

       1A    -15.605903     2A    -11.270962     3A    -11.255494
       4A    -11.251068     5A    -11.248372     6A    -11.240656
       7A    -11.239460     8A    -11.239138     9A    -11.237793
      10A    -11.236764    11A    -11.207581    12A    -11.204751
      13A     -1.299306    14A     -1.154241    15A     -1.075894
      16A     -1.041342    17A     -1.015972    18A     -0.956753
      19A     -0.934102    20A     -0.831239    21A     -0.830095
      22A     -0.771990    23A     -0.742084    24A     -0.712661
      25A     -0.677552    26A     -0.639600    27A     -0.630927
      28A     -0.622175    29A     -0.596102    30A     -0.586960
      31A     -0.571943    32A     -0.566693    33A     -0.538310
      34A     -0.528373    35A     -0.524519    36A     -0.501109
      37A     -0.494126    38A     -0.491633    39A     -0.353497
      40A     -0.340106    41A     -0.335631    42A     -0.277934

  @DF-RHF Final Energy:  -477.54661590640859

   => Energetics <=

    Nuclear Repulsion Energy =            639.0152636163097668
    One-Electron Energy =               -1913.3621431408028002
    Two-Electron Energy =                 796.8002636180845002
    Total Energy =                       -477.5466159064085332
  Basis Set: (AUG-CC-PVTZ AUX)
    Blend: AUG-CC-PVTZ-RI
    Molecular point group: c1

    Geometry (in Angstrom), charge = 0, multiplicity = 1:

       Center              X                  Y                   Z               Mass
    ------------   -----------------  -----------------  -----------------  -----------------
         N           -1.754348641552     0.671006878866     0.206313381502    14.003074004430
         C           -0.878245241552    -0.351912421134    -0.112466218498    12.000000000000
         C            0.594649358448    -0.172182121134    -0.060909618498    12.000000000000
         C           -1.610746641552    -1.460786121134    -0.446670618498    12.000000000000
         C           -3.037677641552     0.202076878866     0.066813381502    12.000000000000
         C           -2.976253641552    -1.120025121134    -0.340565618498    12.000000000000
         C           -1.422481641552     2.006126878866     0.676917381502    12.000000000000
         C            1.240705358448     0.906751878866    -0.689229618498    12.000000000000
         C            1.377471358448    -1.140157121134     0.591295381502    12.000000000000
         C            2.630331358448     1.023597878866    -0.646903618498    12.000000000000
         C            2.767703358448    -1.032412121134     0.613222381502    12.000000000000
         C            3.398678358448     0.054356878866     0.002400381502    12.000000000000
         H           -1.194320641552    -2.408238121134    -0.766250618498     1.007825032230
         H           -3.883563641552     0.842206878866     0.281755381502     1.007825032230
         H           -3.826548641552    -1.759458121134    -0.539909618498     1.007825032230
         H           -2.222503641552     2.350458878866     1.335002381502     1.007825032230
         H           -0.488259641552     1.971550878866     1.238272381502     1.007825032230
         H           -1.315158641552     2.710624878866    -0.153052618498     1.007825032230
         H            0.652374358448     1.637473878866    -1.240174618498     1.007825032230
         H            0.880019358448    -1.970552121134     1.087691381502     1.007825032230
         H            3.116146358448     1.863453878866    -1.138765618498     1.007825032230
         H            3.359826358448    -1.790164121134     1.121484381502     1.007825032230
         H            4.482092358448     0.143163878866     0.028267381502     1.007825032230

  Basis Set: AUG-CC-PVTZ
    Blend: AUG-CC-PVTZ
  Basis Set: (AUG-CC-PVTZ AUX)
    Blend: AUG-CC-PVTZ-JKFIT
	 Reference Energy          =    -477.5466159064085900 [Eh]
	 Singles Energy            =      -0.0000000000000000 [Eh]
	 Same-Spin Energy          =      -0.5385484914823440 [Eh]
	 Opposite-Spin Energy      =      -1.6823878405032344 [Eh]
	 Correlation Energy        =      -2.2209363319855786 [Eh]
	 Total Energy              =    -479.7675522383941598 [Eh]

	 ================> DF-SCS-MP2 Energies <==================
	-----------------------------------------------------------
	 SCS Same-Spin Scale       =       0.3333333333333333 [-]
	 SCS Opposite-Spin Scale   =       1.2000000000000000 [-]
	 SCS Same-Spin Energy      =      -0.1795161638274480 [Eh]
	 SCS Opposite-Spin Energy  =      -2.0188654086038813 [Eh]
	 SCS Correlation Energy    =      -2.1983815724313294 [Eh]
	 SCS Total Energy          =    -479.7449974788399345 [Eh]
	-----------------------------------------------------------

  Dipole Moment: [D]
     X:     0.4938      Y:     1.8450      Z:     0.6719     Total:     2.0247

*** Psi4 exiting successfully. Buy a developer a beer!
