                               Psi4 1.3.2 release

  ==> Input File <==

--------------------------------------------------------------------------
#psi4
#
memory 32 gb

molecule  {
0 1
  N       -1.7531090     0.6487580     0.1985890
  C       -0.8958380    -0.3886379    -0.1245790
  C        0.5958890    -0.1944310    -0.0686340
  C       -1.6095070    -1.4830350    -0.4543950
  C       -3.0364380     0.1798280     0.0590890
  C       -2.9750140    -1.1422740    -0.3482900
  C       -1.4212420     1.9838780     0.6691930
  C        1.2419450     0.8845030    -0.6969540
  C        1.3787110    -1.1624060     0.5835710
  C        2.6315710     1.0013490    -0.6546280
  C        2.7689430    -1.0546610     0.6054980
  C        3.3999180     0.0321080    -0.0053240
  H       -1.1930810    -2.4304870    -0.7739750
  H       -3.8823240     0.8199580     0.2740310
  H       -3.8253090    -1.7817070    -0.5476340
  H       -2.2212640     2.3282100     1.3272780
  H       -0.4870200     1.9493020     1.2305480
  H       -1.3139190     2.6883760    -0.1607770
  H        0.6536140     1.6152250    -1.2478990
  H        0.8812590    -1.9928010     1.0799670
  H        3.1173860     1.8412050    -1.1464900
  H        3.3610660    -1.8124130     1.1137600
  H        4.4833320     0.1209150     0.0205430
units angstrom
no_reorient  #important for SAPT in psi4, default
symmetry c1  #important for SAPT in psi4, default
}

set PROPERTIES_ORIGIN ["COM"]
properties('MP2/aug-cc-pvtz', properties = ['dipole'])
--------------------------------------------------------------------------

    Molecular point group: c1
  Charge       = 0
  Multiplicity = 1
  Basis Set: AUG-CC-PVTZ
    Blend: AUG-CC-PVTZ
  Basis Set: (AUG-CC-PVTZ AUX)
    Blend: AUG-CC-PVTZ-JKFIT

    Orbital Energies [Eh]
    ---------------------

    Doubly Occupied:

       1A    -15.604257     2A    -11.271270     3A    -11.254521
       4A    -11.251859     5A    -11.248229     6A    -11.240563
       7A    -11.239347     8A    -11.238966     9A    -11.237600
      10A    -11.236451    11A    -11.206960    12A    -11.202353
      13A     -1.299838    14A     -1.153437    15A     -1.078714
      16A     -1.038826    17A     -1.015737    18A     -0.957656
      19A     -0.934783    20A     -0.829647    21A     -0.829170
      22A     -0.773276    23A     -0.741064    24A     -0.712996
      25A     -0.677183    26A     -0.639263    27A     -0.629888
      28A     -0.621829    29A     -0.595576    30A     -0.586739
      31A     -0.574899    32A     -0.564648    33A     -0.538487
      34A     -0.529418    35A     -0.525347    36A     -0.500544
      37A     -0.493056    38A     -0.490524    39A     -0.353199
      40A     -0.339922    41A     -0.336003    42A     -0.280592

  @DF-RHF Final Energy:  -477.54547673374248

   => Energetics <=

    Nuclear Repulsion Energy =            638.9981299621077824
    One-Electron Energy =               -1913.3379412628289629
    Two-Electron Energy =                 796.7943345669785913
    Total Energy =                       -477.5454767337424755
  Basis Set: (AUG-CC-PVTZ AUX)
    Blend: AUG-CC-PVTZ-RI
    Molecular point group: c1

    Geometry (in Angstrom), charge = 0, multiplicity = 1:

       Center              X                  Y                   Z               Mass
    ------------   -----------------  -----------------  -----------------  -----------------
         N           -1.752910039326     0.672112742643     0.206648610257    14.003074004430
         C           -0.895639039326    -0.365283157357    -0.116519389743    12.000000000000
         C            0.596087960674    -0.171076257357    -0.060574389743    12.000000000000
         C           -1.609308039326    -1.459680257357    -0.446335389743    12.000000000000
         C           -3.036239039326     0.203182742643     0.067148610257    12.000000000000
         C           -2.974815039326    -1.118919257357    -0.340230389743    12.000000000000
         C           -1.421043039326     2.007232742643     0.677252610257    12.000000000000
         C            1.242143960674     0.907857742643    -0.688894389743    12.000000000000
         C            1.378909960674    -1.139051257357     0.591630610257    12.000000000000
         C            2.631769960674     1.024703742643    -0.646568389743    12.000000000000
         C            2.769141960674    -1.031306257357     0.613557610257    12.000000000000
         C            3.400116960674     0.055462742643     0.002735610257    12.000000000000
         H           -1.192882039326    -2.407132257357    -0.765915389743     1.007825032230
         H           -3.882125039326     0.843312742643     0.282090610257     1.007825032230
         H           -3.825110039326    -1.758352257357    -0.539574389743     1.007825032230
         H           -2.221065039326     2.351564742643     1.335337610257     1.007825032230
         H           -0.486821039326     1.972656742643     1.238607610257     1.007825032230
         H           -1.313720039326     2.711730742643    -0.152717389743     1.007825032230
         H            0.653812960674     1.638579742643    -1.239839389743     1.007825032230
         H            0.881457960674    -1.969446257357     1.088026610257     1.007825032230
         H            3.117584960674     1.864559742643    -1.138430389743     1.007825032230
         H            3.361264960674    -1.789058257357     1.121819610257     1.007825032230
         H            4.483530960674     0.144269742643     0.028602610257     1.007825032230

  Basis Set: AUG-CC-PVTZ
    Blend: AUG-CC-PVTZ
  Basis Set: (AUG-CC-PVTZ AUX)
    Blend: AUG-CC-PVTZ-JKFIT
	 Reference Energy          =    -477.5454767337424755 [Eh]
	 Singles Energy            =      -0.0000000000000000 [Eh]
	 Same-Spin Energy          =      -0.5379809933659385 [Eh]
	 Opposite-Spin Energy      =      -1.6816634561518968 [Eh]
	 Correlation Energy        =      -2.2196444495178351 [Eh]
	 Total Energy              =    -479.7651211832603053 [Eh]

	 ================> DF-SCS-MP2 Energies <==================
	-----------------------------------------------------------
	 SCS Same-Spin Scale       =       0.3333333333333333 [-]
	 SCS Opposite-Spin Scale   =       1.2000000000000000 [-]
	 SCS Same-Spin Energy      =      -0.1793269977886462 [Eh]
	 SCS Opposite-Spin Energy  =      -2.0179961473822763 [Eh]
	 SCS Correlation Energy    =      -2.1973231451709223 [Eh]
	 SCS Total Energy          =    -479.7427998789133881 [Eh]
	-----------------------------------------------------------

  Dipole Moment: [D]
     X:     0.5131      Y:     1.8294      Z:     0.6663     Total:     2.0134

*** Psi4 exiting successfully. Buy a developer a beer!
