                               Psi4 1.4a3.dev225

  ==> Input File <==

--------------------------------------------------------------------------
#psi4
#
memory 32 gb

molecule  {
0 1
  N       -1.7531090     0.6487580     0.1985890
  C       -0.8584400    -0.3593730    -0.1157050
  C        0.5958890    -0.1944310    -0.0686340
  C       -1.6095070    -1.4830350    -0.4543950
  C       -3.0364380     0.1798280     0.0590890
  C       -2.9556640    -1.1471028    -0.3497936
  C       -1.4212420     1.9838780     0.6691930
  C        1.2419450     0.8845030    -0.6969540
  C        1.3787110    -1.1624060     0.5835710
  C        2.6315710     1.0013490    -0.6546280
  C        2.7689430    -1.0546610     0.6054980
  C        3.3999180     0.0321080    -0.0053240
  H       -1.1930810    -2.4304870    -0.7739750
  H       -3.8823240     0.8199580     0.2740310
  H       -3.8253090    -1.7817070    -0.5476340
  H       -2.2212640     2.3282100     1.3272780
  H       -0.4870200     1.9493020     1.2305480
  H       -1.3139190     2.6883760    -0.1607770
  H        0.6536140     1.6152250    -1.2478990
  H        0.8812590    -1.9928010     1.0799670
  H        3.1173860     1.8412050    -1.1464900
  H        3.3610660    -1.8124130     1.1137600
  H        4.4833320     0.1209150     0.0205430
units angstrom
no_reorient  #important for SAPT in psi4, default
symmetry c1  #important for SAPT in psi4, default
}

set PROPERTIES_ORIGIN ["COM"]
properties('MP2/aug-cc-pvtz', properties = ['dipole'])
--------------------------------------------------------------------------

    Molecular point group: c1
  Charge       = 0
  Multiplicity = 1
  Basis Set: AUG-CC-PVTZ
    Blend: AUG-CC-PVTZ
  Basis Set: (AUG-CC-PVTZ AUX)
    Blend: AUG-CC-PVTZ-JKFIT

    Orbital Energies [Eh]
    ---------------------

    Doubly Occupied:

       1A    -15.608701     2A    -11.270806     3A    -11.255925
       4A    -11.250028     5A    -11.248237     6A    -11.240601
       7A    -11.239441     8A    -11.239134     9A    -11.237814
      10A    -11.236916    11A    -11.208099    12A    -11.205568
      13A     -1.299592    14A     -1.154949    15A     -1.075654
      16A     -1.043683    17A     -1.016082    18A     -0.955042
      19A     -0.935007    20A     -0.833099    21A     -0.830428
      22A     -0.769438    23A     -0.743810    24A     -0.712310
      25A     -0.677837    26A     -0.640112    27A     -0.632102
      28A     -0.622410    29A     -0.596119    30A     -0.587075
      31A     -0.569121    32A     -0.567637    33A     -0.541856
      34A     -0.524869    35A     -0.524048    36A     -0.502119
      37A     -0.495204    38A     -0.491691    39A     -0.353711
      40A     -0.340597    41A     -0.337298    42A     -0.273430

  @DF-RHF Final Energy:  -477.54493027649937

   => Energetics <=

    Nuclear Repulsion Energy =            639.3366294283263187
    One-Electron Energy =               -1913.9879151119844209
    Two-Electron Energy =                 797.1063554071586168
    Total Energy =                       -477.5449302764993718
  Basis Set: (AUG-CC-PVTZ AUX)
    Blend: AUG-CC-PVTZ-RI
    Molecular point group: c1

    Geometry (in Angstrom), charge = 0, multiplicity = 1:

       Center              X                  Y                   Z               Mass
    ------------   -----------------  -----------------  -----------------  -----------------
         N           -1.757245004553     0.670246075204     0.206085587283    14.003074004430
         C           -0.862576004553    -0.337884924796    -0.108208412717    12.000000000000
         C            0.591752995447    -0.172942924796    -0.061137412717    12.000000000000
         C           -1.613643004553    -1.461546924796    -0.446898412717    12.000000000000
         C           -3.040574004553     0.201316075204     0.066585587283    12.000000000000
         C           -2.959800004553    -1.125614724796    -0.342297012717    12.000000000000
         C           -1.425378004553     2.005366075204     0.676689587283    12.000000000000
         C            1.237808995447     0.905991075204    -0.689457412717    12.000000000000
         C            1.374574995447    -1.140917924796     0.591067587283    12.000000000000
         C            2.627434995447     1.022837075204    -0.647131412717    12.000000000000
         C            2.764806995447    -1.033172924796     0.612994587283    12.000000000000
         C            3.395781995447     0.053596075204     0.002172587283    12.000000000000
         H           -1.197217004553    -2.408998924796    -0.766478412717     1.007825032230
         H           -3.886460004553     0.841446075204     0.281527587283     1.007825032230
         H           -3.829445004553    -1.760218924796    -0.540137412717     1.007825032230
         H           -2.225400004553     2.349698075204     1.334774587283     1.007825032230
         H           -0.491156004553     1.970790075204     1.238044587283     1.007825032230
         H           -1.318055004553     2.709864075204    -0.153280412717     1.007825032230
         H            0.649477995447     1.636713075204    -1.240402412717     1.007825032230
         H            0.877122995447    -1.971312924796     1.087463587283     1.007825032230
         H            3.113249995447     1.862693075204    -1.138993412717     1.007825032230
         H            3.356929995447    -1.790924924796     1.121256587283     1.007825032230
         H            4.479195995447     0.142403075204     0.028039587283     1.007825032230

  Basis Set: AUG-CC-PVTZ
    Blend: AUG-CC-PVTZ
  Basis Set: (AUG-CC-PVTZ AUX)
    Blend: AUG-CC-PVTZ-JKFIT
	 Reference Energy          =    -477.5449302764993718 [Eh]
	 Singles Energy            =      -0.0000000000000000 [Eh]
	 Same-Spin Energy          =      -0.5395262365821389 [Eh]
	 Opposite-Spin Energy      =      -1.6835493057610009 [Eh]
	 Correlation Energy        =      -2.2230755423431399 [Eh]
	 Total Energy              =    -479.7680058188425392 [Eh]

	 ================> DF-SCS-MP2 Energies <==================
	-----------------------------------------------------------
	 SCS Same-Spin Scale       =       0.3333333333333333 [-]
	 SCS Opposite-Spin Scale   =       1.2000000000000000 [-]
	 SCS Same-Spin Energy      =      -0.1798420788607130 [Eh]
	 SCS Opposite-Spin Energy  =      -2.0202591669132008 [Eh]
	 SCS Correlation Energy    =      -2.2001012457739137 [Eh]
	 SCS Total Energy          =    -479.7450315222732797 [Eh]
	-----------------------------------------------------------

  Dipole Moment: [D]
     X:     0.4607      Y:     1.8598      Z:     0.6764     Total:     2.0319

*** Psi4 exiting successfully. Buy a developer a beer!
