                               Psi4 1.3.2 release

  ==> Input File <==

--------------------------------------------------------------------------
#psi4
#
memory 32 gb

molecule  {
0 1
  N       -1.7531090     0.6487580     0.1985890
  C       -0.9230823    -0.2865328    -0.0929964
  C        0.5958890    -0.1944310    -0.0686340
  C       -1.6095070    -1.4830350    -0.4543950
  C       -3.0364380     0.1798280     0.0590890
  C       -2.9750140    -1.1422740    -0.3482900
  C       -1.4212420     1.9838780     0.6691930
  C        1.2419450     0.8845030    -0.6969540
  C        1.3787110    -1.1624060     0.5835710
  C        2.6315710     1.0013490    -0.6546280
  C        2.7689430    -1.0546610     0.6054980
  C        3.3999180     0.0321080    -0.0053240
  H       -1.1930810    -2.4304870    -0.7739750
  H       -3.8823240     0.8199580     0.2740310
  H       -3.8253090    -1.7817070    -0.5476340
  H       -2.2212640     2.3282100     1.3272780
  H       -0.4870200     1.9493020     1.2305480
  H       -1.3139190     2.6883760    -0.1607770
  H        0.6536140     1.6152250    -1.2478990
  H        0.8812590    -1.9928010     1.0799670
  H        3.1173860     1.8412050    -1.1464900
  H        3.3610660    -1.8124130     1.1137600
  H        4.4833320     0.1209150     0.0205430
units angstrom
no_reorient  #important for SAPT in psi4, default
symmetry c1  #important for SAPT in psi4, default
}

set PROPERTIES_ORIGIN ["COM"]
properties('MP2/aug-cc-pvtz', properties = ['dipole'])
--------------------------------------------------------------------------

    Molecular point group: c1
  Charge       = 0
  Multiplicity = 1
  Basis Set: AUG-CC-PVTZ
    Blend: AUG-CC-PVTZ
  Basis Set: (AUG-CC-PVTZ AUX)
    Blend: AUG-CC-PVTZ-JKFIT

    Orbital Energies [Eh]
    ---------------------

    Doubly Occupied:

       1A    -15.614238     2A    -11.276334     3A    -11.257976
       4A    -11.254068     5A    -11.240444     6A    -11.239851
       7A    -11.239500     8A    -11.238764     9A    -11.237985
      10A    -11.237606    11A    -11.209847    12A    -11.202154
      13A     -1.329879    14A     -1.153437    15A     -1.074400
      16A     -1.038590    17A     -1.016073    18A     -0.964443
      19A     -0.938518    20A     -0.830026    21A     -0.828516
      22A     -0.778671    23A     -0.739417    24A     -0.716904
      25A     -0.677443    26A     -0.649101    27A     -0.632450
      28A     -0.622878    29A     -0.598464    30A     -0.588144
      31A     -0.583723    32A     -0.562109    33A     -0.535952
      34A     -0.531597    35A     -0.527328    36A     -0.504047
      37A     -0.493123    38A     -0.482098    39A     -0.349370
      40A     -0.341593    41A     -0.338546    42A     -0.271883

  @DF-RHF Final Energy:  -477.53604262048924

   => Energetics <=

    Nuclear Repulsion Energy =            639.7062198726008546
    One-Electron Energy =               -1914.5895398852901508
    Two-Electron Energy =                 797.3472773921998851
    Total Energy =                       -477.5360426204892974
  Basis Set: (AUG-CC-PVTZ AUX)
    Blend: AUG-CC-PVTZ-RI
    Molecular point group: c1

    Geometry (in Angstrom), charge = 0, multiplicity = 1:

       Center              X                  Y                   Z               Mass
    ------------   -----------------  -----------------  -----------------  -----------------
         N           -1.750828854207     0.664312960131     0.204236023509    14.003074004430
         C           -0.920802154207    -0.270977839869    -0.087349376491    12.000000000000
         C            0.598169145793    -0.178876039869    -0.062986976491    12.000000000000
         C           -1.607226854207    -1.467480039869    -0.448747976491    12.000000000000
         C           -3.034157854207     0.195382960131     0.064736023509    12.000000000000
         C           -2.972733854207    -1.126719039869    -0.342642976491    12.000000000000
         C           -1.418961854207     1.999432960131     0.674840023509    12.000000000000
         C            1.244225145793     0.900057960131    -0.691306976491    12.000000000000
         C            1.380991145793    -1.146851039869     0.589218023509    12.000000000000
         C            2.633851145793     1.016903960131    -0.648980976491    12.000000000000
         C            2.771223145793    -1.039106039869     0.611145023509    12.000000000000
         C            3.402198145793     0.047662960131     0.000323023509    12.000000000000
         H           -1.190800854207    -2.414932039869    -0.768327976491     1.007825032230
         H           -3.880043854207     0.835512960131     0.279678023509     1.007825032230
         H           -3.823028854207    -1.766152039869    -0.541986976491     1.007825032230
         H           -2.218983854207     2.343764960131     1.332925023509     1.007825032230
         H           -0.484739854207     1.964856960131     1.236195023509     1.007825032230
         H           -1.311638854207     2.703930960131    -0.155129976491     1.007825032230
         H            0.655894145793     1.630779960131    -1.242251976491     1.007825032230
         H            0.883539145793    -1.977246039869     1.085614023509     1.007825032230
         H            3.119666145793     1.856759960131    -1.140842976491     1.007825032230
         H            3.363346145793    -1.796858039869     1.119407023509     1.007825032230
         H            4.485612145793     0.136469960131     0.026190023509     1.007825032230

  Basis Set: AUG-CC-PVTZ
    Blend: AUG-CC-PVTZ
  Basis Set: (AUG-CC-PVTZ AUX)
    Blend: AUG-CC-PVTZ-JKFIT
	 Reference Energy          =    -477.5360426204892406 [Eh]
	 Singles Energy            =      -0.0000000000000000 [Eh]
	 Same-Spin Energy          =      -0.5388035007130924 [Eh]
	 Opposite-Spin Energy      =      -1.6818398942393900 [Eh]
	 Correlation Energy        =      -2.2206433949524822 [Eh]
	 Total Energy              =    -479.7566860154417441 [Eh]

	 ================> DF-SCS-MP2 Energies <==================
	-----------------------------------------------------------
	 SCS Same-Spin Scale       =       0.3333333333333333 [-]
	 SCS Opposite-Spin Scale   =       1.2000000000000000 [-]
	 SCS Same-Spin Energy      =      -0.1796011669043641 [Eh]
	 SCS Opposite-Spin Energy  =      -2.0182078730872677 [Eh]
	 SCS Correlation Energy    =      -2.1978090399916317 [Eh]
	 SCS Total Energy          =    -479.7338516604808660 [Eh]
	-----------------------------------------------------------

  Dipole Moment: [D]
     X:     0.4584      Y:     2.0206      Z:     0.7438     Total:     2.2014

*** Psi4 exiting successfully. Buy a developer a beer!
