                               Psi4 1.3.2 release

  ==> Input File <==

--------------------------------------------------------------------------
#psi4
#
memory 32 gb

molecule  {
0 1
  N       -1.7531090     0.6487580     0.1985890
  C       -0.8401649    -0.3446469    -0.1099905
  C        0.5958890    -0.1944310    -0.0686340
  C       -1.6095070    -1.4830350    -0.4543950
  C       -3.0364380     0.1798280     0.0590890
  C       -2.9750140    -1.1422740    -0.3482900
  C       -1.4212420     1.9838780     0.6691930
  C        1.2419450     0.8845030    -0.6969540
  C        1.3787110    -1.1624060     0.5835710
  C        2.6315710     1.0013490    -0.6546280
  C        2.7689430    -1.0546610     0.6054980
  C        3.3999180     0.0321080    -0.0053240
  H       -1.1930810    -2.4304870    -0.7739750
  H       -3.8823240     0.8199580     0.2740310
  H       -3.8253090    -1.7817070    -0.5476340
  H       -2.2212640     2.3282100     1.3272780
  H       -0.4870200     1.9493020     1.2305480
  H       -1.3139190     2.6883760    -0.1607770
  H        0.6536140     1.6152250    -1.2478990
  H        0.8812590    -1.9928010     1.0799670
  H        3.1173860     1.8412050    -1.1464900
  H        3.3610660    -1.8124130     1.1137600
  H        4.4833320     0.1209150     0.0205430
units angstrom
no_reorient  #important for SAPT in psi4, default
symmetry c1  #important for SAPT in psi4, default
}

set PROPERTIES_ORIGIN ["COM"]
properties('MP2/aug-cc-pvtz', properties = ['dipole'])
--------------------------------------------------------------------------

    Molecular point group: c1
  Charge       = 0
  Multiplicity = 1
  Basis Set: AUG-CC-PVTZ
    Blend: AUG-CC-PVTZ
  Basis Set: (AUG-CC-PVTZ AUX)
    Blend: AUG-CC-PVTZ-JKFIT

    Orbital Energies [Eh]
    ---------------------

    Doubly Occupied:

       1A    -15.609353     2A    -11.270396     3A    -11.257437
       4A    -11.249187     5A    -11.248773     6A    -11.240757
       7A    -11.239670     8A    -11.239319     9A    -11.238077
      10A    -11.237292    11A    -11.209844    12A    -11.208512
      13A     -1.298563    14A     -1.155937    15A     -1.071138
      16A     -1.046587    17A     -1.016361    18A     -0.955240
      19A     -0.932612    20A     -0.835447    21A     -0.831081
      22A     -0.769654    23A     -0.744060    24A     -0.711860
      25A     -0.678205    26A     -0.640459    27A     -0.633256
      28A     -0.622814    29A     -0.597414    30A     -0.587378
      31A     -0.570892    32A     -0.566666    33A     -0.537882
      34A     -0.526012    35A     -0.523041    36A     -0.503699
      37A     -0.494876    38A     -0.491539    39A     -0.354532
      40A     -0.340431    41A     -0.335073    42A     -0.272239

  @DF-RHF Final Energy:  -477.54367286030458

   => Energetics <=

    Nuclear Repulsion Energy =            639.0853648825026312
    One-Electron Energy =               -1913.4709513007055648
    Two-Electron Energy =                 796.8419135578982377
    Total Energy =                       -477.5436728603045822
  Basis Set: (AUG-CC-PVTZ AUX)
    Blend: AUG-CC-PVTZ-RI
    Molecular point group: c1

    Geometry (in Angstrom), charge = 0, multiplicity = 1:

       Center              X                  Y                   Z               Mass
    ------------   -----------------  -----------------  -----------------  -----------------
         N           -1.757162893216     0.668752281388     0.205534198468    14.003074004430
         C           -0.844218793216    -0.324652618612    -0.103045301532    12.000000000000
         C            0.591835106784    -0.174436718612    -0.061688801532    12.000000000000
         C           -1.613560893216    -1.463040718612    -0.447449801532    12.000000000000
         C           -3.040491893216     0.199822281388     0.066034198468    12.000000000000
         C           -2.979067893216    -1.122279718612    -0.341344801532    12.000000000000
         C           -1.425295893216     2.003872281388     0.676138198468    12.000000000000
         C            1.237891106784     0.904497281388    -0.690008801532    12.000000000000
         C            1.374657106784    -1.142411718612     0.590516198468    12.000000000000
         C            2.627517106784     1.021343281388    -0.647682801532    12.000000000000
         C            2.764889106784    -1.034666718612     0.612443198468    12.000000000000
         C            3.395864106784     0.052102281388     0.001621198468    12.000000000000
         H           -1.197134893216    -2.410492718612    -0.767029801532     1.007825032230
         H           -3.886377893216     0.839952281388     0.280976198468     1.007825032230
         H           -3.829362893216    -1.761712718612    -0.540688801532     1.007825032230
         H           -2.225317893216     2.348204281388     1.334223198468     1.007825032230
         H           -0.491073893216     1.969296281388     1.237493198468     1.007825032230
         H           -1.317972893216     2.708370281388    -0.153831801532     1.007825032230
         H            0.649560106784     1.635219281388    -1.240953801532     1.007825032230
         H            0.877205106784    -1.972806718612     1.086912198468     1.007825032230
         H            3.113332106784     1.861199281388    -1.139544801532     1.007825032230
         H            3.357012106784    -1.792418718612     1.120705198468     1.007825032230
         H            4.479278106784     0.140909281388     0.027488198468     1.007825032230

  Basis Set: AUG-CC-PVTZ
    Blend: AUG-CC-PVTZ
  Basis Set: (AUG-CC-PVTZ AUX)
    Blend: AUG-CC-PVTZ-JKFIT
	 Reference Energy          =    -477.5436728603045822 [Eh]
	 Singles Energy            =      -0.0000000000000000 [Eh]
	 Same-Spin Energy          =      -0.5398512651418396 [Eh]
	 Opposite-Spin Energy      =      -1.6841591912041389 [Eh]
	 Correlation Energy        =      -2.2240104563459786 [Eh]
	 Total Energy              =    -479.7676833166505617 [Eh]

	 ================> DF-SCS-MP2 Energies <==================
	-----------------------------------------------------------
	 SCS Same-Spin Scale       =       0.3333333333333333 [-]
	 SCS Opposite-Spin Scale   =       1.2000000000000000 [-]
	 SCS Same-Spin Energy      =      -0.1799504217139465 [Eh]
	 SCS Opposite-Spin Energy  =      -2.0209910294449664 [Eh]
	 SCS Correlation Energy    =      -2.2009414511589132 [Eh]
	 SCS Total Energy          =    -479.7446143114635220 [Eh]
	-----------------------------------------------------------

  Dipole Moment: [D]
     X:     0.4411      Y:     1.8709      Z:     0.6806     Total:     2.0391

*** Psi4 exiting successfully. Buy a developer a beer!
