                               Psi4 1.3.2 release

  ==> Input File <==

--------------------------------------------------------------------------
#psi4
#
memory 32 gb

molecule  {
0 1
  N       -1.6378278     0.7326616     0.2242309
  C       -0.8584400    -0.3593730    -0.1157050
  C        0.5958890    -0.1944310    -0.0686340
  C       -1.6095070    -1.4830350    -0.4543950
  C       -3.0364380     0.1798280     0.0590890
  C       -2.9750140    -1.1422740    -0.3482900
  C       -1.4212420     1.9838780     0.6691930
  C        1.2419450     0.8845030    -0.6969540
  C        1.3787110    -1.1624060     0.5835710
  C        2.6315710     1.0013490    -0.6546280
  C        2.7689430    -1.0546610     0.6054980
  C        3.3999180     0.0321080    -0.0053240
  H       -1.1930810    -2.4304870    -0.7739750
  H       -3.8823240     0.8199580     0.2740310
  H       -3.8253090    -1.7817070    -0.5476340
  H       -2.2212640     2.3282100     1.3272780
  H       -0.4870200     1.9493020     1.2305480
  H       -1.3139190     2.6883760    -0.1607770
  H        0.6536140     1.6152250    -1.2478990
  H        0.8812590    -1.9928010     1.0799670
  H        3.1173860     1.8412050    -1.1464900
  H        3.3610660    -1.8124130     1.1137600
  H        4.4833320     0.1209150     0.0205430
units angstrom
no_reorient  #important for SAPT in psi4, default
symmetry c1  #important for SAPT in psi4, default
}

set PROPERTIES_ORIGIN ["COM"]
properties('MP2/aug-cc-pvtz', properties = ['dipole'])
--------------------------------------------------------------------------

    Molecular point group: c1
  Charge       = 0
  Multiplicity = 1
  Basis Set: AUG-CC-PVTZ
    Blend: AUG-CC-PVTZ
  Basis Set: (AUG-CC-PVTZ AUX)
    Blend: AUG-CC-PVTZ-JKFIT

    Orbital Energies [Eh]
    ---------------------

    Doubly Occupied:

       1A    -15.601990     2A    -11.269893     3A    -11.258720
       4A    -11.256623     5A    -11.248250     6A    -11.241147
       7A    -11.240084     8A    -11.239579     9A    -11.238448
      10A    -11.237401    11A    -11.222320    12A    -11.209681
      13A     -1.289601    14A     -1.155098    15A     -1.093829
      16A     -1.041840    17A     -1.016601    18A     -0.954949
      19A     -0.923290    20A     -0.833494    21A     -0.830749
      22A     -0.768071    23A     -0.747680    24A     -0.713513
      25A     -0.675181    26A     -0.644247    27A     -0.631634
      28A     -0.624808    29A     -0.605295    30A     -0.597208
      31A     -0.587442    32A     -0.557757    33A     -0.536750
      34A     -0.516978    35A     -0.513142    36A     -0.497214
      37A     -0.490659    38A     -0.483623    39A     -0.353011
      40A     -0.341634    41A     -0.337727    42A     -0.275777

  @DF-RHF Final Energy:  -477.51629619207267

   => Energetics <=

    Nuclear Repulsion Energy =            638.9481649551637474
    One-Electron Energy =               -1913.1230518995430430
    Two-Electron Energy =                 796.6585907523066226
    Total Energy =                       -477.5162961920726730
  Basis Set: (AUG-CC-PVTZ AUX)
    Blend: AUG-CC-PVTZ-RI
    Molecular point group: c1

    Geometry (in Angstrom), charge = 0, multiplicity = 1:

       Center              X                  Y                   Z               Mass
    ------------   -----------------  -----------------  -----------------  -----------------
         N           -1.650761937209     0.746301558864     0.229326884665    14.003074004430
         C           -0.871374137209    -0.345733041136    -0.110609015335    12.000000000000
         C            0.582954862791    -0.180791041136    -0.063538015335    12.000000000000
         C           -1.622441137209    -1.469395041136    -0.449299015335    12.000000000000
         C           -3.049372137209     0.193467958864     0.064184984665    12.000000000000
         C           -2.987948137209    -1.128634041136    -0.343194015335    12.000000000000
         C           -1.434176137209     1.997517958864     0.674288984665    12.000000000000
         C            1.229010862791     0.898142958864    -0.691858015335    12.000000000000
         C            1.365776862791    -1.148766041136     0.588666984665    12.000000000000
         C            2.618636862791     1.014988958864    -0.649532015335    12.000000000000
         C            2.756008862791    -1.041021041136     0.610593984665    12.000000000000
         C            3.386983862791     0.045747958864    -0.000228015335    12.000000000000
         H           -1.206015137209    -2.416847041136    -0.768879015335     1.007825032230
         H           -3.895258137209     0.833597958864     0.279126984665     1.007825032230
         H           -3.838243137209    -1.768067041136    -0.542538015335     1.007825032230
         H           -2.234198137209     2.341849958864     1.332373984665     1.007825032230
         H           -0.499954137209     1.962941958864     1.235643984665     1.007825032230
         H           -1.326853137209     2.702015958864    -0.155681015335     1.007825032230
         H            0.640679862791     1.628864958864    -1.242803015335     1.007825032230
         H            0.868324862791    -1.979161041136     1.085062984665     1.007825032230
         H            3.104451862791     1.854844958864    -1.141394015335     1.007825032230
         H            3.348131862791    -1.798773041136     1.118855984665     1.007825032230
         H            4.470397862791     0.134554958864     0.025638984665     1.007825032230

  Basis Set: AUG-CC-PVTZ
    Blend: AUG-CC-PVTZ
  Basis Set: (AUG-CC-PVTZ AUX)
    Blend: AUG-CC-PVTZ-JKFIT
	 Reference Energy          =    -477.5162961920726730 [Eh]
	 Singles Energy            =      -0.0000000000000000 [Eh]
	 Same-Spin Energy          =      -0.5398936418133445 [Eh]
	 Opposite-Spin Energy      =      -1.6862324652183902 [Eh]
	 Correlation Energy        =      -2.2261261070317349 [Eh]
	 Total Energy              =    -479.7424222991044189 [Eh]

	 ================> DF-SCS-MP2 Energies <==================
	-----------------------------------------------------------
	 SCS Same-Spin Scale       =       0.3333333333333333 [-]
	 SCS Opposite-Spin Scale   =       1.2000000000000000 [-]
	 SCS Same-Spin Energy      =      -0.1799645472711148 [Eh]
	 SCS Opposite-Spin Energy  =      -2.0234789582620683 [Eh]
	 SCS Correlation Energy    =      -2.2034435055331829 [Eh]
	 SCS Total Energy          =    -479.7197396976058599 [Eh]
	-----------------------------------------------------------

  Dipole Moment: [D]
     X:     0.3004      Y:     1.4394      Z:     0.5525     Total:     1.5707

*** Psi4 exiting successfully. Buy a developer a beer!
