                               Psi4 1.3.2 release

  ==> Input File <==

--------------------------------------------------------------------------
#psi4
#
memory 32 gb

molecule  {
0 1
  N       -1.7531090     0.6487580     0.1985890
  C       -0.8584400    -0.3593730    -0.1157050
  C        0.5958890    -0.1944310    -0.0686340
  C       -1.6095070    -1.4830350    -0.4543950
  C       -3.0364380     0.1798280     0.0590890
  C       -2.8782640    -1.1664179    -0.3558078
  C       -1.4212420     1.9838780     0.6691930
  C        1.2419450     0.8845030    -0.6969540
  C        1.3787110    -1.1624060     0.5835710
  C        2.6315710     1.0013490    -0.6546280
  C        2.7689430    -1.0546610     0.6054980
  C        3.3999180     0.0321080    -0.0053240
  H       -1.1930810    -2.4304870    -0.7739750
  H       -3.8823240     0.8199580     0.2740310
  H       -3.8253090    -1.7817070    -0.5476340
  H       -2.2212640     2.3282100     1.3272780
  H       -0.4870200     1.9493020     1.2305480
  H       -1.3139190     2.6883760    -0.1607770
  H        0.6536140     1.6152250    -1.2478990
  H        0.8812590    -1.9928010     1.0799670
  H        3.1173860     1.8412050    -1.1464900
  H        3.3610660    -1.8124130     1.1137600
  H        4.4833320     0.1209150     0.0205430
units angstrom
no_reorient  #important for SAPT in psi4, default
symmetry c1  #important for SAPT in psi4, default
}

set PROPERTIES_ORIGIN ["COM"]
properties('MP2/aug-cc-pvtz', properties = ['dipole'])
--------------------------------------------------------------------------

    Molecular point group: c1
  Charge       = 0
  Multiplicity = 1
  Basis Set: AUG-CC-PVTZ
    Blend: AUG-CC-PVTZ
  Basis Set: (AUG-CC-PVTZ AUX)
    Blend: AUG-CC-PVTZ-JKFIT

    Orbital Energies [Eh]
    ---------------------

    Doubly Occupied:

       1A    -15.613672     2A    -11.271495     3A    -11.253813
       4A    -11.249509     5A    -11.247297     6A    -11.240156
       7A    -11.239036     8A    -11.238543     9A    -11.237236
      10A    -11.236374    11A    -11.207452    12A    -11.198832
      13A     -1.302827    14A     -1.154458    15A     -1.086819
      16A     -1.042709    17A     -1.015702    18A     -0.952221
      19A     -0.941612    20A     -0.832542    21A     -0.829369
      22A     -0.764080    23A     -0.747217    24A     -0.712885
      25A     -0.677445    26A     -0.640723    27A     -0.632423
      28A     -0.622131    29A     -0.594750    30A     -0.586750
      31A     -0.572710    32A     -0.563687    33A     -0.556353
      34A     -0.528241    35A     -0.507937    36A     -0.501841
      37A     -0.494475    38A     -0.490372    39A     -0.354076
      40A     -0.348574    41A     -0.339205    42A     -0.266195

  @DF-RHF Final Energy:  -477.52957662342573

   => Energetics <=

    Nuclear Repulsion Energy =            640.5532760080204753
    One-Electron Energy =               -1916.3782194697903378
    Two-Electron Energy =                 798.2953668383440800
    Total Energy =                       -477.5295766234257826
  Basis Set: (AUG-CC-PVTZ AUX)
    Blend: AUG-CC-PVTZ-RI
    Molecular point group: c1

    Geometry (in Angstrom), charge = 0, multiplicity = 1:

       Center              X                  Y                   Z               Mass
    ------------   -----------------  -----------------  -----------------  -----------------
         N           -1.763157570785     0.671721550760     0.206545010485    14.003074004430
         C           -0.868488570785    -0.336409449240    -0.107748989515    12.000000000000
         C            0.585840429215    -0.171467449240    -0.060677989515    12.000000000000
         C           -1.619555570785    -1.460071449240    -0.446438989515    12.000000000000
         C           -3.046486570785     0.202791550760     0.067045010485    12.000000000000
         C           -2.888312570785    -1.143454349240    -0.347851789515    12.000000000000
         C           -1.431290570785     2.006841550760     0.677149010485    12.000000000000
         C            1.231896429215     0.907466550760    -0.688997989515    12.000000000000
         C            1.368662429215    -1.139442449240     0.591527010485    12.000000000000
         C            2.621522429215     1.024312550760    -0.646671989515    12.000000000000
         C            2.758894429215    -1.031697449240     0.613454010485    12.000000000000
         C            3.389869429215     0.055071550760     0.002632010485    12.000000000000
         H           -1.203129570785    -2.407523449240    -0.766018989515     1.007825032230
         H           -3.892372570785     0.842921550760     0.281987010485     1.007825032230
         H           -3.835357570785    -1.758743449240    -0.539677989515     1.007825032230
         H           -2.231312570785     2.351173550760     1.335234010485     1.007825032230
         H           -0.497068570785     1.972265550760     1.238504010485     1.007825032230
         H           -1.323967570785     2.711339550760    -0.152820989515     1.007825032230
         H            0.643565429215     1.638188550760    -1.239942989515     1.007825032230
         H            0.871210429215    -1.969837449240     1.087923010485     1.007825032230
         H            3.107337429215     1.864168550760    -1.138533989515     1.007825032230
         H            3.351017429215    -1.789449449240     1.121716010485     1.007825032230
         H            4.473283429215     0.143878550760     0.028499010485     1.007825032230

  Basis Set: AUG-CC-PVTZ
    Blend: AUG-CC-PVTZ
  Basis Set: (AUG-CC-PVTZ AUX)
    Blend: AUG-CC-PVTZ-JKFIT
	 Reference Energy          =    -477.5295766234257258 [Eh]
	 Singles Energy            =      -0.0000000000000000 [Eh]
	 Same-Spin Energy          =      -0.5410847674773216 [Eh]
	 Opposite-Spin Energy      =      -1.6854068851976360 [Eh]
	 Correlation Energy        =      -2.2264916526749579 [Eh]
	 Total Energy              =    -479.7560682761006774 [Eh]

	 ================> DF-SCS-MP2 Energies <==================
	-----------------------------------------------------------
	 SCS Same-Spin Scale       =       0.3333333333333333 [-]
	 SCS Opposite-Spin Scale   =       1.2000000000000000 [-]
	 SCS Same-Spin Energy      =      -0.1803615891591072 [Eh]
	 SCS Opposite-Spin Energy  =      -2.0224882622371632 [Eh]
	 SCS Correlation Energy    =      -2.2028498513962704 [Eh]
	 SCS Total Energy          =    -479.7324264748219775 [Eh]
	-----------------------------------------------------------

  Dipole Moment: [D]
     X:     0.4332      Y:     1.8587      Z:     0.6734     Total:     2.0238

*** Psi4 exiting successfully. Buy a developer a beer!
