                               Psi4 1.3.2 release

  ==> Input File <==

--------------------------------------------------------------------------
#psi4
#
memory 32 gb

molecule  {
0 1
  N       -1.7090160     0.5186860     0.1561194
  C       -0.8584400    -0.3593730    -0.1157050
  C        0.5958890    -0.1944310    -0.0686340
  C       -1.6095070    -1.4830350    -0.4543950
  C       -3.0364380     0.1798280     0.0590890
  C       -2.9750140    -1.1422740    -0.3482900
  C       -1.4212420     1.9838780     0.6691930
  C        1.2419450     0.8845030    -0.6969540
  C        1.3787110    -1.1624060     0.5835710
  C        2.6315710     1.0013490    -0.6546280
  C        2.7689430    -1.0546610     0.6054980
  C        3.3999180     0.0321080    -0.0053240
  H       -1.1930810    -2.4304870    -0.7739750
  H       -3.8823240     0.8199580     0.2740310
  H       -3.8253090    -1.7817070    -0.5476340
  H       -2.2212640     2.3282100     1.3272780
  H       -0.4870200     1.9493020     1.2305480
  H       -1.3139190     2.6883760    -0.1607770
  H        0.6536140     1.6152250    -1.2478990
  H        0.8812590    -1.9928010     1.0799670
  H        3.1173860     1.8412050    -1.1464900
  H        3.3610660    -1.8124130     1.1137600
  H        4.4833320     0.1209150     0.0205430
units angstrom
no_reorient  #important for SAPT in psi4, default
symmetry c1  #important for SAPT in psi4, default
}

set PROPERTIES_ORIGIN ["COM"]
properties('MP2/aug-cc-pvtz', properties = ['dipole'])
--------------------------------------------------------------------------

    Molecular point group: c1
  Charge       = 0
  Multiplicity = 1
  Basis Set: AUG-CC-PVTZ
    Blend: AUG-CC-PVTZ
  Basis Set: (AUG-CC-PVTZ AUX)
    Blend: AUG-CC-PVTZ-JKFIT

    Orbital Energies [Eh]
    ---------------------

    Doubly Occupied:

       1A    -15.611027     2A    -11.282619     3A    -11.252188
       4A    -11.246273     5A    -11.242564     6A    -11.241459
       7A    -11.240818     8A    -11.239632     9A    -11.238698
      10A    -11.236692    11A    -11.205264    12A    -11.192155
      13A     -1.327697    14A     -1.156478    15A     -1.051014
      16A     -1.048924    17A     -1.017507    18A     -0.975655
      19A     -0.930374    20A     -0.837081    21A     -0.832151
      22A     -0.775188    23A     -0.739107    24A     -0.708454
      25A     -0.681260    26A     -0.642794    27A     -0.636937
      28A     -0.620953    29A     -0.594901    30A     -0.591220
      31A     -0.586598    32A     -0.547096    33A     -0.538178
      34A     -0.532436    35A     -0.519376    36A     -0.505290
      37A     -0.494698    38A     -0.490215    39A     -0.353533
      40A     -0.341552    41A     -0.332967    42A     -0.274396

  @DF-RHF Final Energy:  -477.51764854989324

   => Energetics <=

    Nuclear Repulsion Energy =            641.1586493716753239
    One-Electron Energy =               -1917.5257627803837295
    Two-Electron Energy =                 798.8494648588152813
    Total Energy =                       -477.5176485498932379
  Basis Set: (AUG-CC-PVTZ AUX)
    Blend: AUG-CC-PVTZ-RI
    Molecular point group: c1

    Geometry (in Angstrom), charge = 0, multiplicity = 1:

       Center              X                  Y                   Z               Mass
    ------------   -----------------  -----------------  -----------------  -----------------
         N           -1.715604354340     0.551399944395     0.167286907612    14.003074004430
         C           -0.865028354340    -0.326659055605    -0.104537492388    12.000000000000
         C            0.589300645660    -0.161717055605    -0.057466492388    12.000000000000
         C           -1.616095354340    -1.450321055605    -0.443227492388    12.000000000000
         C           -3.043026354340     0.212541944395     0.070256507612    12.000000000000
         C           -2.981602354340    -1.109560055605    -0.337122492388    12.000000000000
         C           -1.427830354340     2.016591944395     0.680360507612    12.000000000000
         C            1.235356645660     0.917216944395    -0.685786492388    12.000000000000
         C            1.372122645660    -1.129692055605     0.594738507612    12.000000000000
         C            2.624982645660     1.034062944395    -0.643460492388    12.000000000000
         C            2.762354645660    -1.021947055605     0.616665507612    12.000000000000
         C            3.393329645660     0.064821944395     0.005843507612    12.000000000000
         H           -1.199669354340    -2.397773055605    -0.762807492388     1.007825032230
         H           -3.888912354340     0.852671944395     0.285198507612     1.007825032230
         H           -3.831897354340    -1.748993055605    -0.536466492388     1.007825032230
         H           -2.227852354340     2.360923944395     1.338445507612     1.007825032230
         H           -0.493608354340     1.982015944395     1.241715507612     1.007825032230
         H           -1.320507354340     2.721089944395    -0.149609492388     1.007825032230
         H            0.647025645660     1.647938944395    -1.236731492388     1.007825032230
         H            0.874670645660    -1.960087055605     1.091134507612     1.007825032230
         H            3.110797645660     1.873918944395    -1.135322492388     1.007825032230
         H            3.354477645660    -1.779699055605     1.124927507612     1.007825032230
         H            4.476743645660     0.153628944395     0.031710507612     1.007825032230

  Basis Set: AUG-CC-PVTZ
    Blend: AUG-CC-PVTZ
  Basis Set: (AUG-CC-PVTZ AUX)
    Blend: AUG-CC-PVTZ-JKFIT
	 Reference Energy          =    -477.5176485498932379 [Eh]
	 Singles Energy            =      -0.0000000000000000 [Eh]
	 Same-Spin Energy          =      -0.5396706477093806 [Eh]
	 Opposite-Spin Energy      =      -1.6834794301740099 [Eh]
	 Correlation Energy        =      -2.2231500778833904 [Eh]
	 Total Energy              =    -479.7407986277766554 [Eh]

	 ================> DF-SCS-MP2 Energies <==================
	-----------------------------------------------------------
	 SCS Same-Spin Scale       =       0.3333333333333333 [-]
	 SCS Opposite-Spin Scale   =       1.2000000000000000 [-]
	 SCS Same-Spin Energy      =      -0.1798902159031268 [Eh]
	 SCS Opposite-Spin Energy  =      -2.0201753162088116 [Eh]
	 SCS Correlation Energy    =      -2.2000655321119384 [Eh]
	 SCS Total Energy          =    -479.7177140820051591 [Eh]
	-----------------------------------------------------------

  Dipole Moment: [D]
     X:     0.6038      Y:     2.2617      Z:     0.8013     Total:     2.4743

*** Psi4 exiting successfully. Buy a developer a beer!
