                               Psi4 1.4a3.dev225

  ==> Input File <==

--------------------------------------------------------------------------
#psi4
#
memory 32 gb

molecule  {
0 1
  N       -1.7531090     0.6487580     0.1985890
  C       -0.8584400    -0.3593730    -0.1157050
  C        0.5958890    -0.1944310    -0.0686340
  C       -1.6095070    -1.4830350    -0.4543950
  C       -3.0364380     0.1798280     0.0590890
  C       -2.9750140    -1.1422740    -0.3482900
  C       -1.4212420     1.9838780     0.6691930
  C        1.2649232     0.9228774    -0.7193014
  C        1.3787110    -1.1624060     0.5835710
  C        2.6315710     1.0013490    -0.6546280
  C        2.7689430    -1.0546610     0.6054980
  C        3.3999180     0.0321080    -0.0053240
  H       -1.1930810    -2.4304870    -0.7739750
  H       -3.8823240     0.8199580     0.2740310
  H       -3.8253090    -1.7817070    -0.5476340
  H       -2.2212640     2.3282100     1.3272780
  H       -0.4870200     1.9493020     1.2305480
  H       -1.3139190     2.6883760    -0.1607770
  H        0.6536140     1.6152250    -1.2478990
  H        0.8812590    -1.9928010     1.0799670
  H        3.1173860     1.8412050    -1.1464900
  H        3.3610660    -1.8124130     1.1137600
  H        4.4833320     0.1209150     0.0205430
units angstrom
no_reorient  #important for SAPT in psi4, default
symmetry c1  #important for SAPT in psi4, default
}

set PROPERTIES_ORIGIN ["COM"]
properties('MP2/aug-cc-pvtz', properties = ['dipole'])
--------------------------------------------------------------------------

    Molecular point group: c1
  Charge       = 0
  Multiplicity = 1
  Basis Set: AUG-CC-PVTZ
    Blend: AUG-CC-PVTZ
  Basis Set: (AUG-CC-PVTZ AUX)
    Blend: AUG-CC-PVTZ-JKFIT

    Orbital Energies [Eh]
    ---------------------

    Doubly Occupied:

       1A    -15.607766     2A    -11.270953     3A    -11.256831
       4A    -11.254751     5A    -11.248962     6A    -11.240225
       7A    -11.239812     8A    -11.238278     9A    -11.237125
      10A    -11.236641    11A    -11.208657    12A    -11.207334
      13A     -1.299049    14A     -1.152312    15A     -1.073682
      16A     -1.041147    17A     -1.019647    18A     -0.954647
      19A     -0.933632    20A     -0.836253    21A     -0.827524
      22A     -0.770850    23A     -0.741561    24A     -0.712247
      25A     -0.681151    26A     -0.641215    27A     -0.631842
      28A     -0.619367    29A     -0.596343    30A     -0.591213
      31A     -0.569951    32A     -0.567389    33A     -0.537919
      34A     -0.527779    35A     -0.524074    36A     -0.504788
      37A     -0.496057    38A     -0.485791    39A     -0.351333
      40A     -0.343146    41A     -0.335515    42A     -0.273713

  @DF-RHF Final Energy:  -477.54276559989933

   => Energetics <=

    Nuclear Repulsion Energy =            638.3273393204588047
    One-Electron Energy =               -1911.9632637349927791
    Two-Electron Energy =                 796.0931588146346485
    Total Energy =                       -477.5427655998993259
  Basis Set: (AUG-CC-PVTZ AUX)
    Blend: AUG-CC-PVTZ-RI
    Molecular point group: c1

    Geometry (in Angstrom), charge = 0, multiplicity = 1:

       Center              X                  Y                   Z               Mass
    ------------   -----------------  -----------------  -----------------  -----------------
         N           -1.757522161824     0.666945793790     0.207677839842    14.003074004430
         C           -0.862853161824    -0.341185206210    -0.106616160158    12.000000000000
         C            0.591475838176    -0.176243206210    -0.059545160158    12.000000000000
         C           -1.613920161824    -1.464847206210    -0.445306160158    12.000000000000
         C           -3.040851161824     0.198015793790     0.068177839842    12.000000000000
         C           -2.979427161824    -1.124086206210    -0.339201160158    12.000000000000
         C           -1.425655161824     2.002065793790     0.678281839842    12.000000000000
         C            1.260510038176     0.941065193790    -0.710212560158    12.000000000000
         C            1.374297838176    -1.144218206210     0.592659839842    12.000000000000
         C            2.627157838176     1.019536793790    -0.645539160158    12.000000000000
         C            2.764529838176    -1.036473206210     0.614586839842    12.000000000000
         C            3.395504838176     0.050295793790     0.003764839842    12.000000000000
         H           -1.197494161824    -2.412299206210    -0.764886160158     1.007825032230
         H           -3.886737161824     0.838145793790     0.283119839842     1.007825032230
         H           -3.829722161824    -1.763519206210    -0.538545160158     1.007825032230
         H           -2.225677161824     2.346397793790     1.336366839842     1.007825032230
         H           -0.491433161824     1.967489793790     1.239636839842     1.007825032230
         H           -1.318332161824     2.706563793790    -0.151688160158     1.007825032230
         H            0.649200838176     1.633412793790    -1.238810160158     1.007825032230
         H            0.876845838176    -1.974613206210     1.089055839842     1.007825032230
         H            3.112972838176     1.859392793790    -1.137401160158     1.007825032230
         H            3.356652838176    -1.794225206210     1.122848839842     1.007825032230
         H            4.478918838176     0.139102793790     0.029631839842     1.007825032230

  Basis Set: AUG-CC-PVTZ
    Blend: AUG-CC-PVTZ
  Basis Set: (AUG-CC-PVTZ AUX)
    Blend: AUG-CC-PVTZ-JKFIT
	 Reference Energy          =    -477.5427655998993259 [Eh]
	 Singles Energy            =      -0.0000000000000000 [Eh]
	 Same-Spin Energy          =      -0.5391587985091999 [Eh]
	 Opposite-Spin Energy      =      -1.6834223115241893 [Eh]
	 Correlation Energy        =      -2.2225811100333894 [Eh]
	 Total Energy              =    -479.7653467099327145 [Eh]

	 ================> DF-SCS-MP2 Energies <==================
	-----------------------------------------------------------
	 SCS Same-Spin Scale       =       0.3333333333333333 [-]
	 SCS Opposite-Spin Scale   =       1.2000000000000000 [-]
	 SCS Same-Spin Energy      =      -0.1797195995030666 [Eh]
	 SCS Opposite-Spin Energy  =      -2.0201067738290273 [Eh]
	 SCS Correlation Energy    =      -2.1998263733320940 [Eh]
	 SCS Total Energy          =    -479.7425919732314128 [Eh]
	-----------------------------------------------------------

  Dipole Moment: [D]
     X:     0.4306      Y:     1.8524      Z:     0.6763     Total:     2.0185

*** Psi4 exiting successfully. Buy a developer a beer!
