                               Psi4 1.3.2 release

  ==> Input File <==

--------------------------------------------------------------------------
#psi4
#
memory 32 gb

molecule  {
0 1
  N       -1.7531090     0.6487580     0.1985890
  C       -0.8584400    -0.3593730    -0.1157050
  C        0.5958890    -0.1944310    -0.0686340
  C       -1.6095070    -1.4830350    -0.4543950
  C       -3.0673813     0.2650326     0.0902740
  C       -2.9750140    -1.1422740    -0.3482900
  C       -1.4212420     1.9838780     0.6691930
  C        1.2419450     0.8845030    -0.6969540
  C        1.3787110    -1.1624060     0.5835710
  C        2.6315710     1.0013490    -0.6546280
  C        2.7689430    -1.0546610     0.6054980
  C        3.3999180     0.0321080    -0.0053240
  H       -1.1930810    -2.4304870    -0.7739750
  H       -3.8823240     0.8199580     0.2740310
  H       -3.8253090    -1.7817070    -0.5476340
  H       -2.2212640     2.3282100     1.3272780
  H       -0.4870200     1.9493020     1.2305480
  H       -1.3139190     2.6883760    -0.1607770
  H        0.6536140     1.6152250    -1.2478990
  H        0.8812590    -1.9928010     1.0799670
  H        3.1173860     1.8412050    -1.1464900
  H        3.3610660    -1.8124130     1.1137600
  H        4.4833320     0.1209150     0.0205430
units angstrom
no_reorient  #important for SAPT in psi4, default
symmetry c1  #important for SAPT in psi4, default
}

set PROPERTIES_ORIGIN ["COM"]
properties('MP2/aug-cc-pvtz', properties = ['dipole'])
--------------------------------------------------------------------------

    Molecular point group: c1
  Charge       = 0
  Multiplicity = 1
  Basis Set: AUG-CC-PVTZ
    Blend: AUG-CC-PVTZ
  Basis Set: (AUG-CC-PVTZ AUX)
    Blend: AUG-CC-PVTZ-JKFIT

    Orbital Energies [Eh]
    ---------------------

    Doubly Occupied:

       1A    -15.615171     2A    -11.269742     3A    -11.257961
       4A    -11.251389     5A    -11.251328     6A    -11.241256
       7A    -11.240172     8A    -11.239849     9A    -11.238539
      10A    -11.237831    11A    -11.218035    12A    -11.210267
      13A     -1.297859    14A     -1.155841    15A     -1.069037
      16A     -1.040811    17A     -1.016738    18A     -0.957178
      19A     -0.931637    20A     -0.836144    21A     -0.830779
      22A     -0.773670    23A     -0.747475    24A     -0.710837
      25A     -0.683804    26A     -0.645216    27A     -0.637152
      28A     -0.623163    29A     -0.599926    30A     -0.587954
      31A     -0.575227    32A     -0.562640    33A     -0.543579
      34A     -0.522056    35A     -0.512308    36A     -0.503391
      37A     -0.494972    38A     -0.491532    39A     -0.354838
      40A     -0.340633    41A     -0.332760    42A     -0.269176

  @DF-RHF Final Energy:  -477.52893552235338

   => Energetics <=

    Nuclear Repulsion Energy =            637.8359919326385352
    One-Electron Energy =               -1910.8901097301989012
    Two-Electron Energy =                 795.5251822752069302
    Total Energy =                       -477.5289355223534358
  Basis Set: (AUG-CC-PVTZ AUX)
    Blend: AUG-CC-PVTZ-RI
    Molecular point group: c1

    Geometry (in Angstrom), charge = 0, multiplicity = 1:

       Center              X                  Y                   Z               Mass
    ------------   -----------------  -----------------  -----------------  -----------------
         N           -1.753403112210     0.663368446772     0.203588513478    14.003074004430
         C           -0.858734112210    -0.344762553228    -0.110705486522    12.000000000000
         C            0.595594887790    -0.179820553228    -0.063634486522    12.000000000000
         C           -1.609801112210    -1.468424553228    -0.449395486522    12.000000000000
         C           -3.067675412210     0.279643046772     0.095273513478    12.000000000000
         C           -2.975308112210    -1.127663553228    -0.343290486522    12.000000000000
         C           -1.421536112210     1.998488446772     0.674192513478    12.000000000000
         C            1.241650887790     0.899113446772    -0.691954486522    12.000000000000
         C            1.378416887790    -1.147795553228     0.588570513478    12.000000000000
         C            2.631276887790     1.015959446772    -0.649628486522    12.000000000000
         C            2.768648887790    -1.040050553228     0.610497513478    12.000000000000
         C            3.399623887790     0.046718446772    -0.000324486522    12.000000000000
         H           -1.193375112210    -2.415876553228    -0.768975486522     1.007825032230
         H           -3.882618112210     0.834568446772     0.279030513478     1.007825032230
         H           -3.825603112210    -1.767096553228    -0.542634486522     1.007825032230
         H           -2.221558112210     2.342820446772     1.332277513478     1.007825032230
         H           -0.487314112210     1.963912446772     1.235547513478     1.007825032230
         H           -1.314213112210     2.702986446772    -0.155777486522     1.007825032230
         H            0.653319887790     1.629835446772    -1.242899486522     1.007825032230
         H            0.880964887790    -1.978190553228     1.084966513478     1.007825032230
         H            3.117091887790     1.855815446772    -1.141490486522     1.007825032230
         H            3.360771887790    -1.797802553228     1.118759513478     1.007825032230
         H            4.483037887790     0.135525446772     0.025542513478     1.007825032230

  Basis Set: AUG-CC-PVTZ
    Blend: AUG-CC-PVTZ
  Basis Set: (AUG-CC-PVTZ AUX)
    Blend: AUG-CC-PVTZ-JKFIT
	 Reference Energy          =    -477.5289355223533789 [Eh]
	 Singles Energy            =      -0.0000000000000000 [Eh]
	 Same-Spin Energy          =      -0.5406039605722973 [Eh]
	 Opposite-Spin Energy      =      -1.6860690074330424 [Eh]
	 Correlation Energy        =      -2.2266729680053396 [Eh]
	 Total Energy              =    -479.7556084903587248 [Eh]

	 ================> DF-SCS-MP2 Energies <==================
	-----------------------------------------------------------
	 SCS Same-Spin Scale       =       0.3333333333333333 [-]
	 SCS Opposite-Spin Scale   =       1.2000000000000000 [-]
	 SCS Same-Spin Energy      =      -0.1802013201907658 [Eh]
	 SCS Opposite-Spin Energy  =      -2.0232828089196508 [Eh]
	 SCS Correlation Energy    =      -2.2034841291104166 [Eh]
	 SCS Total Energy          =    -479.7324196514637720 [Eh]
	-----------------------------------------------------------

  Dipole Moment: [D]
     X:     0.6037      Y:     1.8723      Z:     0.6731     Total:     2.0792

*** Psi4 exiting successfully. Buy a developer a beer!
