                               Psi4 1.3.2 release

  ==> Input File <==

--------------------------------------------------------------------------
#psi4
#
memory 32 gb

molecule  {
0 1
  N       -1.7531090     0.6487580     0.1985890
  C       -0.8769876    -0.3737920    -0.1213238
  C        0.5958890    -0.1944310    -0.0686340
  C       -1.6095070    -1.4830350    -0.4543950
  C       -3.0364380     0.1798280     0.0590890
  C       -2.9750140    -1.1422740    -0.3482900
  C       -1.4212420     1.9838780     0.6691930
  C        1.2419450     0.8845030    -0.6969540
  C        1.3787110    -1.1624060     0.5835710
  C        2.6315710     1.0013490    -0.6546280
  C        2.7689430    -1.0546610     0.6054980
  C        3.3999180     0.0321080    -0.0053240
  H       -1.1930810    -2.4304870    -0.7739750
  H       -3.8823240     0.8199580     0.2740310
  H       -3.8253090    -1.7817070    -0.5476340
  H       -2.2212640     2.3282100     1.3272780
  H       -0.4870200     1.9493020     1.2305480
  H       -1.3139190     2.6883760    -0.1607770
  H        0.6536140     1.6152250    -1.2478990
  H        0.8812590    -1.9928010     1.0799670
  H        3.1173860     1.8412050    -1.1464900
  H        3.3610660    -1.8124130     1.1137600
  H        4.4833320     0.1209150     0.0205430
units angstrom
no_reorient  #important for SAPT in psi4, default
symmetry c1  #important for SAPT in psi4, default
}

set PROPERTIES_ORIGIN ["COM"]
properties('MP2/aug-cc-pvtz', properties = ['dipole'])
--------------------------------------------------------------------------

    Molecular point group: c1
  Charge       = 0
  Multiplicity = 1
  Basis Set: AUG-CC-PVTZ
    Blend: AUG-CC-PVTZ
  Basis Set: (AUG-CC-PVTZ AUX)
    Blend: AUG-CC-PVTZ-JKFIT

    Orbital Energies [Eh]
    ---------------------

    Doubly Occupied:

       1A    -15.605907     2A    -11.270962     3A    -11.255492
       4A    -11.251064     5A    -11.248369     6A    -11.240650
       7A    -11.239457     8A    -11.239140     9A    -11.237799
      10A    -11.236780    11A    -11.207579    12A    -11.204746
      13A     -1.299303    14A     -1.154244    15A     -1.075887
      16A     -1.041344    17A     -1.015974    18A     -0.956751
      19A     -0.934100    20A     -0.831238    21A     -0.830100
      22A     -0.771985    23A     -0.742084    24A     -0.712660
      25A     -0.677554    26A     -0.639609    27A     -0.630923
      28A     -0.622168    29A     -0.596113    30A     -0.586964
      31A     -0.571936    32A     -0.566699    33A     -0.538309
      34A     -0.528362    35A     -0.524519    36A     -0.501093
      37A     -0.494123    38A     -0.491653    39A     -0.353487
      40A     -0.340108    41A     -0.335631    42A     -0.277935

  @DF-RHF Final Energy:  -477.54661643467000

   => Energetics <=

    Nuclear Repulsion Energy =            639.0149978415921623
    One-Electron Energy =               -1913.3616303988198979
    Two-Electron Energy =                 796.8000161225576221
    Total Energy =                       -477.5466164346699998
  Basis Set: (AUG-CC-PVTZ AUX)
    Blend: AUG-CC-PVTZ-RI
    Molecular point group: c1

    Geometry (in Angstrom), charge = 0, multiplicity = 1:

       Center              X                  Y                   Z               Mass
    ------------   -----------------  -----------------  -----------------  -----------------
         N           -1.754350016568     0.670978668133     0.206399946360    14.003074004430
         C           -0.878228616568    -0.351571331867    -0.113512853640    12.000000000000
         C            0.594647983432    -0.172210331867    -0.060823053640    12.000000000000
         C           -1.610748016568    -1.460814331867    -0.446584053640    12.000000000000
         C           -3.037679016568     0.202048668133     0.066899946360    12.000000000000
         C           -2.976255016568    -1.120053331867    -0.340479053640    12.000000000000
         C           -1.422483016568     2.006098668133     0.677003946360    12.000000000000
         C            1.240703983432     0.906723668133    -0.689143053640    12.000000000000
         C            1.377469983432    -1.140185331867     0.591381946360    12.000000000000
         C            2.630329983432     1.023569668133    -0.646817053640    12.000000000000
         C            2.767701983432    -1.032440331867     0.613308946360    12.000000000000
         C            3.398676983432     0.054328668133     0.002486946360    12.000000000000
         H           -1.194322016568    -2.408266331867    -0.766164053640     1.007825032230
         H           -3.883565016568     0.842178668133     0.281841946360     1.007825032230
         H           -3.826550016568    -1.759486331867    -0.539823053640     1.007825032230
         H           -2.222505016568     2.350430668133     1.335088946360     1.007825032230
         H           -0.488261016568     1.971522668133     1.238358946360     1.007825032230
         H           -1.315160016568     2.710596668133    -0.152966053640     1.007825032230
         H            0.652372983432     1.637445668133    -1.240088053640     1.007825032230
         H            0.880017983432    -1.970580331867     1.087777946360     1.007825032230
         H            3.116144983432     1.863425668133    -1.138679053640     1.007825032230
         H            3.359824983432    -1.790192331867     1.121570946360     1.007825032230
         H            4.482090983432     0.143135668133     0.028353946360     1.007825032230

  Basis Set: AUG-CC-PVTZ
    Blend: AUG-CC-PVTZ
  Basis Set: (AUG-CC-PVTZ AUX)
    Blend: AUG-CC-PVTZ-JKFIT
	 Reference Energy          =    -477.5466164346699998 [Eh]
	 Singles Energy            =      -0.0000000000000000 [Eh]
	 Same-Spin Energy          =      -0.5385490972219831 [Eh]
	 Opposite-Spin Energy      =      -1.6823887414215184 [Eh]
	 Correlation Energy        =      -2.2209378386435015 [Eh]
	 Total Energy              =    -479.7675542733135217 [Eh]

	 ================> DF-SCS-MP2 Energies <==================
	-----------------------------------------------------------
	 SCS Same-Spin Scale       =       0.3333333333333333 [-]
	 SCS Opposite-Spin Scale   =       1.2000000000000000 [-]
	 SCS Same-Spin Energy      =      -0.1795163657406610 [Eh]
	 SCS Opposite-Spin Energy  =      -2.0188664897058222 [Eh]
	 SCS Correlation Energy    =      -2.1983828554464830 [Eh]
	 SCS Total Energy          =    -479.7449992901164819 [Eh]
	-----------------------------------------------------------

  Dipole Moment: [D]
     X:     0.4942      Y:     1.8450      Z:     0.6722     Total:     2.0249

*** Psi4 exiting successfully. Buy a developer a beer!
