                               Psi4 1.3.2 release

  ==> Input File <==

--------------------------------------------------------------------------
#psi4
#
memory 32 gb

molecule  {
0 1
  N       -1.7531090     0.6487580     0.1985890
  C       -0.8584400    -0.3593730    -0.1157050
  C        0.5958890    -0.1944310    -0.0686340
  C       -1.6095070    -1.4830350    -0.4543950
  C       -2.9881193     0.1810354     0.0595883
  C       -2.9750140    -1.1422740    -0.3482900
  C       -1.4212420     1.9838780     0.6691930
  C        1.2419450     0.8845030    -0.6969540
  C        1.3787110    -1.1624060     0.5835710
  C        2.6315710     1.0013490    -0.6546280
  C        2.7689430    -1.0546610     0.6054980
  C        3.3999180     0.0321080    -0.0053240
  H       -1.1930810    -2.4304870    -0.7739750
  H       -3.8823240     0.8199580     0.2740310
  H       -3.8253090    -1.7817070    -0.5476340
  H       -2.2212640     2.3282100     1.3272780
  H       -0.4870200     1.9493020     1.2305480
  H       -1.3139190     2.6883760    -0.1607770
  H        0.6536140     1.6152250    -1.2478990
  H        0.8812590    -1.9928010     1.0799670
  H        3.1173860     1.8412050    -1.1464900
  H        3.3610660    -1.8124130     1.1137600
  H        4.4833320     0.1209150     0.0205430
units angstrom
no_reorient  #important for SAPT in psi4, default
symmetry c1  #important for SAPT in psi4, default
}

set PROPERTIES_ORIGIN ["COM"]
properties('MP2/aug-cc-pvtz', properties = ['dipole'])
--------------------------------------------------------------------------

    Molecular point group: c1
  Charge       = 0
  Multiplicity = 1
  Basis Set: AUG-CC-PVTZ
    Blend: AUG-CC-PVTZ
  Basis Set: (AUG-CC-PVTZ AUX)
    Blend: AUG-CC-PVTZ-JKFIT

    Orbital Energies [Eh]
    ---------------------

    Doubly Occupied:

       1A    -15.609856     2A    -11.273446     3A    -11.252614
       4A    -11.249449     5A    -11.249233     6A    -11.239951
       7A    -11.238676     8A    -11.238327     9A    -11.236935
      10A    -11.235859    11A    -11.208225    12A    -11.204559
      13A     -1.312831    14A     -1.154470    15A     -1.076066
      16A     -1.043986    17A     -1.015357    18A     -0.955073
      19A     -0.939000    20A     -0.831018    21A     -0.830080
      22A     -0.773726    23A     -0.740897    24A     -0.714666
      25A     -0.676713    26A     -0.643243    27A     -0.631004
      28A     -0.622742    29A     -0.597119    30A     -0.586552
      31A     -0.576758    32A     -0.565976    33A     -0.536510
      34A     -0.529653    35A     -0.521971    36A     -0.501443
      37A     -0.493993    38A     -0.491647    39A     -0.354672
      40A     -0.339724    41A     -0.336201    42A     -0.273214

  @DF-RHF Final Energy:  -477.54385461631944

   => Energetics <=

    Nuclear Repulsion Energy =            640.1684637867434731
    One-Electron Energy =               -1915.6177581357883355
    Two-Electron Energy =                 797.9054397327255401
    Total Energy =                       -477.5438546163194360
  Basis Set: (AUG-CC-PVTZ AUX)
    Blend: AUG-CC-PVTZ-RI
    Molecular point group: c1

    Geometry (in Angstrom), charge = 0, multiplicity = 1:

       Center              X                  Y                   Z               Mass
    ------------   -----------------  -----------------  -----------------  -----------------
         N           -1.759457916147     0.669784971428     0.205932586264    14.003074004430
         C           -0.864788916147    -0.338346028572    -0.108361413736    12.000000000000
         C            0.589540083853    -0.173404028572    -0.061290413736    12.000000000000
         C           -1.615855916147    -1.462008028572    -0.447051413736    12.000000000000
         C           -2.994468216147     0.202062371428     0.066931886264    12.000000000000
         C           -2.981362916147    -1.121247028572    -0.340946413736    12.000000000000
         C           -1.427590916147     2.004904971428     0.676536586264    12.000000000000
         C            1.235596083853     0.905529971428    -0.689610413736    12.000000000000
         C            1.372362083853    -1.141379028572     0.590914586264    12.000000000000
         C            2.625222083853     1.022375971428    -0.647284413736    12.000000000000
         C            2.762594083853    -1.033634028572     0.612841586264    12.000000000000
         C            3.393569083853     0.053134971428     0.002019586264    12.000000000000
         H           -1.199429916147    -2.409460028572    -0.766631413736     1.007825032230
         H           -3.888672916147     0.840984971428     0.281374586264     1.007825032230
         H           -3.831657916147    -1.760680028572    -0.540290413736     1.007825032230
         H           -2.227612916147     2.349236971428     1.334621586264     1.007825032230
         H           -0.493368916147     1.970328971428     1.237891586264     1.007825032230
         H           -1.320267916147     2.709402971428    -0.153433413736     1.007825032230
         H            0.647265083853     1.636251971428    -1.240555413736     1.007825032230
         H            0.874910083853    -1.971774028572     1.087310586264     1.007825032230
         H            3.111037083853     1.862231971428    -1.139146413736     1.007825032230
         H            3.354717083853    -1.791386028572     1.121103586264     1.007825032230
         H            4.476983083853     0.141941971428     0.027886586264     1.007825032230

  Basis Set: AUG-CC-PVTZ
    Blend: AUG-CC-PVTZ
  Basis Set: (AUG-CC-PVTZ AUX)
    Blend: AUG-CC-PVTZ-JKFIT
	 Reference Energy          =    -477.5438546163194360 [Eh]
	 Singles Energy            =      -0.0000000000000000 [Eh]
	 Same-Spin Energy          =      -0.5392542255137742 [Eh]
	 Opposite-Spin Energy      =      -1.6826841739758440 [Eh]
	 Correlation Energy        =      -2.2219383994896180 [Eh]
	 Total Energy              =    -479.7657930158090380 [Eh]

	 ================> DF-SCS-MP2 Energies <==================
	-----------------------------------------------------------
	 SCS Same-Spin Scale       =       0.3333333333333333 [-]
	 SCS Opposite-Spin Scale   =       1.2000000000000000 [-]
	 SCS Same-Spin Energy      =      -0.1797514085045914 [Eh]
	 SCS Opposite-Spin Energy  =      -2.0192210087710127 [Eh]
	 SCS Correlation Energy    =      -2.1989724172756042 [Eh]
	 SCS Total Energy          =    -479.7428270335950629 [Eh]
	-----------------------------------------------------------

  Dipole Moment: [D]
     X:     0.4455      Y:     1.9143      Z:     0.6952     Total:     2.0848

*** Psi4 exiting successfully. Buy a developer a beer!
