                               Psi4 1.3.2 release

  ==> Input File <==

--------------------------------------------------------------------------
#psi4
#
memory 32 gb

molecule  {
0 1
  N       -1.7531090     0.6487580     0.1985890
  C       -0.8584400    -0.3593730    -0.1157050
  C        0.5958890    -0.1944310    -0.0686340
  C       -1.6095070    -1.4830350    -0.4543950
  C       -3.0364380     0.1798280     0.0590890
  C       -2.9750140    -1.1422740    -0.3482900
  C       -1.4212420     1.9838780     0.6691930
  C        1.1500321     0.7310055    -0.6075643
  C        1.3787110    -1.1624060     0.5835710
  C        2.6315710     1.0013490    -0.6546280
  C        2.7689430    -1.0546610     0.6054980
  C        3.3999180     0.0321080    -0.0053240
  H       -1.1930810    -2.4304870    -0.7739750
  H       -3.8823240     0.8199580     0.2740310
  H       -3.8253090    -1.7817070    -0.5476340
  H       -2.2212640     2.3282100     1.3272780
  H       -0.4870200     1.9493020     1.2305480
  H       -1.3139190     2.6883760    -0.1607770
  H        0.6536140     1.6152250    -1.2478990
  H        0.8812590    -1.9928010     1.0799670
  H        3.1173860     1.8412050    -1.1464900
  H        3.3610660    -1.8124130     1.1137600
  H        4.4833320     0.1209150     0.0205430
units angstrom
no_reorient  #important for SAPT in psi4, default
symmetry c1  #important for SAPT in psi4, default
}

set PROPERTIES_ORIGIN ["COM"]
properties('MP2/aug-cc-pvtz', properties = ['dipole'])
--------------------------------------------------------------------------

    Molecular point group: c1
  Charge       = 0
  Multiplicity = 1
  Basis Set: AUG-CC-PVTZ
    Blend: AUG-CC-PVTZ
  Basis Set: (AUG-CC-PVTZ AUX)
    Blend: AUG-CC-PVTZ-JKFIT

    Orbital Energies [Eh]
    ---------------------

    Doubly Occupied:

       1A    -15.607060     2A    -11.269713     3A    -11.255570
       4A    -11.249825     5A    -11.247027     6A    -11.239993
       7A    -11.239547     8A    -11.237818     9A    -11.235529
      10A    -11.224158    11A    -11.207345    12A    -11.205589
      13A     -1.298570    14A     -1.175711    15A     -1.072567
      16A     -1.061250    17A     -1.001771    18A     -0.962538
      19A     -0.932397    20A     -0.846630    21A     -0.817317
      22A     -0.771218    23A     -0.747195    24A     -0.712569
      25A     -0.671781    26A     -0.641880    27A     -0.635846
      28A     -0.626271    29A     -0.599081    30A     -0.571915
      31A     -0.569890    32A     -0.568744    33A     -0.541256
      34A     -0.526028    35A     -0.524083    36A     -0.510662
      37A     -0.506836    38A     -0.455095    39A     -0.377575
      40A     -0.335121    41A     -0.325660    42A     -0.280677

  @DF-RHF Final Energy:  -477.48621495123541

   => Energetics <=

    Nuclear Repulsion Energy =            642.3191845767848918
    One-Electron Energy =               -1919.8361858391047008
    Two-Electron Energy =                 800.0307863110843982
    Total Energy =                       -477.4862149512354108
  Basis Set: (AUG-CC-PVTZ AUX)
    Blend: AUG-CC-PVTZ-RI
    Molecular point group: c1

    Geometry (in Angstrom), charge = 0, multiplicity = 1:

       Center              X                  Y                   Z               Mass
    ------------   -----------------  -----------------  -----------------  -----------------
         N           -1.748745660038     0.681602839228     0.199142271310    14.003074004430
         C           -0.854076660038    -0.326528160772    -0.115151728690    12.000000000000
         C            0.600252339962    -0.161586160772    -0.068080728690    12.000000000000
         C           -1.605143660038    -1.450190160772    -0.453841728690    12.000000000000
         C           -3.032074660038     0.212672839228     0.059642271310    12.000000000000
         C           -2.970650660038    -1.109429160772    -0.347736728690    12.000000000000
         C           -1.416878660038     2.016722839228     0.669746271310    12.000000000000
         C            1.154395439962     0.763850339228    -0.607011028690    12.000000000000
         C            1.383074339962    -1.129561160772     0.584124271310    12.000000000000
         C            2.635934339962     1.034193839228    -0.654074728690    12.000000000000
         C            2.773306339962    -1.021816160772     0.606051271310    12.000000000000
         C            3.404281339962     0.064952839228    -0.004770728690    12.000000000000
         H           -1.188717660038    -2.397642160772    -0.773421728690     1.007825032230
         H           -3.877960660038     0.852802839228     0.274584271310     1.007825032230
         H           -3.820945660038    -1.748862160772    -0.547080728690     1.007825032230
         H           -2.216900660038     2.361054839228     1.327831271310     1.007825032230
         H           -0.482656660038     1.982146839228     1.231101271310     1.007825032230
         H           -1.309555660038     2.721220839228    -0.160223728690     1.007825032230
         H            0.657977339962     1.648069839228    -1.247345728690     1.007825032230
         H            0.885622339962    -1.959956160772     1.080520271310     1.007825032230
         H            3.121749339962     1.874049839228    -1.145936728690     1.007825032230
         H            3.365429339962    -1.779568160772     1.114313271310     1.007825032230
         H            4.487695339962     0.153759839228     0.021096271310     1.007825032230

  Basis Set: AUG-CC-PVTZ
    Blend: AUG-CC-PVTZ
  Basis Set: (AUG-CC-PVTZ AUX)
    Blend: AUG-CC-PVTZ-JKFIT
	 Reference Energy          =    -477.4862149512354108 [Eh]
	 Singles Energy            =      -0.0000000000000000 [Eh]
	 Same-Spin Energy          =      -0.5384551325085040 [Eh]
	 Opposite-Spin Energy      =      -1.6848132815392092 [Eh]
	 Correlation Energy        =      -2.2232684140477130 [Eh]
	 Total Energy              =    -479.7094833652831198 [Eh]

	 ================> DF-SCS-MP2 Energies <==================
	-----------------------------------------------------------
	 SCS Same-Spin Scale       =       0.3333333333333333 [-]
	 SCS Opposite-Spin Scale   =       1.2000000000000000 [-]
	 SCS Same-Spin Energy      =      -0.1794850441695013 [Eh]
	 SCS Opposite-Spin Energy  =      -2.0217759378470510 [Eh]
	 SCS Correlation Energy    =      -2.2012609820165525 [Eh]
	 SCS Total Energy          =    -479.6874759332519602 [Eh]
	-----------------------------------------------------------

  Dipole Moment: [D]
     X:     0.6681      Y:     1.8594      Z:     0.6991     Total:     2.0959

*** Psi4 exiting successfully. Buy a developer a beer!
