                               Psi4 1.3.2 release

  ==> Input File <==

--------------------------------------------------------------------------
#psi4
#
memory 32 gb

molecule  {
0 1
  N       -1.7531090     0.6487580     0.1985890
  C       -0.8584400    -0.3593730    -0.1157050
  C        0.5958890    -0.1944310    -0.0686340
  C       -1.6034862    -1.4602312    -0.4472876
  C       -3.0364380     0.1798280     0.0590890
  C       -2.9750140    -1.1422740    -0.3482900
  C       -1.4212420     1.9838780     0.6691930
  C        1.2419450     0.8845030    -0.6969540
  C        1.3787110    -1.1624060     0.5835710
  C        2.6315710     1.0013490    -0.6546280
  C        2.7689430    -1.0546610     0.6054980
  C        3.3999180     0.0321080    -0.0053240
  H       -1.1930810    -2.4304870    -0.7739750
  H       -3.8823240     0.8199580     0.2740310
  H       -3.8253090    -1.7817070    -0.5476340
  H       -2.2212640     2.3282100     1.3272780
  H       -0.4870200     1.9493020     1.2305480
  H       -1.3139190     2.6883760    -0.1607770
  H        0.6536140     1.6152250    -1.2478990
  H        0.8812590    -1.9928010     1.0799670
  H        3.1173860     1.8412050    -1.1464900
  H        3.3610660    -1.8124130     1.1137600
  H        4.4833320     0.1209150     0.0205430
units angstrom
no_reorient  #important for SAPT in psi4, default
symmetry c1  #important for SAPT in psi4, default
}

set PROPERTIES_ORIGIN ["COM"]
properties('MP2/aug-cc-pvtz', properties = ['dipole'])
--------------------------------------------------------------------------

    Molecular point group: c1
  Charge       = 0
  Multiplicity = 1
  Basis Set: AUG-CC-PVTZ
    Blend: AUG-CC-PVTZ
  Basis Set: (AUG-CC-PVTZ AUX)
    Blend: AUG-CC-PVTZ-JKFIT

    Orbital Energies [Eh]
    ---------------------

    Doubly Occupied:

       1A    -15.605711     2A    -11.269994     3A    -11.253470
       4A    -11.250154     5A    -11.249120     6A    -11.240719
       7A    -11.239576     8A    -11.239261     9A    -11.237980
      10A    -11.237081    11A    -11.207571    12A    -11.205964
      13A     -1.299618    14A     -1.155098    15A     -1.074956
      16A     -1.044155    17A     -1.016186    18A     -0.957714
      19A     -0.932013    20A     -0.833365    21A     -0.830661
      22A     -0.770716    23A     -0.742647    24A     -0.711755
      25A     -0.678071    26A     -0.639867    27A     -0.631874
      28A     -0.622310    29A     -0.596137    30A     -0.587122
      31A     -0.569491    32A     -0.567872    33A     -0.539241
      34A     -0.526349    35A     -0.521663    36A     -0.502137
      37A     -0.495766    38A     -0.491787    39A     -0.354627
      40A     -0.340192    41A     -0.334916    42A     -0.277488

  @DF-RHF Final Energy:  -477.54598162250602

   => Energetics <=

    Nuclear Repulsion Energy =            639.5666448014861771
    One-Electron Energy =               -1914.4604610300273180
    Two-Electron Energy =                 797.3478346060352351
    Total Energy =                       -477.5459816225060194
  Basis Set: (AUG-CC-PVTZ AUX)
    Blend: AUG-CC-PVTZ-RI
    Molecular point group: c1

    Geometry (in Angstrom), charge = 0, multiplicity = 1:

       Center              X                  Y                   Z               Mass
    ------------   -----------------  -----------------  -----------------  -----------------
         N           -1.756226790369     0.668135227948     0.205427795193    14.003074004430
         C           -0.861557790369    -0.339995772052    -0.108866204807    12.000000000000
         C            0.592771209631    -0.175053772052    -0.061795204807    12.000000000000
         C           -1.606603990369    -1.440853972052    -0.440448804807    12.000000000000
         C           -3.039555790369     0.199205227948     0.065927795193    12.000000000000
         C           -2.978131790369    -1.122896772052    -0.341451204807    12.000000000000
         C           -1.424359790369     2.003255227948     0.676031795193    12.000000000000
         C            1.238827209631     0.903880227948    -0.690115204807    12.000000000000
         C            1.375593209631    -1.143028772052     0.590409795193    12.000000000000
         C            2.628453209631     1.020726227948    -0.647789204807    12.000000000000
         C            2.765825209631    -1.035283772052     0.612336795193    12.000000000000
         C            3.396800209631     0.051485227948     0.001514795193    12.000000000000
         H           -1.196198790369    -2.411109772052    -0.767136204807     1.007825032230
         H           -3.885441790369     0.839335227948     0.280869795193     1.007825032230
         H           -3.828426790369    -1.762329772052    -0.540795204807     1.007825032230
         H           -2.224381790369     2.347587227948     1.334116795193     1.007825032230
         H           -0.490137790369     1.968679227948     1.237386795193     1.007825032230
         H           -1.317036790369     2.707753227948    -0.153938204807     1.007825032230
         H            0.650496209631     1.634602227948    -1.241060204807     1.007825032230
         H            0.878141209631    -1.973423772052     1.086805795193     1.007825032230
         H            3.114268209631     1.860582227948    -1.139651204807     1.007825032230
         H            3.357948209631    -1.793035772052     1.120598795193     1.007825032230
         H            4.480214209631     0.140292227948     0.027381795193     1.007825032230

  Basis Set: AUG-CC-PVTZ
    Blend: AUG-CC-PVTZ
  Basis Set: (AUG-CC-PVTZ AUX)
    Blend: AUG-CC-PVTZ-JKFIT
	 Reference Energy          =    -477.5459816225060194 [Eh]
	 Singles Energy            =      -0.0000000000000000 [Eh]
	 Same-Spin Energy          =      -0.5388911198721126 [Eh]
	 Opposite-Spin Energy      =      -1.6827724421417170 [Eh]
	 Correlation Energy        =      -2.2216635620138296 [Eh]
	 Total Energy              =    -479.7676451845198358 [Eh]

	 ================> DF-SCS-MP2 Energies <==================
	-----------------------------------------------------------
	 SCS Same-Spin Scale       =       0.3333333333333333 [-]
	 SCS Opposite-Spin Scale   =       1.2000000000000000 [-]
	 SCS Same-Spin Energy      =      -0.1796303732907042 [Eh]
	 SCS Opposite-Spin Energy  =      -2.0193269305700601 [Eh]
	 SCS Correlation Energy    =      -2.1989573038607642 [Eh]
	 SCS Total Energy          =    -479.7449389263667854 [Eh]
	-----------------------------------------------------------

  Dipole Moment: [D]
     X:     0.4830      Y:     1.8415      Z:     0.6729     Total:     2.0193

*** Psi4 exiting successfully. Buy a developer a beer!
