                               Psi4 1.3.2 release

  ==> Input File <==

--------------------------------------------------------------------------
#psi4
#
memory 32 gb

molecule  {
0 1
  N       -1.7531090     0.6487580     0.1985890
  C       -0.7399623    -0.4391083    -0.1453027
  C        0.5958890    -0.1944310    -0.0686340
  C       -1.6095070    -1.4830350    -0.4543950
  C       -3.0364380     0.1798280     0.0590890
  C       -2.9750140    -1.1422740    -0.3482900
  C       -1.4212420     1.9838780     0.6691930
  C        1.2419450     0.8845030    -0.6969540
  C        1.3787110    -1.1624060     0.5835710
  C        2.6315710     1.0013490    -0.6546280
  C        2.7689430    -1.0546610     0.6054980
  C        3.3999180     0.0321080    -0.0053240
  H       -1.1930810    -2.4304870    -0.7739750
  H       -3.8823240     0.8199580     0.2740310
  H       -3.8253090    -1.7817070    -0.5476340
  H       -2.2212640     2.3282100     1.3272780
  H       -0.4870200     1.9493020     1.2305480
  H       -1.3139190     2.6883760    -0.1607770
  H        0.6536140     1.6152250    -1.2478990
  H        0.8812590    -1.9928010     1.0799670
  H        3.1173860     1.8412050    -1.1464900
  H        3.3610660    -1.8124130     1.1137600
  H        4.4833320     0.1209150     0.0205430
units angstrom
no_reorient  #important for SAPT in psi4, default
symmetry c1  #important for SAPT in psi4, default
}

set PROPERTIES_ORIGIN ["COM"]
properties('MP2/aug-cc-pvtz', properties = ['dipole'])
--------------------------------------------------------------------------

    Molecular point group: c1
  Charge       = 0
  Multiplicity = 1
  Basis Set: AUG-CC-PVTZ
    Blend: AUG-CC-PVTZ
  Basis Set: (AUG-CC-PVTZ AUX)
    Blend: AUG-CC-PVTZ-JKFIT

    Orbital Energies [Eh]
    ---------------------

    Doubly Occupied:

       1A    -15.598119     2A    -11.262963     3A    -11.259418
       4A    -11.258012     5A    -11.243445     6A    -11.241977
       7A    -11.240890     8A    -11.239839     9A    -11.238800
      10A    -11.237448    11A    -11.218927    12A    -11.206965
      13A     -1.267186    14A     -1.160800    15A     -1.072725
      16A     -1.054149    17A     -1.017313    18A     -0.953994
      19A     -0.920120    20A     -0.845075    21A     -0.832994
      22A     -0.759618    23A     -0.749351    24A     -0.705444
      25A     -0.678643    26A     -0.639266    27A     -0.633054
      28A     -0.618252    29A     -0.596999    30A     -0.587908
      31A     -0.576333    32A     -0.553292    33A     -0.545126
      34A     -0.518329    35A     -0.516290    36A     -0.506791
      37A     -0.493413    38A     -0.485357    39A     -0.363208
      40A     -0.340896    41A     -0.330922    42A     -0.270184

  @DF-RHF Final Energy:  -477.51610263164434

   => Energetics <=

    Nuclear Repulsion Energy =            638.4346917202828990
    One-Electron Energy =               -1912.2219186597383214
    Two-Electron Energy =                 796.2711243078110783
    Total Energy =                       -477.5161026316443440
  Basis Set: (AUG-CC-PVTZ AUX)
    Blend: AUG-CC-PVTZ-RI
    Molecular point group: c1

    Geometry (in Angstrom), charge = 0, multiplicity = 1:

       Center              X                  Y                   Z               Mass
    ------------   -----------------  -----------------  -----------------  -----------------
         N           -1.764817344239     0.675968163609     0.208231688407    14.003074004430
         C           -0.751670644239    -0.411898136391    -0.135660011593    12.000000000000
         C            0.584180655761    -0.167220836391    -0.058991311593    12.000000000000
         C           -1.621215344239    -1.455824836391    -0.444752311593    12.000000000000
         C           -3.048146344239     0.207038163609     0.068731688407    12.000000000000
         C           -2.986722344239    -1.115063836391    -0.338647311593    12.000000000000
         C           -1.432950344239     2.011088163609     0.678835688407    12.000000000000
         C            1.230236655761     0.911713163609    -0.687311311593    12.000000000000
         C            1.367002655761    -1.135195836391     0.593213688407    12.000000000000
         C            2.619862655761     1.028559163609    -0.644985311593    12.000000000000
         C            2.757234655761    -1.027450836391     0.615140688407    12.000000000000
         C            3.388209655761     0.059318163609     0.004318688407    12.000000000000
         H           -1.204789344239    -2.403276836391    -0.764332311593     1.007825032230
         H           -3.894032344239     0.847168163609     0.283673688407     1.007825032230
         H           -3.837017344239    -1.754496836391    -0.537991311593     1.007825032230
         H           -2.232972344239     2.355420163609     1.336920688407     1.007825032230
         H           -0.498728344239     1.976512163609     1.240190688407     1.007825032230
         H           -1.325627344239     2.715586163609    -0.151134311593     1.007825032230
         H            0.641905655761     1.642435163609    -1.238256311593     1.007825032230
         H            0.869550655761    -1.965590836391     1.089609688407     1.007825032230
         H            3.105677655761     1.868415163609    -1.136847311593     1.007825032230
         H            3.349357655761    -1.785202836391     1.123402688407     1.007825032230
         H            4.471623655761     0.148125163609     0.030185688407     1.007825032230

  Basis Set: AUG-CC-PVTZ
    Blend: AUG-CC-PVTZ
  Basis Set: (AUG-CC-PVTZ AUX)
    Blend: AUG-CC-PVTZ-JKFIT
	 Reference Energy          =    -477.5161026316443440 [Eh]
	 Singles Energy            =      -0.0000000000000000 [Eh]
	 Same-Spin Energy          =      -0.5416219107035198 [Eh]
	 Opposite-Spin Energy      =      -1.6881969095721097 [Eh]
	 Correlation Energy        =      -2.2298188202756295 [Eh]
	 Total Energy              =    -479.7459214519199691 [Eh]

	 ================> DF-SCS-MP2 Energies <==================
	-----------------------------------------------------------
	 SCS Same-Spin Scale       =       0.3333333333333333 [-]
	 SCS Opposite-Spin Scale   =       1.2000000000000000 [-]
	 SCS Same-Spin Energy      =      -0.1805406369011733 [Eh]
	 SCS Opposite-Spin Energy  =      -2.0258362914865313 [Eh]
	 SCS Correlation Energy    =      -2.2063769283877046 [Eh]
	 SCS Total Energy          =    -479.7224795600320704 [Eh]
	-----------------------------------------------------------

  Dipole Moment: [D]
     X:     0.5703      Y:     1.6874      Z:     0.6024     Total:     1.8803

*** Psi4 exiting successfully. Buy a developer a beer!
