                               Psi4 1.3.2 release

  ==> Input File <==

--------------------------------------------------------------------------
#psi4
#
memory 32 gb

molecule  {
0 1
  N       -1.7531090     0.6487580     0.1985890
  C       -0.8584400    -0.3593730    -0.1157050
  C        0.5958890    -0.1944310    -0.0686340
  C       -1.6095070    -1.4830350    -0.4543950
  C       -3.0364380     0.1798280     0.0590890
  C       -2.9685796    -1.1197797    -0.3405840
  C       -1.4212420     1.9838780     0.6691930
  C        1.2419450     0.8845030    -0.6969540
  C        1.3787110    -1.1624060     0.5835710
  C        2.6315710     1.0013490    -0.6546280
  C        2.7689430    -1.0546610     0.6054980
  C        3.3999180     0.0321080    -0.0053240
  H       -1.1930810    -2.4304870    -0.7739750
  H       -3.8823240     0.8199580     0.2740310
  H       -3.8253090    -1.7817070    -0.5476340
  H       -2.2212640     2.3282100     1.3272780
  H       -0.4870200     1.9493020     1.2305480
  H       -1.3139190     2.6883760    -0.1607770
  H        0.6536140     1.6152250    -1.2478990
  H        0.8812590    -1.9928010     1.0799670
  H        3.1173860     1.8412050    -1.1464900
  H        3.3610660    -1.8124130     1.1137600
  H        4.4833320     0.1209150     0.0205430
units angstrom
no_reorient  #important for SAPT in psi4, default
symmetry c1  #important for SAPT in psi4, default
}

set PROPERTIES_ORIGIN ["COM"]
properties('MP2/aug-cc-pvtz', properties = ['dipole'])
--------------------------------------------------------------------------

    Molecular point group: c1
  Charge       = 0
  Multiplicity = 1
  Basis Set: AUG-CC-PVTZ
    Blend: AUG-CC-PVTZ
  Basis Set: (AUG-CC-PVTZ AUX)
    Blend: AUG-CC-PVTZ-JKFIT

    Orbital Energies [Eh]
    ---------------------

    Doubly Occupied:

       1A    -15.605577     2A    -11.269988     3A    -11.256961
       4A    -11.250136     5A    -11.245327     6A    -11.240805
       7A    -11.239678     8A    -11.239358     9A    -11.238091
      10A    -11.237207    11A    -11.207190    12A    -11.205997
      13A     -1.299452    14A     -1.155197    15A     -1.074390
      16A     -1.044880    17A     -1.016286    18A     -0.957654
      19A     -0.931967    20A     -0.834024    21A     -0.830630
      22A     -0.769267    23A     -0.743296    24A     -0.711525
      25A     -0.678062    26A     -0.639958    27A     -0.632117
      28A     -0.622211    29A     -0.595572    30A     -0.587260
      31A     -0.569002    32A     -0.567688    33A     -0.537979
      34A     -0.527832    35A     -0.524130    36A     -0.502342
      37A     -0.494188    38A     -0.491837    39A     -0.354249
      40A     -0.340371    41A     -0.335309    42A     -0.277227

  @DF-RHF Final Energy:  -477.54588561235994

   => Energetics <=

    Nuclear Repulsion Energy =            639.5015866078164208
    One-Electron Energy =               -1914.3305107866929120
    Two-Electron Energy =                 797.2830385665166659
    Total Energy =                       -477.5458856123599389
  Basis Set: (AUG-CC-PVTZ AUX)
    Blend: AUG-CC-PVTZ-RI
    Molecular point group: c1

    Geometry (in Angstrom), charge = 0, multiplicity = 1:

       Center              X                  Y                   Z               Mass
    ------------   -----------------  -----------------  -----------------  -----------------
         N           -1.756258385167     0.668158870574     0.205382068291    14.003074004430
         C           -0.861589385167    -0.339972129426    -0.108911931709    12.000000000000
         C            0.592739614833    -0.175030129426    -0.061840931709    12.000000000000
         C           -1.612656385167    -1.463634129426    -0.447601931709    12.000000000000
         C           -3.039587385167     0.199228870574     0.065882068291    12.000000000000
         C           -2.971728985167    -1.100378829426    -0.333790931709    12.000000000000
         C           -1.424391385167     2.003278870574     0.675986068291    12.000000000000
         C            1.238795614833     0.903903870574    -0.690160931709    12.000000000000
         C            1.375561614833    -1.143005129426     0.590364068291    12.000000000000
         C            2.628421614833     1.020749870574    -0.647834931709    12.000000000000
         C            2.765793614833    -1.035260129426     0.612291068291    12.000000000000
         C            3.396768614833     0.051508870574     0.001469068291    12.000000000000
         H           -1.196230385167    -2.411086129426    -0.767181931709     1.007825032230
         H           -3.885473385167     0.839358870574     0.280824068291     1.007825032230
         H           -3.828458385167    -1.762306129426    -0.540840931709     1.007825032230
         H           -2.224413385167     2.347610870574     1.334071068291     1.007825032230
         H           -0.490169385167     1.968702870574     1.237341068291     1.007825032230
         H           -1.317068385167     2.707776870574    -0.153983931709     1.007825032230
         H            0.650464614833     1.634625870574    -1.241105931709     1.007825032230
         H            0.878109614833    -1.973400129426     1.086760068291     1.007825032230
         H            3.114236614833     1.860605870574    -1.139696931709     1.007825032230
         H            3.357916614833    -1.793012129426     1.120553068291     1.007825032230
         H            4.480182614833     0.140315870574     0.027336068291     1.007825032230

  Basis Set: AUG-CC-PVTZ
    Blend: AUG-CC-PVTZ
  Basis Set: (AUG-CC-PVTZ AUX)
    Blend: AUG-CC-PVTZ-JKFIT
	 Reference Energy          =    -477.5458856123599389 [Eh]
	 Singles Energy            =      -0.0000000000000000 [Eh]
	 Same-Spin Energy          =      -0.5389258812735784 [Eh]
	 Opposite-Spin Energy      =      -1.6827453533929528 [Eh]
	 Correlation Energy        =      -2.2216712346665313 [Eh]
	 Total Energy              =    -479.7675568470264693 [Eh]

	 ================> DF-SCS-MP2 Energies <==================
	-----------------------------------------------------------
	 SCS Same-Spin Scale       =       0.3333333333333333 [-]
	 SCS Opposite-Spin Scale   =       1.2000000000000000 [-]
	 SCS Same-Spin Energy      =      -0.1796419604245261 [Eh]
	 SCS Opposite-Spin Energy  =      -2.0192944240715431 [Eh]
	 SCS Correlation Energy    =      -2.1989363844960694 [Eh]
	 SCS Total Energy          =    -479.7448219968559897 [Eh]
	-----------------------------------------------------------

  Dipole Moment: [D]
     X:     0.4639      Y:     1.8470      Z:     0.6718     Total:     2.0193

*** Psi4 exiting successfully. Buy a developer a beer!
