                               Psi4 1.3.2 release

  ==> Input File <==

--------------------------------------------------------------------------
#psi4
#
memory 32 gb

molecule  {
0 1
  N       -1.7531090     0.6487580     0.1985890
  C       -0.8584400    -0.3593730    -0.1157050
  C        0.5958890    -0.1944310    -0.0686340
  C       -1.6095070    -1.4830350    -0.4543950
  C       -3.0364380     0.1798280     0.0590890
  C       -2.9750140    -1.1422740    -0.3482900
  C       -1.4212420     1.9838780     0.6691930
  C        1.2879015     0.9612518    -0.7416488
  C        1.3787110    -1.1624060     0.5835710
  C        2.6315710     1.0013490    -0.6546280
  C        2.7689430    -1.0546610     0.6054980
  C        3.3999180     0.0321080    -0.0053240
  H       -1.1930810    -2.4304870    -0.7739750
  H       -3.8823240     0.8199580     0.2740310
  H       -3.8253090    -1.7817070    -0.5476340
  H       -2.2212640     2.3282100     1.3272780
  H       -0.4870200     1.9493020     1.2305480
  H       -1.3139190     2.6883760    -0.1607770
  H        0.6536140     1.6152250    -1.2478990
  H        0.8812590    -1.9928010     1.0799670
  H        3.1173860     1.8412050    -1.1464900
  H        3.3610660    -1.8124130     1.1137600
  H        4.4833320     0.1209150     0.0205430
units angstrom
no_reorient  #important for SAPT in psi4, default
symmetry c1  #important for SAPT in psi4, default
}

set PROPERTIES_ORIGIN ["COM"]
properties('MP2/aug-cc-pvtz', properties = ['dipole'])
--------------------------------------------------------------------------

    Molecular point group: c1
  Charge       = 0
  Multiplicity = 1
  Basis Set: AUG-CC-PVTZ
    Blend: AUG-CC-PVTZ
  Basis Set: (AUG-CC-PVTZ AUX)
    Blend: AUG-CC-PVTZ-JKFIT

    Orbital Energies [Eh]
    ---------------------

    Doubly Occupied:

       1A    -15.607902     2A    -11.271229     3A    -11.258772
       4A    -11.256927     5A    -11.249340     6A    -11.240322
       7A    -11.240284     8A    -11.237852     9A    -11.236188
      10A    -11.235129    11A    -11.208913    12A    -11.207652
      13A     -1.299203    14A     -1.150190    15A     -1.073983
      16A     -1.039319    17A     -1.022691    18A     -0.953525
      19A     -0.933874    20A     -0.839110    21A     -0.824762
      22A     -0.770969    23A     -0.739972    24A     -0.712170
      25A     -0.685109    26A     -0.642955    27A     -0.632226
      28A     -0.616551    29A     -0.595862    30A     -0.593986
      31A     -0.570180    32A     -0.566421    33A     -0.537833
      34A     -0.528427    35A     -0.524423    36A     -0.508319
      37A     -0.495989    38A     -0.477475    39A     -0.352585
      40A     -0.343173    41A     -0.335514    42A     -0.272320

  @DF-RHF Final Energy:  -477.53435442937484

   => Energetics <=

    Nuclear Repulsion Energy =            637.6384693816097524
    One-Electron Energy =               -1910.5663889194047442
    Two-Electron Energy =                 795.3935651084200344
    Total Energy =                       -477.5343544293748437
  Basis Set: (AUG-CC-PVTZ AUX)
    Blend: AUG-CC-PVTZ-RI
    Molecular point group: c1

    Geometry (in Angstrom), charge = 0, multiplicity = 1:

       Center              X                  Y                   Z               Mass
    ------------   -----------------  -----------------  -----------------  -----------------
         N           -1.759277468293     0.664014383175     0.209384952021    14.003074004430
         C           -0.864608468293    -0.344116616825    -0.104909047979    12.000000000000
         C            0.589720531707    -0.179174616825    -0.057838047979    12.000000000000
         C           -1.615675468293    -1.467778616825    -0.443599047979    12.000000000000
         C           -3.042606468293     0.195084383175     0.069884952021    12.000000000000
         C           -2.981182468293    -1.127017616825    -0.337494047979    12.000000000000
         C           -1.427410468293     1.999134383175     0.679988952021    12.000000000000
         C            1.281733031707     0.976508183175    -0.730852847979    12.000000000000
         C            1.372542531707    -1.147149616825     0.594366952021    12.000000000000
         C            2.625402531707     1.016605383175    -0.643832047979    12.000000000000
         C            2.762774531707    -1.039404616825     0.616293952021    12.000000000000
         C            3.393749531707     0.047364383175     0.005471952021    12.000000000000
         H           -1.199249468293    -2.415230616825    -0.763179047979     1.007825032230
         H           -3.888492468293     0.835214383175     0.284826952021     1.007825032230
         H           -3.831477468293    -1.766450616825    -0.536838047979     1.007825032230
         H           -2.227432468293     2.343466383175     1.338073952021     1.007825032230
         H           -0.493188468293     1.964558383175     1.241343952021     1.007825032230
         H           -1.320087468293     2.703632383175    -0.149981047979     1.007825032230
         H            0.647445531707     1.630481383175    -1.237103047979     1.007825032230
         H            0.875090531707    -1.977544616825     1.090762952021     1.007825032230
         H            3.111217531707     1.856461383175    -1.135694047979     1.007825032230
         H            3.354897531707    -1.797156616825     1.124555952021     1.007825032230
         H            4.477163531707     0.136171383175     0.031338952021     1.007825032230

  Basis Set: AUG-CC-PVTZ
    Blend: AUG-CC-PVTZ
  Basis Set: (AUG-CC-PVTZ AUX)
    Blend: AUG-CC-PVTZ-JKFIT
	 Reference Energy          =    -477.5343544293748437 [Eh]
	 Singles Energy            =      -0.0000000000000000 [Eh]
	 Same-Spin Energy          =      -0.5390890567925768 [Eh]
	 Opposite-Spin Energy      =      -1.6838645199583968 [Eh]
	 Correlation Energy        =      -2.2229535767509736 [Eh]
	 Total Energy              =    -479.7573080061258111 [Eh]

	 ================> DF-SCS-MP2 Energies <==================
	-----------------------------------------------------------
	 SCS Same-Spin Scale       =       0.3333333333333333 [-]
	 SCS Opposite-Spin Scale   =       1.2000000000000000 [-]
	 SCS Same-Spin Energy      =      -0.1796963522641923 [Eh]
	 SCS Opposite-Spin Energy  =      -2.0206374239500762 [Eh]
	 SCS Correlation Energy    =      -2.2003337762142685 [Eh]
	 SCS Total Energy          =    -479.7346882055891228 [Eh]
	-----------------------------------------------------------

  Dipole Moment: [D]
     X:     0.3972      Y:     1.8457      Z:     0.6762     Total:     2.0054

*** Psi4 exiting successfully. Buy a developer a beer!
