                               Psi4 1.3.2 release

  ==> Input File <==

--------------------------------------------------------------------------
#psi4
#
memory 32 gb

molecule  {
0 1
  N       -1.7531090     0.6487580     0.1985890
  C       -0.8584400    -0.3593730    -0.1157050
  C        0.5958890    -0.1944310    -0.0686340
  C       -1.6095070    -1.4830350    -0.4543950
  C       -3.0804600     0.3083622     0.1060740
  C       -2.9750140    -1.1422740    -0.3482900
  C       -1.4212420     1.9838780     0.6691930
  C        1.2419450     0.8845030    -0.6969540
  C        1.3787110    -1.1624060     0.5835710
  C        2.6315710     1.0013490    -0.6546280
  C        2.7689430    -1.0546610     0.6054980
  C        3.3999180     0.0321080    -0.0053240
  H       -1.1930810    -2.4304870    -0.7739750
  H       -3.8823240     0.8199580     0.2740310
  H       -3.8253090    -1.7817070    -0.5476340
  H       -2.2212640     2.3282100     1.3272780
  H       -0.4870200     1.9493020     1.2305480
  H       -1.3139190     2.6883760    -0.1607770
  H        0.6536140     1.6152250    -1.2478990
  H        0.8812590    -1.9928010     1.0799670
  H        3.1173860     1.8412050    -1.1464900
  H        3.3610660    -1.8124130     1.1137600
  H        4.4833320     0.1209150     0.0205430
units angstrom
no_reorient  #important for SAPT in psi4, default
symmetry c1  #important for SAPT in psi4, default
}

set PROPERTIES_ORIGIN ["COM"]
properties('MP2/aug-cc-pvtz', properties = ['dipole'])
--------------------------------------------------------------------------

    Molecular point group: c1
  Charge       = 0
  Multiplicity = 1
  Basis Set: AUG-CC-PVTZ
    Blend: AUG-CC-PVTZ
  Basis Set: (AUG-CC-PVTZ AUX)
    Blend: AUG-CC-PVTZ-JKFIT

    Orbital Energies [Eh]
    ---------------------

    Doubly Occupied:

       1A    -15.619300     2A    -11.269385     3A    -11.258926
       4A    -11.252798     5A    -11.252069     6A    -11.241584
       7A    -11.240541     8A    -11.240202     9A    -11.238897
      10A    -11.238283    11A    -11.222410    12A    -11.212006
      13A     -1.297848    14A     -1.156305    15A     -1.068672
      16A     -1.038929    17A     -1.017077    18A     -0.958398
      19A     -0.930964    20A     -0.838654    21A     -0.830962
      22A     -0.775948    23A     -0.749995    24A     -0.710125
      25A     -0.687586    26A     -0.649250    27A     -0.638196
      28A     -0.623502    29A     -0.601527    30A     -0.588407
      31A     -0.577705    32A     -0.561441    33A     -0.544736
      34A     -0.521298    35A     -0.504307    36A     -0.502228
      37A     -0.494719    38A     -0.490752    39A     -0.355632
      40A     -0.340954    41A     -0.332301    42A     -0.265973

  @DF-RHF Final Energy:  -477.51069109418330

   => Energetics <=

    Nuclear Repulsion Energy =            637.3071155396016820
    One-Electron Energy =               -1909.7540295900089404
    Two-Electron Energy =                 794.9362229562239008
    Total Energy =                       -477.5106910941833576
  Basis Set: (AUG-CC-PVTZ AUX)
    Blend: AUG-CC-PVTZ-RI
    Molecular point group: c1

    Geometry (in Angstrom), charge = 0, multiplicity = 1:

       Center              X                  Y                   Z               Mass
    ------------   -----------------  -----------------  -----------------  -----------------
         N           -1.752404033657     0.660058509694     0.202381555513    14.003074004430
         C           -0.857735033657    -0.348072490306    -0.111912444487    12.000000000000
         C            0.596593966343    -0.183130490306    -0.064841444487    12.000000000000
         C           -1.608802033657    -1.471734490306    -0.450602444487    12.000000000000
         C           -3.079755033657     0.319662709694     0.109866555513    12.000000000000
         C           -2.974309033657    -1.130973490306    -0.344497444487    12.000000000000
         C           -1.420537033657     1.995178509694     0.672985555513    12.000000000000
         C            1.242649966343     0.895803509694    -0.693161444487    12.000000000000
         C            1.379415966343    -1.151105490306     0.587363555513    12.000000000000
         C            2.632275966343     1.012649509694    -0.650835444487    12.000000000000
         C            2.769647966343    -1.043360490306     0.609290555513    12.000000000000
         C            3.400622966343     0.043408509694    -0.001531444487    12.000000000000
         H           -1.192376033657    -2.419186490306    -0.770182444487     1.007825032230
         H           -3.881619033657     0.831258509694     0.277823555513     1.007825032230
         H           -3.824604033657    -1.770406490306    -0.543841444487     1.007825032230
         H           -2.220559033657     2.339510509694     1.331070555513     1.007825032230
         H           -0.486315033657     1.960602509694     1.234340555513     1.007825032230
         H           -1.313214033657     2.699676509694    -0.156984444487     1.007825032230
         H            0.654318966343     1.626525509694    -1.244106444487     1.007825032230
         H            0.881963966343    -1.981500490306     1.083759555513     1.007825032230
         H            3.118090966343     1.852505509694    -1.142697444487     1.007825032230
         H            3.361770966343    -1.801112490306     1.117552555513     1.007825032230
         H            4.484036966343     0.132215509694     0.024335555513     1.007825032230

  Basis Set: AUG-CC-PVTZ
    Blend: AUG-CC-PVTZ
  Basis Set: (AUG-CC-PVTZ AUX)
    Blend: AUG-CC-PVTZ-JKFIT
	 Reference Energy          =    -477.5106910941833007 [Eh]
	 Singles Energy            =      -0.0000000000000000 [Eh]
	 Same-Spin Energy          =      -0.5415015445186468 [Eh]
	 Opposite-Spin Energy      =      -1.6880671652821047 [Eh]
	 Correlation Energy        =      -2.2295687098007515 [Eh]
	 Total Energy              =    -479.7402598039840314 [Eh]

	 ================> DF-SCS-MP2 Energies <==================
	-----------------------------------------------------------
	 SCS Same-Spin Scale       =       0.3333333333333333 [-]
	 SCS Opposite-Spin Scale   =       1.2000000000000000 [-]
	 SCS Same-Spin Energy      =      -0.1805005148395489 [Eh]
	 SCS Opposite-Spin Energy  =      -2.0256805983385253 [Eh]
	 SCS Correlation Energy    =      -2.2061811131780744 [Eh]
	 SCS Total Energy          =    -479.7168722073613480 [Eh]
	-----------------------------------------------------------

  Dipole Moment: [D]
     X:     0.6832      Y:     1.8652      Z:     0.6662     Total:     2.0951

*** Psi4 exiting successfully. Buy a developer a beer!
