                               Psi4 1.3.2 release

  ==> Input File <==

--------------------------------------------------------------------------
#psi4
#
memory 32 gb

molecule  {
0 1
  N       -1.7531090     0.6487580     0.1985890
  C       -0.8584400    -0.3593730    -0.1157050
  C        0.5958890    -0.1944310    -0.0686340
  C       -1.6095070    -1.4830350    -0.4543950
  C       -3.0277187     0.1588678     0.0513931
  C       -2.9750140    -1.1422740    -0.3482900
  C       -1.4212420     1.9838780     0.6691930
  C        1.2419450     0.8845030    -0.6969540
  C        1.3787110    -1.1624060     0.5835710
  C        2.6315710     1.0013490    -0.6546280
  C        2.7689430    -1.0546610     0.6054980
  C        3.3999180     0.0321080    -0.0053240
  H       -1.1930810    -2.4304870    -0.7739750
  H       -3.8823240     0.8199580     0.2740310
  H       -3.8253090    -1.7817070    -0.5476340
  H       -2.2212640     2.3282100     1.3272780
  H       -0.4870200     1.9493020     1.2305480
  H       -1.3139190     2.6883760    -0.1607770
  H        0.6536140     1.6152250    -1.2478990
  H        0.8812590    -1.9928010     1.0799670
  H        3.1173860     1.8412050    -1.1464900
  H        3.3610660    -1.8124130     1.1137600
  H        4.4833320     0.1209150     0.0205430
units angstrom
no_reorient  #important for SAPT in psi4, default
symmetry c1  #important for SAPT in psi4, default
}

set PROPERTIES_ORIGIN ["COM"]
properties('MP2/aug-cc-pvtz', properties = ['dipole'])
--------------------------------------------------------------------------

    Molecular point group: c1
  Charge       = 0
  Multiplicity = 1
  Basis Set: AUG-CC-PVTZ
    Blend: AUG-CC-PVTZ
  Basis Set: (AUG-CC-PVTZ AUX)
    Blend: AUG-CC-PVTZ-JKFIT

    Orbital Energies [Eh]
    ---------------------

    Doubly Occupied:

       1A    -15.605883     2A    -11.270943     3A    -11.256200
       4A    -11.249900     5A    -11.247883     6A    -11.240612
       7A    -11.239444     8A    -11.239138     9A    -11.237838
      10A    -11.236886    11A    -11.206827    12A    -11.205246
      13A     -1.299380    14A     -1.154921    15A     -1.075416
      16A     -1.044446    17A     -1.016070    18A     -0.956022
      19A     -0.933765    20A     -0.833180    21A     -0.830433
      22A     -0.770328    23A     -0.742111    24A     -0.712618
      25A     -0.676845    26A     -0.639604    27A     -0.630355
      28A     -0.622279    29A     -0.596060    30A     -0.587025
      31A     -0.572542    32A     -0.566516    33A     -0.535577
      34A     -0.529248    35A     -0.524377    36A     -0.501790
      37A     -0.494882    38A     -0.491793    39A     -0.353970
      40A     -0.340330    41A     -0.336243    42A     -0.276450

  @DF-RHF Final Energy:  -477.54592254960096

   => Energetics <=

    Nuclear Repulsion Energy =            639.3793396788765904
    One-Electron Energy =               -1914.0877742714355918
    Two-Electron Energy =                 797.1625120429581557
    Total Energy =                       -477.5459225496009594
  Basis Set: (AUG-CC-PVTZ AUX)
    Blend: AUG-CC-PVTZ-RI
    Molecular point group: c1

    Geometry (in Angstrom), charge = 0, multiplicity = 1:

       Center              X                  Y                   Z               Mass
    ------------   -----------------  -----------------  -----------------  -----------------
         N           -1.756432928095     0.671478348731     0.206558615499    14.003074004430
         C           -0.861763928095    -0.336652651269    -0.107735384501    12.000000000000
         C            0.592565071905    -0.171710651269    -0.060664384501    12.000000000000
         C           -1.612830928095    -1.460314651269    -0.446425384501    12.000000000000
         C           -3.031042628095     0.181588148731     0.059362715499    12.000000000000
         C           -2.978337928095    -1.119553651269    -0.340320384501    12.000000000000
         C           -1.424565928095     2.006598348731     0.677162615499    12.000000000000
         C            1.238621071905     0.907223348731    -0.688984384501    12.000000000000
         C            1.375387071905    -1.139685651269     0.591540615499    12.000000000000
         C            2.628247071905     1.024069348731    -0.646658384501    12.000000000000
         C            2.765619071905    -1.031940651269     0.613467615499    12.000000000000
         C            3.396594071905     0.054828348731     0.002645615499    12.000000000000
         H           -1.196404928095    -2.407766651269    -0.766005384501     1.007825032230
         H           -3.885647928095     0.842678348731     0.282000615499     1.007825032230
         H           -3.828632928095    -1.758986651269    -0.539664384501     1.007825032230
         H           -2.224587928095     2.350930348731     1.335247615499     1.007825032230
         H           -0.490343928095     1.972022348731     1.238517615499     1.007825032230
         H           -1.317242928095     2.711096348731    -0.152807384501     1.007825032230
         H            0.650290071905     1.637945348731    -1.239929384501     1.007825032230
         H            0.877935071905    -1.970080651269     1.087936615499     1.007825032230
         H            3.114062071905     1.863925348731    -1.138520384501     1.007825032230
         H            3.357742071905    -1.789692651269     1.121729615499     1.007825032230
         H            4.480008071905     0.143635348731     0.028512615499     1.007825032230

  Basis Set: AUG-CC-PVTZ
    Blend: AUG-CC-PVTZ
  Basis Set: (AUG-CC-PVTZ AUX)
    Blend: AUG-CC-PVTZ-JKFIT
	 Reference Energy          =    -477.5459225496009594 [Eh]
	 Singles Energy            =      -0.0000000000000000 [Eh]
	 Same-Spin Energy          =      -0.5388931211281952 [Eh]
	 Opposite-Spin Energy      =      -1.6827501268641636 [Eh]
	 Correlation Energy        =      -2.2216432479923589 [Eh]
	 Total Energy              =    -479.7675657975933063 [Eh]

	 ================> DF-SCS-MP2 Energies <==================
	-----------------------------------------------------------
	 SCS Same-Spin Scale       =       0.3333333333333333 [-]
	 SCS Opposite-Spin Scale   =       1.2000000000000000 [-]
	 SCS Same-Spin Energy      =      -0.1796310403760651 [Eh]
	 SCS Opposite-Spin Energy  =      -2.0193001522369962 [Eh]
	 SCS Correlation Energy    =      -2.1989311926130615 [Eh]
	 SCS Total Energy          =    -479.7448537422140475 [Eh]
	-----------------------------------------------------------

  Dipole Moment: [D]
     X:     0.4433      Y:     1.8482      Z:     0.6751     Total:     2.0169

*** Psi4 exiting successfully. Buy a developer a beer!
