                               Psi4 1.3.2 release

  ==> Input File <==

--------------------------------------------------------------------------
#psi4
#
memory 32 gb

molecule  {
0 1
  N       -1.7531090     0.6487580     0.1985890
  C       -0.8584400    -0.3593730    -0.1157050
  C        0.5958890    -0.1944310    -0.0686340
  C       -1.6095070    -1.4830350    -0.4543950
  C       -3.0364380     0.1798280     0.0590890
  C       -2.9750140    -1.1422740    -0.3482900
  C       -1.4212420     1.9838780     0.6691930
  C        1.3338579     1.0380005    -0.7863437
  C        1.3787110    -1.1624060     0.5835710
  C        2.6315710     1.0013490    -0.6546280
  C        2.7689430    -1.0546610     0.6054980
  C        3.3999180     0.0321080    -0.0053240
  H       -1.1930810    -2.4304870    -0.7739750
  H       -3.8823240     0.8199580     0.2740310
  H       -3.8253090    -1.7817070    -0.5476340
  H       -2.2212640     2.3282100     1.3272780
  H       -0.4870200     1.9493020     1.2305480
  H       -1.3139190     2.6883760    -0.1607770
  H        0.6536140     1.6152250    -1.2478990
  H        0.8812590    -1.9928010     1.0799670
  H        3.1173860     1.8412050    -1.1464900
  H        3.3610660    -1.8124130     1.1137600
  H        4.4833320     0.1209150     0.0205430
units angstrom
no_reorient  #important for SAPT in psi4, default
symmetry c1  #important for SAPT in psi4, default
}

set PROPERTIES_ORIGIN ["COM"]
properties('MP2/aug-cc-pvtz', properties = ['dipole'])
--------------------------------------------------------------------------

    Molecular point group: c1
  Charge       = 0
  Multiplicity = 1
  Basis Set: AUG-CC-PVTZ
    Blend: AUG-CC-PVTZ
  Basis Set: (AUG-CC-PVTZ AUX)
    Blend: AUG-CC-PVTZ-JKFIT

    Orbital Energies [Eh]
    ---------------------

    Doubly Occupied:

       1A    -15.608040     2A    -11.271712     3A    -11.263971
       4A    -11.257312     5A    -11.249934     6A    -11.241656
       7A    -11.241068     8A    -11.237393     9A    -11.235082
      10A    -11.231537    11A    -11.209283    12A    -11.208092
      13A     -1.299393    14A     -1.147434    15A     -1.074487
      16A     -1.039754    17A     -1.025932    18A     -0.951798
      19A     -0.934244    20A     -0.843964    21A     -0.821117
      22A     -0.771274    23A     -0.737113    24A     -0.711811
      25A     -0.694885    26A     -0.647655    27A     -0.633404
      28A     -0.614123    29A     -0.595617    30A     -0.593697
      31A     -0.570539    32A     -0.564085    33A     -0.537828
      34A     -0.529859    35A     -0.525017    36A     -0.513332
      37A     -0.495475    38A     -0.456436    39A     -0.361023
      40A     -0.339905    41A     -0.334610    42A     -0.269678

  @DF-RHF Final Energy:  -477.50494321106464

   => Energetics <=

    Nuclear Repulsion Energy =            636.3227347691500881
    One-Electron Energy =               -1907.8742180792528416
    Two-Electron Energy =                 794.0465400990382250
    Total Energy =                       -477.5049432110646421
  Basis Set: (AUG-CC-PVTZ AUX)
    Blend: AUG-CC-PVTZ-RI
    Molecular point group: c1

    Geometry (in Angstrom), charge = 0, multiplicity = 1:

       Center              X                  Y                   Z               Mass
    ------------   -----------------  -----------------  -----------------  -----------------
         N           -1.762788065952     0.658151569583     0.212799184017    14.003074004430
         C           -0.868119065952    -0.349979430417    -0.101494815983    12.000000000000
         C            0.586209934048    -0.185037430417    -0.054423815983    12.000000000000
         C           -1.619186065952    -1.473641430417    -0.440184815983    12.000000000000
         C           -3.046117065952     0.189221569583     0.073299184017    12.000000000000
         C           -2.984693065952    -1.132880430417    -0.334079815983    12.000000000000
         C           -1.430921065952     1.993271569583     0.683403184017    12.000000000000
         C            1.324178834048     1.047394069583    -0.772133515983    12.000000000000
         C            1.369031934048    -1.153012430417     0.597781184017    12.000000000000
         C            2.621891934048     1.010742569583    -0.640417815983    12.000000000000
         C            2.759263934048    -1.045267430417     0.619708184017    12.000000000000
         C            3.390238934048     0.041501569583     0.008886184017    12.000000000000
         H           -1.202760065952    -2.421093430417    -0.759764815983     1.007825032230
         H           -3.892003065952     0.829351569583     0.288241184017     1.007825032230
         H           -3.834988065952    -1.772313430417    -0.533423815983     1.007825032230
         H           -2.230943065952     2.337603569583     1.341488184017     1.007825032230
         H           -0.496699065952     1.958695569583     1.244758184017     1.007825032230
         H           -1.323598065952     2.697769569583    -0.146566815983     1.007825032230
         H            0.643934934048     1.624618569583    -1.233688815983     1.007825032230
         H            0.871579934048    -1.983407430417     1.094177184017     1.007825032230
         H            3.107706934048     1.850598569583    -1.132279815983     1.007825032230
         H            3.351386934048    -1.803019430417     1.127970184017     1.007825032230
         H            4.473652934048     0.130308569583     0.034753184017     1.007825032230

  Basis Set: AUG-CC-PVTZ
    Blend: AUG-CC-PVTZ
  Basis Set: (AUG-CC-PVTZ AUX)
    Blend: AUG-CC-PVTZ-JKFIT
	 Reference Energy          =    -477.5049432110646421 [Eh]
	 Singles Energy            =      -0.0000000000000000 [Eh]
	 Same-Spin Energy          =      -0.5389601587242663 [Eh]
	 Opposite-Spin Energy      =      -1.6854153061360879 [Eh]
	 Correlation Energy        =      -2.2243754648603540 [Eh]
	 Total Energy              =    -479.7293186759250148 [Eh]

	 ================> DF-SCS-MP2 Energies <==================
	-----------------------------------------------------------
	 SCS Same-Spin Scale       =       0.3333333333333333 [-]
	 SCS Opposite-Spin Scale   =       1.2000000000000000 [-]
	 SCS Same-Spin Energy      =      -0.1796533862414221 [Eh]
	 SCS Opposite-Spin Energy  =      -2.0224983673633052 [Eh]
	 SCS Correlation Energy    =      -2.2021517536047273 [Eh]
	 SCS Total Energy          =    -479.7070949646693521 [Eh]
	-----------------------------------------------------------

  Dipole Moment: [D]
     X:     0.3491      Y:     1.8351      Z:     0.6748     Total:     1.9862

*** Psi4 exiting successfully. Buy a developer a beer!
