                               Psi4 1.3.2 release

  ==> Input File <==

--------------------------------------------------------------------------
#psi4
#
memory 32 gb

molecule  {
0 1
  N       -1.7531090     0.6487580     0.1985890
  C       -0.8584400    -0.3593730    -0.1157050
  C        0.5958890    -0.1944310    -0.0686340
  C       -1.6095070    -1.4830350    -0.4543950
  C       -3.0364380     0.1798280     0.0590890
  C       -2.9750140    -1.1422740    -0.3482900
  C       -1.4212420     1.9838780     0.6691930
  C        1.3272982     0.8460669    -0.6675311
  C        1.3787110    -1.1624060     0.5835710
  C        2.6315710     1.0013490    -0.6546280
  C        2.7689430    -1.0546610     0.6054980
  C        3.3999180     0.0321080    -0.0053240
  H       -1.1930810    -2.4304870    -0.7739750
  H       -3.8823240     0.8199580     0.2740310
  H       -3.8253090    -1.7817070    -0.5476340
  H       -2.2212640     2.3282100     1.3272780
  H       -0.4870200     1.9493020     1.2305480
  H       -1.3139190     2.6883760    -0.1607770
  H        0.6536140     1.6152250    -1.2478990
  H        0.8812590    -1.9928010     1.0799670
  H        3.1173860     1.8412050    -1.1464900
  H        3.3610660    -1.8124130     1.1137600
  H        4.4833320     0.1209150     0.0205430
units angstrom
no_reorient  #important for SAPT in psi4, default
symmetry c1  #important for SAPT in psi4, default
}

set PROPERTIES_ORIGIN ["COM"]
properties('MP2/aug-cc-pvtz', properties = ['dipole'])
--------------------------------------------------------------------------

    Molecular point group: c1
  Charge       = 0
  Multiplicity = 1
  Basis Set: AUG-CC-PVTZ
    Blend: AUG-CC-PVTZ
  Basis Set: (AUG-CC-PVTZ AUX)
    Blend: AUG-CC-PVTZ-JKFIT

    Orbital Energies [Eh]
    ---------------------

    Doubly Occupied:

       1A    -15.608191     2A    -11.270712     3A    -11.258648
       4A    -11.249491     5A    -11.249476     6A    -11.238735
       7A    -11.237956     8A    -11.237427     9A    -11.236235
      10A    -11.229777    11A    -11.209325    12A    -11.208224
      13A     -1.299400    14A     -1.163818    15A     -1.074323
      16A     -1.044883    17A     -1.022781    18A     -0.956857
      19A     -0.933708    20A     -0.838778    21A     -0.823026
      22A     -0.771342    23A     -0.745869    24A     -0.712948
      25A     -0.676191    26A     -0.641961    27A     -0.628398
      28A     -0.626671    29A     -0.597055    30A     -0.580499
      31A     -0.570170    32A     -0.566772    33A     -0.539220
      34A     -0.527434    35A     -0.524048    36A     -0.509422
      37A     -0.503000    38A     -0.472150    39A     -0.353167
      40A     -0.348365    41A     -0.336144    42A     -0.275235

  @DF-RHF Final Energy:  -477.53375960943714

   => Energetics <=

    Nuclear Repulsion Energy =            639.8078394121419024
    One-Electron Energy =               -1914.8875325206658999
    Two-Electron Energy =                 797.5459334990868001
    Total Energy =                       -477.5337596094371975
  Basis Set: (AUG-CC-PVTZ AUX)
    Blend: AUG-CC-PVTZ-RI
    Molecular point group: c1

    Geometry (in Angstrom), charge = 0, multiplicity = 1:

       Center              X                  Y                   Z               Mass
    ------------   -----------------  -----------------  -----------------  -----------------
         N           -1.762286972144     0.672813328268     0.203723119847    14.003074004430
         C           -0.867617972144    -0.335317671732    -0.110570880153    12.000000000000
         C            0.586711027856    -0.170375671732    -0.063499880153    12.000000000000
         C           -1.618684972144    -1.458979671732    -0.449260880153    12.000000000000
         C           -3.045615972144     0.203883328268     0.064223119847    12.000000000000
         C           -2.984191972144    -1.118218671732    -0.343155880153    12.000000000000
         C           -1.430419972144     2.007933328268     0.674327119847    12.000000000000
         C            1.318120227856     0.870122228268    -0.662396980153    12.000000000000
         C            1.369533027856    -1.138350671732     0.588705119847    12.000000000000
         C            2.622393027856     1.025404328268    -0.649493880153    12.000000000000
         C            2.759765027856    -1.030605671732     0.610632119847    12.000000000000
         C            3.390740027856     0.056163328268    -0.000189880153    12.000000000000
         H           -1.202258972144    -2.406431671732    -0.768840880153     1.007825032230
         H           -3.891501972144     0.844013328268     0.279165119847     1.007825032230
         H           -3.834486972144    -1.757651671732    -0.542499880153     1.007825032230
         H           -2.230441972144     2.352265328268     1.332412119847     1.007825032230
         H           -0.496197972144     1.973357328268     1.235682119847     1.007825032230
         H           -1.323096972144     2.712431328268    -0.155642880153     1.007825032230
         H            0.644436027856     1.639280328268    -1.242764880153     1.007825032230
         H            0.872081027856    -1.968745671732     1.085101119847     1.007825032230
         H            3.108208027856     1.865260328268    -1.141355880153     1.007825032230
         H            3.351888027856    -1.788357671732     1.118894119847     1.007825032230
         H            4.474154027856     0.144970328268     0.025677119847     1.007825032230

  Basis Set: AUG-CC-PVTZ
    Blend: AUG-CC-PVTZ
  Basis Set: (AUG-CC-PVTZ AUX)
    Blend: AUG-CC-PVTZ-JKFIT
	 Reference Energy          =    -477.5337596094371406 [Eh]
	 Singles Energy            =      -0.0000000000000000 [Eh]
	 Same-Spin Energy          =      -0.5393602144855496 [Eh]
	 Opposite-Spin Energy      =      -1.6834598309056048 [Eh]
	 Correlation Energy        =      -2.2228200453911544 [Eh]
	 Total Energy              =    -479.7565796548282719 [Eh]

	 ================> DF-SCS-MP2 Energies <==================
	-----------------------------------------------------------
	 SCS Same-Spin Scale       =       0.3333333333333333 [-]
	 SCS Opposite-Spin Scale   =       1.2000000000000000 [-]
	 SCS Same-Spin Energy      =      -0.1797867381618499 [Eh]
	 SCS Opposite-Spin Energy  =      -2.0201517970867258 [Eh]
	 SCS Correlation Energy    =      -2.1999385352485756 [Eh]
	 SCS Total Energy          =    -479.7336981446857180 [Eh]
	-----------------------------------------------------------

  Dipole Moment: [D]
     X:     0.4254      Y:     1.8332      Z:     0.6999     Total:     2.0079

*** Psi4 exiting successfully. Buy a developer a beer!
