                               Psi4 1.3.2 release

  ==> Input File <==

--------------------------------------------------------------------------
#psi4
#
memory 32 gb

molecule  {
0 1
  N       -1.7531090     0.6487580     0.1985890
  C       -0.7784584    -0.4112132    -0.1350437
  C        0.5958890    -0.1944310    -0.0686340
  C       -1.6095070    -1.4830350    -0.4543950
  C       -3.0364380     0.1798280     0.0590890
  C       -2.9750140    -1.1422740    -0.3482900
  C       -1.4212420     1.9838780     0.6691930
  C        1.2419450     0.8845030    -0.6969540
  C        1.3787110    -1.1624060     0.5835710
  C        2.6315710     1.0013490    -0.6546280
  C        2.7689430    -1.0546610     0.6054980
  C        3.3999180     0.0321080    -0.0053240
  H       -1.1930810    -2.4304870    -0.7739750
  H       -3.8823240     0.8199580     0.2740310
  H       -3.8253090    -1.7817070    -0.5476340
  H       -2.2212640     2.3282100     1.3272780
  H       -0.4870200     1.9493020     1.2305480
  H       -1.3139190     2.6883760    -0.1607770
  H        0.6536140     1.6152250    -1.2478990
  H        0.8812590    -1.9928010     1.0799670
  H        3.1173860     1.8412050    -1.1464900
  H        3.3610660    -1.8124130     1.1137600
  H        4.4833320     0.1209150     0.0205430
units angstrom
no_reorient  #important for SAPT in psi4, default
symmetry c1  #important for SAPT in psi4, default
}

set PROPERTIES_ORIGIN ["COM"]
properties('MP2/aug-cc-pvtz', properties = ['dipole'])
--------------------------------------------------------------------------

    Molecular point group: c1
  Charge       = 0
  Multiplicity = 1
  Basis Set: AUG-CC-PVTZ
    Blend: AUG-CC-PVTZ
  Basis Set: (AUG-CC-PVTZ AUX)
    Blend: AUG-CC-PVTZ-JKFIT

    Orbital Energies [Eh]
    ---------------------

    Doubly Occupied:

       1A    -15.601843     2A    -11.265479     3A    -11.257246
       4A    -11.256087     5A    -11.245572     6A    -11.241484
       7A    -11.240372     8A    -11.239573     9A    -11.238469
      10A    -11.237204    11A    -11.214955    12A    -11.207331
      13A     -1.276452    14A     -1.158578    15A     -1.071881
      16A     -1.051462    17A     -1.016854    18A     -0.954207
      19A     -0.924129    20A     -0.841130    21A     -0.832101
      22A     -0.762833    23A     -0.747476    24A     -0.707708
      25A     -0.678434    26A     -0.638352    27A     -0.632623
      28A     -0.620323    29A     -0.596667    30A     -0.587538
      31A     -0.574188    32A     -0.557466    33A     -0.543130
      34A     -0.520541    35A     -0.518235    36A     -0.504736
      37A     -0.496127    38A     -0.489119    39A     -0.360143
      40A     -0.340566    41A     -0.332207    42A     -0.272206

  @DF-RHF Final Energy:  -477.53076937488868

   => Energetics <=

    Nuclear Repulsion Energy =            638.6100394488194070
    One-Electron Energy =               -1912.5755651034044149
    Two-Electron Energy =                 796.4347562796963302
    Total Energy =                       -477.5307693748886777
  Basis Set: (AUG-CC-PVTZ AUX)
    Blend: AUG-CC-PVTZ-RI
    Molecular point group: c1

    Geometry (in Angstrom), charge = 0, multiplicity = 1:

       Center              X                  Y                   Z               Mass
    ------------   -----------------  -----------------  -----------------  -----------------
         N           -1.761876636992     0.673837264044     0.207448006017    14.003074004430
         C           -0.787226036992    -0.386133935956    -0.126184693983    12.000000000000
         C            0.587121363008    -0.169351735956    -0.059774993983    12.000000000000
         C           -1.618274636992    -1.457955735956    -0.445535993983    12.000000000000
         C           -3.045205636992     0.204907264044     0.067948006017    12.000000000000
         C           -2.983781636992    -1.117194735956    -0.339430993983    12.000000000000
         C           -1.430009636992     2.008957264044     0.678052006017    12.000000000000
         C            1.233177363008     0.909582264044    -0.688094993983    12.000000000000
         C            1.369943363008    -1.137326735956     0.592430006017    12.000000000000
         C            2.622803363008     1.026428264044    -0.645768993983    12.000000000000
         C            2.760175363008    -1.029581735956     0.614357006017    12.000000000000
         C            3.391150363008     0.057187264044     0.003535006017    12.000000000000
         H           -1.201848636992    -2.405407735956    -0.765115993983     1.007825032230
         H           -3.891091636992     0.845037264044     0.282890006017     1.007825032230
         H           -3.834076636992    -1.756627735956    -0.538774993983     1.007825032230
         H           -2.230031636992     2.353289264044     1.336137006017     1.007825032230
         H           -0.495787636992     1.974381264044     1.239407006017     1.007825032230
         H           -1.322686636992     2.713455264044    -0.151917993983     1.007825032230
         H            0.644846363008     1.640304264044    -1.239039993983     1.007825032230
         H            0.872491363008    -1.967721735956     1.088826006017     1.007825032230
         H            3.108618363008     1.866284264044    -1.137630993983     1.007825032230
         H            3.352298363008    -1.787333735956     1.122619006017     1.007825032230
         H            4.474564363008     0.145994264044     0.029402006017     1.007825032230

  Basis Set: AUG-CC-PVTZ
    Blend: AUG-CC-PVTZ
  Basis Set: (AUG-CC-PVTZ AUX)
    Blend: AUG-CC-PVTZ-JKFIT
	 Reference Energy          =    -477.5307693748886777 [Eh]
	 Singles Energy            =      -0.0000000000000000 [Eh]
	 Same-Spin Energy          =      -0.5406740083908221 [Eh]
	 Opposite-Spin Energy      =      -1.6863356886460870 [Eh]
	 Correlation Energy        =      -2.2270096970369089 [Eh]
	 Total Energy              =    -479.7577790719255972 [Eh]

	 ================> DF-SCS-MP2 Energies <==================
	-----------------------------------------------------------
	 SCS Same-Spin Scale       =       0.3333333333333333 [-]
	 SCS Opposite-Spin Scale   =       1.2000000000000000 [-]
	 SCS Same-Spin Energy      =      -0.1802246694636074 [Eh]
	 SCS Opposite-Spin Energy  =      -2.0236028263753041 [Eh]
	 SCS Correlation Energy    =      -2.2038274958389117 [Eh]
	 SCS Total Energy          =    -479.7345968707276143 [Eh]
	-----------------------------------------------------------

  Dipole Moment: [D]
     X:     0.5194      Y:     1.7418      Z:     0.6262     Total:     1.9224

*** Psi4 exiting successfully. Buy a developer a beer!
