                               Psi4 1.3.2 release

  ==> Input File <==

--------------------------------------------------------------------------
#psi4
#
memory 32 gb

molecule  {
0 1
  N       -1.7090024     0.5180403     0.1581655
  C       -0.8584400    -0.3593730    -0.1157050
  C        0.5958890    -0.1944310    -0.0686340
  C       -1.6095070    -1.4830350    -0.4543950
  C       -3.0364380     0.1798280     0.0590890
  C       -2.9750140    -1.1422740    -0.3482900
  C       -1.4212420     1.9838780     0.6691930
  C        1.2419450     0.8845030    -0.6969540
  C        1.3787110    -1.1624060     0.5835710
  C        2.6315710     1.0013490    -0.6546280
  C        2.7689430    -1.0546610     0.6054980
  C        3.3999180     0.0321080    -0.0053240
  H       -1.1930810    -2.4304870    -0.7739750
  H       -3.8823240     0.8199580     0.2740310
  H       -3.8253090    -1.7817070    -0.5476340
  H       -2.2212640     2.3282100     1.3272780
  H       -0.4870200     1.9493020     1.2305480
  H       -1.3139190     2.6883760    -0.1607770
  H        0.6536140     1.6152250    -1.2478990
  H        0.8812590    -1.9928010     1.0799670
  H        3.1173860     1.8412050    -1.1464900
  H        3.3610660    -1.8124130     1.1137600
  H        4.4833320     0.1209150     0.0205430
units angstrom
no_reorient  #important for SAPT in psi4, default
symmetry c1  #important for SAPT in psi4, default
}

set PROPERTIES_ORIGIN ["COM"]
properties('MP2/aug-cc-pvtz', properties = ['dipole'])
--------------------------------------------------------------------------

    Molecular point group: c1
  Charge       = 0
  Multiplicity = 1
  Basis Set: AUG-CC-PVTZ
    Blend: AUG-CC-PVTZ
  Basis Set: (AUG-CC-PVTZ AUX)
    Blend: AUG-CC-PVTZ-JKFIT

    Orbital Energies [Eh]
    ---------------------

    Doubly Occupied:

       1A    -15.611029     2A    -11.282615     3A    -11.252187
       4A    -11.246270     5A    -11.242571     6A    -11.241467
       7A    -11.240823     8A    -11.239640     9A    -11.238704
      10A    -11.236679    11A    -11.205260    12A    -11.192147
      13A     -1.327703    14A     -1.156483    15A     -1.051019
      16A     -1.048927    17A     -1.017513    18A     -0.975660
      19A     -0.930369    20A     -0.837083    21A     -0.832154
      22A     -0.775197    23A     -0.739108    24A     -0.708454
      25A     -0.681270    26A     -0.642800    27A     -0.636948
      28A     -0.620926    29A     -0.594912    30A     -0.591223
      31A     -0.586591    32A     -0.547101    33A     -0.538203
      34A     -0.532423    35A     -0.519361    36A     -0.505287
      37A     -0.494708    38A     -0.490218    39A     -0.353503
      40A     -0.341557    41A     -0.332965    42A     -0.274421

  @DF-RHF Final Energy:  -477.51764545389017

   => Energetics <=

    Nuclear Repulsion Energy =            641.1590747843132476
    One-Electron Energy =               -1917.5264830021565103
    Two-Electron Energy =                 798.8497627639529810
    Total Energy =                       -477.5176454538901680
  Basis Set: (AUG-CC-PVTZ AUX)
    Blend: AUG-CC-PVTZ-RI
    Molecular point group: c1

    Geometry (in Angstrom), charge = 0, multiplicity = 1:

       Center              X                  Y                   Z               Mass
    ------------   -----------------  -----------------  -----------------  -----------------
         N           -1.715591966657     0.550811802698     0.169150616340    14.003074004430
         C           -0.865029566657    -0.326601497302    -0.104719883660    12.000000000000
         C            0.589299433343    -0.161659497302    -0.057648883660    12.000000000000
         C           -1.616096566657    -1.450263497302    -0.443409883660    12.000000000000
         C           -3.043027566657     0.212599502698     0.070074116340    12.000000000000
         C           -2.981603566657    -1.109502497302    -0.337304883660    12.000000000000
         C           -1.427831566657     2.016649502698     0.680178116340    12.000000000000
         C            1.235355433343     0.917274502698    -0.685968883660    12.000000000000
         C            1.372121433343    -1.129634497302     0.594556116340    12.000000000000
         C            2.624981433343     1.034120502698    -0.643642883660    12.000000000000
         C            2.762353433343    -1.021889497302     0.616483116340    12.000000000000
         C            3.393328433343     0.064879502698     0.005661116340    12.000000000000
         H           -1.199670566657    -2.397715497302    -0.762989883660     1.007825032230
         H           -3.888913566657     0.852729502698     0.285016116340     1.007825032230
         H           -3.831898566657    -1.748935497302    -0.536648883660     1.007825032230
         H           -2.227853566657     2.360981502698     1.338263116340     1.007825032230
         H           -0.493609566657     1.982073502698     1.241533116340     1.007825032230
         H           -1.320508566657     2.721147502698    -0.149791883660     1.007825032230
         H            0.647024433343     1.647996502698    -1.236913883660     1.007825032230
         H            0.874669433343    -1.960029497302     1.090952116340     1.007825032230
         H            3.110796433343     1.873976502698    -1.135504883660     1.007825032230
         H            3.354476433343    -1.779641497302     1.124745116340     1.007825032230
         H            4.476742433343     0.153686502698     0.031528116340     1.007825032230

  Basis Set: AUG-CC-PVTZ
    Blend: AUG-CC-PVTZ
  Basis Set: (AUG-CC-PVTZ AUX)
    Blend: AUG-CC-PVTZ-JKFIT
	 Reference Energy          =    -477.5176454538901680 [Eh]
	 Singles Energy            =      -0.0000000000000000 [Eh]
	 Same-Spin Energy          =      -0.5396698973122076 [Eh]
	 Opposite-Spin Energy      =      -1.6834772224733565 [Eh]
	 Correlation Energy        =      -2.2231471197855641 [Eh]
	 Total Energy              =    -479.7407925736757193 [Eh]

	 ================> DF-SCS-MP2 Energies <==================
	-----------------------------------------------------------
	 SCS Same-Spin Scale       =       0.3333333333333333 [-]
	 SCS Opposite-Spin Scale   =       1.2000000000000000 [-]
	 SCS Same-Spin Energy      =      -0.1798899657707358 [Eh]
	 SCS Opposite-Spin Energy  =      -2.0201726669680276 [Eh]
	 SCS Correlation Energy    =      -2.2000626327387636 [Eh]
	 SCS Total Energy          =    -479.7177080866289316 [Eh]
	-----------------------------------------------------------

  Dipole Moment: [D]
     X:     0.6050      Y:     2.2619      Z:     0.8006     Total:     2.4745

*** Psi4 exiting successfully. Buy a developer a beer!
