                               Psi4 1.3.2 release

  ==> Input File <==

--------------------------------------------------------------------------
#psi4
#
memory 32 gb

molecule  {
0 1
  N       -1.7531090     0.6487580     0.1985890
  C       -0.8584400    -0.3593730    -0.1157050
  C        0.5958890    -0.1944310    -0.0686340
  C       -1.6227944    -1.5283243    -0.4685107
  C       -3.0364380     0.1798280     0.0590890
  C       -2.9750140    -1.1422740    -0.3482900
  C       -1.4212420     1.9838780     0.6691930
  C        1.2419450     0.8845030    -0.6969540
  C        1.3787110    -1.1624060     0.5835710
  C        2.6315710     1.0013490    -0.6546280
  C        2.7689430    -1.0546610     0.6054980
  C        3.3999180     0.0321080    -0.0053240
  H       -1.1930810    -2.4304870    -0.7739750
  H       -3.8823240     0.8199580     0.2740310
  H       -3.8253090    -1.7817070    -0.5476340
  H       -2.2212640     2.3282100     1.3272780
  H       -0.4870200     1.9493020     1.2305480
  H       -1.3139190     2.6883760    -0.1607770
  H        0.6536140     1.6152250    -1.2478990
  H        0.8812590    -1.9928010     1.0799670
  H        3.1173860     1.8412050    -1.1464900
  H        3.3610660    -1.8124130     1.1137600
  H        4.4833320     0.1209150     0.0205430
units angstrom
no_reorient  #important for SAPT in psi4, default
symmetry c1  #important for SAPT in psi4, default
}

set PROPERTIES_ORIGIN ["COM"]
properties('MP2/aug-cc-pvtz', properties = ['dipole'])
--------------------------------------------------------------------------

    Molecular point group: c1
  Charge       = 0
  Multiplicity = 1
  Basis Set: AUG-CC-PVTZ
    Blend: AUG-CC-PVTZ
  Basis Set: (AUG-CC-PVTZ AUX)
    Blend: AUG-CC-PVTZ-JKFIT

    Orbital Energies [Eh]
    ---------------------

    Doubly Occupied:

       1A    -15.611451     2A    -11.272040     3A    -11.262228
       4A    -11.250232     5A    -11.247470     6A    -11.240761
       7A    -11.239590     8A    -11.239295     9A    -11.237946
      10A    -11.237035    11A    -11.210248    12A    -11.209050
      13A     -1.297855    14A     -1.155074    15A     -1.070502
      16A     -1.043590    17A     -1.016209    18A     -0.952856
      19A     -0.936110    20A     -0.833393    21A     -0.830546
      22A     -0.772452    23A     -0.743351    24A     -0.712876
      25A     -0.677682    26A     -0.640547    27A     -0.632852
      28A     -0.622860    29A     -0.598256    30A     -0.587345
      31A     -0.572915    32A     -0.567169    33A     -0.541146
      34A     -0.528389    35A     -0.521855    36A     -0.502291
      37A     -0.492803    38A     -0.490765    39A     -0.352843
      40A     -0.340512    41A     -0.336200    42A     -0.270562

  @DF-RHF Final Energy:  -477.54097082285671

   => Energetics <=

    Nuclear Repulsion Energy =            638.0268522366868638
    One-Electron Energy =               -1911.3373437032291804
    Two-Electron Energy =                 795.7695206436856097
    Total Energy =                       -477.5409708228567069
  Basis Set: (AUG-CC-PVTZ AUX)
    Blend: AUG-CC-PVTZ-RI
    Molecular point group: c1

    Geometry (in Angstrom), charge = 0, multiplicity = 1:

       Center              X                  Y                   Z               Mass
    ------------   -----------------  -----------------  -----------------  -----------------
         N           -1.754751841902     0.673336842466     0.207049022381    14.003074004430
         C           -0.860082841902    -0.334794157534    -0.107244977619    12.000000000000
         C            0.594246158098    -0.169852157534    -0.060173977619    12.000000000000
         C           -1.624437241902    -1.503745457534    -0.460050677619    12.000000000000
         C           -3.038080841902     0.204406842466     0.067549022381    12.000000000000
         C           -2.976656841902    -1.117695157534    -0.339829977619    12.000000000000
         C           -1.422884841902     2.008456842466     0.677653022381    12.000000000000
         C            1.240302158098     0.909081842466    -0.688493977619    12.000000000000
         C            1.377068158098    -1.137827157534     0.592031022381    12.000000000000
         C            2.629928158098     1.025927842466    -0.646167977619    12.000000000000
         C            2.767300158098    -1.030082157534     0.613958022381    12.000000000000
         C            3.398275158098     0.056686842466     0.003136022381    12.000000000000
         H           -1.194723841902    -2.405908157534    -0.765514977619     1.007825032230
         H           -3.883966841902     0.844536842466     0.282491022381     1.007825032230
         H           -3.826951841902    -1.757128157534    -0.539173977619     1.007825032230
         H           -2.222906841902     2.352788842466     1.335738022381     1.007825032230
         H           -0.488662841902     1.973880842466     1.239008022381     1.007825032230
         H           -1.315561841902     2.712954842466    -0.152316977619     1.007825032230
         H            0.651971158098     1.639803842466    -1.239438977619     1.007825032230
         H            0.879616158098    -1.968222157534     1.088427022381     1.007825032230
         H            3.115743158098     1.865783842466    -1.138029977619     1.007825032230
         H            3.359423158098    -1.787834157534     1.122220022381     1.007825032230
         H            4.481689158098     0.145493842466     0.029003022381     1.007825032230

  Basis Set: AUG-CC-PVTZ
    Blend: AUG-CC-PVTZ
  Basis Set: (AUG-CC-PVTZ AUX)
    Blend: AUG-CC-PVTZ-JKFIT
	 Reference Energy          =    -477.5409708228567069 [Eh]
	 Singles Energy            =      -0.0000000000000000 [Eh]
	 Same-Spin Energy          =      -0.5398141993444756 [Eh]
	 Opposite-Spin Energy      =      -1.6843476282302510 [Eh]
	 Correlation Energy        =      -2.2241618275747266 [Eh]
	 Total Energy              =    -479.7651326504314397 [Eh]

	 ================> DF-SCS-MP2 Energies <==================
	-----------------------------------------------------------
	 SCS Same-Spin Scale       =       0.3333333333333333 [-]
	 SCS Opposite-Spin Scale   =       1.2000000000000000 [-]
	 SCS Same-Spin Energy      =      -0.1799380664481585 [Eh]
	 SCS Opposite-Spin Energy  =      -2.0212171538763011 [Eh]
	 SCS Correlation Energy    =      -2.2011552203244595 [Eh]
	 SCS Total Energy          =    -479.7421260431811447 [Eh]
	-----------------------------------------------------------

  Dipole Moment: [D]
     X:     0.4401      Y:     1.8969      Z:     0.6857     Total:     2.0645

*** Psi4 exiting successfully. Buy a developer a beer!
