                               Psi4 1.3.2 release

  ==> Input File <==

--------------------------------------------------------------------------
#psi4
#
memory 32 gb

molecule  {
0 1
  N       -1.7531090     0.6487580     0.1985890
  C       -0.8584400    -0.3593730    -0.1157050
  C        0.6176343    -0.2025322    -0.0606650
  C       -1.6095070    -1.4830350    -0.4543950
  C       -3.0364380     0.1798280     0.0590890
  C       -2.9750140    -1.1422740    -0.3482900
  C       -1.4212420     1.9838780     0.6691930
  C        1.2419450     0.8845030    -0.6969540
  C        1.3787110    -1.1624060     0.5835710
  C        2.6315710     1.0013490    -0.6546280
  C        2.7689430    -1.0546610     0.6054980
  C        3.3999180     0.0321080    -0.0053240
  H       -1.1930810    -2.4304870    -0.7739750
  H       -3.8823240     0.8199580     0.2740310
  H       -3.8253090    -1.7817070    -0.5476340
  H       -2.2212640     2.3282100     1.3272780
  H       -0.4870200     1.9493020     1.2305480
  H       -1.3139190     2.6883760    -0.1607770
  H        0.6536140     1.6152250    -1.2478990
  H        0.8812590    -1.9928010     1.0799670
  H        3.1173860     1.8412050    -1.1464900
  H        3.3610660    -1.8124130     1.1137600
  H        4.4833320     0.1209150     0.0205430
units angstrom
no_reorient  #important for SAPT in psi4, default
symmetry c1  #important for SAPT in psi4, default
}

set PROPERTIES_ORIGIN ["COM"]
properties('MP2/aug-cc-pvtz', properties = ['dipole'])
--------------------------------------------------------------------------

    Molecular point group: c1
  Charge       = 0
  Multiplicity = 1
  Basis Set: AUG-CC-PVTZ
    Blend: AUG-CC-PVTZ
  Basis Set: (AUG-CC-PVTZ AUX)
    Blend: AUG-CC-PVTZ-JKFIT

    Orbital Energies [Eh]
    ---------------------

    Doubly Occupied:

       1A    -15.607343     2A    -11.270547     3A    -11.257169
       4A    -11.249624     5A    -11.247873     6A    -11.240882
       7A    -11.239722     8A    -11.239431     9A    -11.237904
      10A    -11.235081    11A    -11.207782    12A    -11.206130
      13A     -1.298115    14A     -1.157271    15A     -1.072727
      16A     -1.042397    17A     -1.017540    18A     -0.955948
      19A     -0.932995    20A     -0.832880    21A     -0.830757
      22A     -0.770078    23A     -0.742620    24A     -0.712026
      25A     -0.677258    26A     -0.639868    27A     -0.631683
      28A     -0.623369    29A     -0.597288    30A     -0.588078
      31A     -0.569316    32A     -0.567473    33A     -0.537523
      34A     -0.526690    35A     -0.523274    36A     -0.502820
      37A     -0.495058    38A     -0.491847    39A     -0.354050
      40A     -0.340821    41A     -0.334852    42A     -0.276016

  @DF-RHF Final Energy:  -477.54600108657598

   => Energetics <=

    Nuclear Repulsion Energy =            639.0154797698448874
    One-Electron Energy =               -1913.3587062323379087
    Two-Electron Energy =                 796.7972253759170371
    Total Energy =                       -477.5460010865759841
  Basis Set: (AUG-CC-PVTZ AUX)
    Blend: AUG-CC-PVTZ-RI
    Molecular point group: c1

    Geometry (in Angstrom), charge = 0, multiplicity = 1:

       Center              X                  Y                   Z               Mass
    ------------   -----------------  -----------------  -----------------  -----------------
         N           -1.757427980908     0.670496053005     0.205361977789    14.003074004430
         C           -0.862758980908    -0.337634946995    -0.108932022211    12.000000000000
         C            0.613315319092    -0.180794146995    -0.053892022211    12.000000000000
         C           -1.613825980908    -1.461296946995    -0.447622022211    12.000000000000
         C           -3.040756980908     0.201566053005     0.065861977789    12.000000000000
         C           -2.979332980908    -1.120535946995    -0.341517022211    12.000000000000
         C           -1.425560980908     2.005616053005     0.675965977789    12.000000000000
         C            1.237626019092     0.906241053005    -0.690181022211    12.000000000000
         C            1.374392019092    -1.140667946995     0.590343977789    12.000000000000
         C            2.627252019092     1.023087053005    -0.647855022211    12.000000000000
         C            2.764624019092    -1.032922946995     0.612270977789    12.000000000000
         C            3.395599019092     0.053846053005     0.001448977789    12.000000000000
         H           -1.197399980908    -2.408748946995    -0.767202022211     1.007825032230
         H           -3.886642980908     0.841696053005     0.280803977789     1.007825032230
         H           -3.829627980908    -1.759968946995    -0.540861022211     1.007825032230
         H           -2.225582980908     2.349948053005     1.334050977789     1.007825032230
         H           -0.491338980908     1.971040053005     1.237320977789     1.007825032230
         H           -1.318237980908     2.710114053005    -0.154004022211     1.007825032230
         H            0.649295019092     1.636963053005    -1.241126022211     1.007825032230
         H            0.876940019092    -1.971062946995     1.086739977789     1.007825032230
         H            3.113067019092     1.862943053005    -1.139717022211     1.007825032230
         H            3.356747019092    -1.790674946995     1.120532977789     1.007825032230
         H            4.479013019092     0.142653053005     0.027315977789     1.007825032230

  Basis Set: AUG-CC-PVTZ
    Blend: AUG-CC-PVTZ
  Basis Set: (AUG-CC-PVTZ AUX)
    Blend: AUG-CC-PVTZ-JKFIT
	 Reference Energy          =    -477.5460010865759841 [Eh]
	 Singles Energy            =      -0.0000000000000000 [Eh]
	 Same-Spin Energy          =      -0.5388475509541008 [Eh]
	 Opposite-Spin Energy      =      -1.6827703308131845 [Eh]
	 Correlation Energy        =      -2.2216178817672851 [Eh]
	 Total Energy              =    -479.7676189683432426 [Eh]

	 ================> DF-SCS-MP2 Energies <==================
	-----------------------------------------------------------
	 SCS Same-Spin Scale       =       0.3333333333333333 [-]
	 SCS Opposite-Spin Scale   =       1.2000000000000000 [-]
	 SCS Same-Spin Energy      =      -0.1796158503180336 [Eh]
	 SCS Opposite-Spin Energy  =      -2.0193243969758212 [Eh]
	 SCS Correlation Energy    =      -2.1989402472938546 [Eh]
	 SCS Total Energy          =    -479.7449413338698605 [Eh]
	-----------------------------------------------------------

  Dipole Moment: [D]
     X:     0.5301      Y:     1.8648      Z:     0.6820     Total:     2.0551

*** Psi4 exiting successfully. Buy a developer a beer!
