                               Psi4 1.3.2 release

  ==> Input File <==

--------------------------------------------------------------------------
#psi4
#
memory 32 gb

molecule  {
0 1
  N       -1.7531090     0.6487580     0.1985890
  C       -0.8584400    -0.3593730    -0.1157050
  C        0.5958890    -0.1944310    -0.0686340
  C       -1.6377293    -1.5731432    -0.4824799
  C       -3.0364380     0.1798280     0.0590890
  C       -2.9750140    -1.1422740    -0.3482900
  C       -1.4212420     1.9838780     0.6691930
  C        1.2419450     0.8845030    -0.6969540
  C        1.3787110    -1.1624060     0.5835710
  C        2.6315710     1.0013490    -0.6546280
  C        2.7689430    -1.0546610     0.6054980
  C        3.3999180     0.0321080    -0.0053240
  H       -1.1930810    -2.4304870    -0.7739750
  H       -3.8823240     0.8199580     0.2740310
  H       -3.8253090    -1.7817070    -0.5476340
  H       -2.2212640     2.3282100     1.3272780
  H       -0.4870200     1.9493020     1.2305480
  H       -1.3139190     2.6883760    -0.1607770
  H        0.6536140     1.6152250    -1.2478990
  H        0.8812590    -1.9928010     1.0799670
  H        3.1173860     1.8412050    -1.1464900
  H        3.3610660    -1.8124130     1.1137600
  H        4.4833320     0.1209150     0.0205430
units angstrom
no_reorient  #important for SAPT in psi4, default
symmetry c1  #important for SAPT in psi4, default
}

set PROPERTIES_ORIGIN ["COM"]
properties('MP2/aug-cc-pvtz', properties = ['dipole'])
--------------------------------------------------------------------------

    Molecular point group: c1
  Charge       = 0
  Multiplicity = 1
  Basis Set: AUG-CC-PVTZ
    Blend: AUG-CC-PVTZ
  Basis Set: (AUG-CC-PVTZ AUX)
    Blend: AUG-CC-PVTZ-JKFIT

    Orbital Energies [Eh]
    ---------------------

    Doubly Occupied:

       1A    -15.615314     2A    -11.273405     3A    -11.267547
       4A    -11.250364     5A    -11.246434     6A    -11.240860
       7A    -11.239677     8A    -11.239391     9A    -11.237999
      10A    -11.237083    11A    -11.212409    12A    -11.211252
      13A     -1.297315    14A     -1.155139    15A     -1.068036
      16A     -1.043364    17A     -1.016292    18A     -0.950327
      19A     -0.938864    20A     -0.833760    21A     -0.830581
      22A     -0.776031    23A     -0.742904    24A     -0.712923
      25A     -0.677666    26A     -0.641550    27A     -0.634216
      28A     -0.623173    29A     -0.600263    30A     -0.587590
      31A     -0.575989    32A     -0.567007    33A     -0.547132
      34A     -0.526056    35A     -0.518959    36A     -0.502406
      37A     -0.492435    38A     -0.486044    39A     -0.351996
      40A     -0.340868    41A     -0.337138    42A     -0.266204

  @DF-RHF Final Energy:  -477.52980130612093

   => Energetics <=

    Nuclear Repulsion Energy =            637.0438106633893085
    One-Electron Energy =               -1909.3192929558081232
    Two-Electron Energy =                 794.7456809862979981
    Total Energy =                       -477.5298013061209303
  Basis Set: (AUG-CC-PVTZ AUX)
    Blend: AUG-CC-PVTZ-RI
    Molecular point group: c1

    Geometry (in Angstrom), charge = 0, multiplicity = 1:

       Center              X                  Y                   Z               Mass
    ------------   -----------------  -----------------  -----------------  -----------------
         N           -1.753610968705     0.676760546791     0.208116126002    14.003074004430
         C           -0.858941968705    -0.331370453209    -0.106177873998    12.000000000000
         C            0.595387031295    -0.166428453209    -0.059106873998    12.000000000000
         C           -1.638231268705    -1.545140653209    -0.472952773998    12.000000000000
         C           -3.036939968705     0.207830546791     0.068616126002    12.000000000000
         C           -2.975515968705    -1.114271453209    -0.338762873998    12.000000000000
         C           -1.421743968705     2.011880546791     0.678720126002    12.000000000000
         C            1.241443031295     0.912505546791    -0.687426873998    12.000000000000
         C            1.378209031295    -1.134403453209     0.593098126002    12.000000000000
         C            2.631069031295     1.029351546791    -0.645100873998    12.000000000000
         C            2.768441031295    -1.026658453209     0.615025126002    12.000000000000
         C            3.399416031295     0.060110546791     0.004203126002    12.000000000000
         H           -1.193582968705    -2.402484453209    -0.764447873998     1.007825032230
         H           -3.882825968705     0.847960546791     0.283558126002     1.007825032230
         H           -3.825810968705    -1.753704453209    -0.538106873998     1.007825032230
         H           -2.221765968705     2.356212546791     1.336805126002     1.007825032230
         H           -0.487521968705     1.977304546791     1.240075126002     1.007825032230
         H           -1.314420968705     2.716378546791    -0.151249873998     1.007825032230
         H            0.653112031295     1.643227546791    -1.238371873998     1.007825032230
         H            0.880757031295    -1.964798453209     1.089494126002     1.007825032230
         H            3.116884031295     1.869207546791    -1.136962873998     1.007825032230
         H            3.360564031295    -1.784410453209     1.123287126002     1.007825032230
         H            4.482830031295     0.148917546791     0.030070126002     1.007825032230

  Basis Set: AUG-CC-PVTZ
    Blend: AUG-CC-PVTZ
  Basis Set: (AUG-CC-PVTZ AUX)
    Blend: AUG-CC-PVTZ-JKFIT
	 Reference Energy          =    -477.5298013061209303 [Eh]
	 Singles Energy            =      -0.0000000000000000 [Eh]
	 Same-Spin Energy          =      -0.5405471110862707 [Eh]
	 Opposite-Spin Energy      =      -1.6857754713647783 [Eh]
	 Correlation Energy        =      -2.2263225824510489 [Eh]
	 Total Energy              =    -479.7561238885720059 [Eh]

	 ================> DF-SCS-MP2 Energies <==================
	-----------------------------------------------------------
	 SCS Same-Spin Scale       =       0.3333333333333333 [-]
	 SCS Opposite-Spin Scale   =       1.2000000000000000 [-]
	 SCS Same-Spin Energy      =      -0.1801823703620902 [Eh]
	 SCS Opposite-Spin Energy  =      -2.0229305656377341 [Eh]
	 SCS Correlation Energy    =      -2.2031129359998243 [Eh]
	 SCS Total Energy          =    -479.7329142421207280 [Eh]
	-----------------------------------------------------------

  Dipole Moment: [D]
     X:     0.4053      Y:     1.9380      Z:     0.6957     Total:     2.0986

*** Psi4 exiting successfully. Buy a developer a beer!
