                               Psi4 1.3.2 release

  ==> Input File <==

--------------------------------------------------------------------------
#psi4
#
memory 32 gb

molecule  {
0 1
  N       -1.7531090     0.6487580     0.1985890
  C       -0.9737205    -0.4433419    -0.1411356
  C        0.5958890    -0.1944310    -0.0686340
  C       -1.6095070    -1.4830350    -0.4543950
  C       -3.0364380     0.1798280     0.0590890
  C       -2.9750140    -1.1422740    -0.3482900
  C       -1.4212420     1.9838780     0.6691930
  C        1.2419450     0.8845030    -0.6969540
  C        1.3787110    -1.1624060     0.5835710
  C        2.6315710     1.0013490    -0.6546280
  C        2.7689430    -1.0546610     0.6054980
  C        3.3999180     0.0321080    -0.0053240
  H       -1.1930810    -2.4304870    -0.7739750
  H       -3.8823240     0.8199580     0.2740310
  H       -3.8253090    -1.7817070    -0.5476340
  H       -2.2212640     2.3282100     1.3272780
  H       -0.4870200     1.9493020     1.2305480
  H       -1.3139190     2.6883760    -0.1607770
  H        0.6536140     1.6152250    -1.2478990
  H        0.8812590    -1.9928010     1.0799670
  H        3.1173860     1.8412050    -1.1464900
  H        3.3610660    -1.8124130     1.1137600
  H        4.4833320     0.1209150     0.0205430
units angstrom
no_reorient  #important for SAPT in psi4, default
symmetry c1  #important for SAPT in psi4, default
}

set PROPERTIES_ORIGIN ["COM"]
properties('MP2/aug-cc-pvtz', properties = ['dipole'])
--------------------------------------------------------------------------

    Molecular point group: c1
  Charge       = 0
  Multiplicity = 1
  Basis Set: AUG-CC-PVTZ
    Blend: AUG-CC-PVTZ
  Basis Set: (AUG-CC-PVTZ AUX)
    Blend: AUG-CC-PVTZ-JKFIT

    Orbital Energies [Eh]
    ---------------------

    Doubly Occupied:

       1A    -15.598373     2A    -11.272695     3A    -11.253805
       4A    -11.250722     5A    -11.248135     6A    -11.239793
       7A    -11.238520     8A    -11.237888     9A    -11.236445
      10A    -11.234860    11A    -11.205441    12A    -11.192320
      13A     -1.303241    14A     -1.150309    15A     -1.093079
      16A     -1.029592    17A     -1.014448    18A     -0.962521
      19A     -0.936597    20A     -0.827322    21A     -0.821880
      22A     -0.778793    23A     -0.737362    24A     -0.713730
      25A     -0.675441    26A     -0.638632    27A     -0.626403
      28A     -0.620150    29A     -0.595937    30A     -0.588113
      31A     -0.584656    32A     -0.556965    33A     -0.538834
      34A     -0.533348    35A     -0.529065    36A     -0.499771
      37A     -0.491648    38A     -0.474385    39A     -0.355202
      40A     -0.338923    41A     -0.337092    42A     -0.289385

  @DF-RHF Final Energy:  -477.52167621972796

   => Energetics <=

    Nuclear Repulsion Energy =            639.0585492334338369
    One-Electron Energy =               -1913.4568183769622465
    Two-Electron Energy =                 796.8765929238005583
    Total Energy =                       -477.5216762197279650
  Basis Set: (AUG-CC-PVTZ AUX)
    Blend: AUG-CC-PVTZ-RI
    Molecular point group: c1

    Geometry (in Angstrom), charge = 0, multiplicity = 1:

       Center              X                  Y                   Z               Mass
    ------------   -----------------  -----------------  -----------------  -----------------
         N           -1.746960615041     0.676291567232     0.207913364703    14.003074004430
         C           -0.967572115041    -0.415808332768    -0.131811235297    12.000000000000
         C            0.602037384959    -0.166897432768    -0.059309635297    12.000000000000
         C           -1.603358615041    -1.455501432768    -0.445070635297    12.000000000000
         C           -3.030289615041     0.207361567232     0.068413364703    12.000000000000
         C           -2.968865615041    -1.114740432768    -0.338965635297    12.000000000000
         C           -1.415093615041     2.011411567232     0.678517364703    12.000000000000
         C            1.248093384959     0.912036567232    -0.687629635297    12.000000000000
         C            1.384859384959    -1.134872432768     0.592895364703    12.000000000000
         C            2.637719384959     1.028882567232    -0.645303635297    12.000000000000
         C            2.775091384959    -1.027127432768     0.614822364703    12.000000000000
         C            3.406066384959     0.059641567232     0.004000364703    12.000000000000
         H           -1.186932615041    -2.402953432768    -0.764650635297     1.007825032230
         H           -3.876175615041     0.847491567232     0.283355364703     1.007825032230
         H           -3.819160615041    -1.754173432768    -0.538309635297     1.007825032230
         H           -2.215115615041     2.355743567232     1.336602364703     1.007825032230
         H           -0.480871615041     1.976835567232     1.239872364703     1.007825032230
         H           -1.307770615041     2.715909567232    -0.151452635297     1.007825032230
         H            0.659762384959     1.642758567232    -1.238574635297     1.007825032230
         H            0.887407384959    -1.965267432768     1.089291364703     1.007825032230
         H            3.123534384959     1.868738567232    -1.137165635297     1.007825032230
         H            3.367214384959    -1.784879432768     1.123084364703     1.007825032230
         H            4.489480384959     0.148448567232     0.029867364703     1.007825032230

  Basis Set: AUG-CC-PVTZ
    Blend: AUG-CC-PVTZ
  Basis Set: (AUG-CC-PVTZ AUX)
    Blend: AUG-CC-PVTZ-JKFIT
	 Reference Energy          =    -477.5216762197279650 [Eh]
	 Singles Energy            =      -0.0000000000000000 [Eh]
	 Same-Spin Energy          =      -0.5363337241528019 [Eh]
	 Opposite-Spin Energy      =      -1.6798716181609303 [Eh]
	 Correlation Energy        =      -2.2162053423137325 [Eh]
	 Total Energy              =    -479.7378815620417072 [Eh]

	 ================> DF-SCS-MP2 Energies <==================
	-----------------------------------------------------------
	 SCS Same-Spin Scale       =       0.3333333333333333 [-]
	 SCS Opposite-Spin Scale   =       1.2000000000000000 [-]
	 SCS Same-Spin Energy      =      -0.1787779080509340 [Eh]
	 SCS Opposite-Spin Energy  =      -2.0158459417931165 [Eh]
	 SCS Correlation Energy    =      -2.1946238498440502 [Eh]
	 SCS Total Energy          =    -479.7163000695720143 [Eh]
	-----------------------------------------------------------

  Dipole Moment: [D]
     X:     0.5346      Y:     1.7481      Z:     0.6373     Total:     1.9360

*** Psi4 exiting successfully. Buy a developer a beer!
