                               Psi4 1.3.2 release

  ==> Input File <==

--------------------------------------------------------------------------
#psi4
#
memory 32 gb

molecule  {
0 1
  N       -1.7531090     0.6487580     0.1985890
  C       -0.8998553    -0.3349949    -0.1082341
  C        0.5958890    -0.1944310    -0.0686340
  C       -1.6095070    -1.4830350    -0.4543950
  C       -3.0364380     0.1798280     0.0590890
  C       -2.9750140    -1.1422740    -0.3482900
  C       -1.4212420     1.9838780     0.6691930
  C        1.2419450     0.8845030    -0.6969540
  C        1.3787110    -1.1624060     0.5835710
  C        2.6315710     1.0013490    -0.6546280
  C        2.7689430    -1.0546610     0.6054980
  C        3.3999180     0.0321080    -0.0053240
  H       -1.1930810    -2.4304870    -0.7739750
  H       -3.8823240     0.8199580     0.2740310
  H       -3.8253090    -1.7817070    -0.5476340
  H       -2.2212640     2.3282100     1.3272780
  H       -0.4870200     1.9493020     1.2305480
  H       -1.3139190     2.6883760    -0.1607770
  H        0.6536140     1.6152250    -1.2478990
  H        0.8812590    -1.9928010     1.0799670
  H        3.1173860     1.8412050    -1.1464900
  H        3.3610660    -1.8124130     1.1137600
  H        4.4833320     0.1209150     0.0205430
units angstrom
no_reorient  #important for SAPT in psi4, default
symmetry c1  #important for SAPT in psi4, default
}

set PROPERTIES_ORIGIN ["COM"]
properties('MP2/aug-cc-pvtz', properties = ['dipole'])
--------------------------------------------------------------------------

    Molecular point group: c1
  Charge       = 0
  Multiplicity = 1
  Basis Set: AUG-CC-PVTZ
    Blend: AUG-CC-PVTZ
  Basis Set: (AUG-CC-PVTZ AUX)
    Blend: AUG-CC-PVTZ-JKFIT

    Orbital Energies [Eh]
    ---------------------

    Doubly Occupied:

       1A    -15.609789     2A    -11.273435     3A    -11.256441
       4A    -11.252287     5A    -11.244514     6A    -11.240437
       7A    -11.239440     8A    -11.238932     9A    -11.237732
      10A    -11.237054    11A    -11.208600    12A    -11.203521
      13A     -1.312397    14A     -1.153685    15A     -1.075179
      16A     -1.039870    17A     -1.015901    18A     -0.958366
      19A     -0.937706    20A     -0.829973    21A     -0.829594
      22A     -0.775163    23A     -0.740822    24A     -0.714526
      25A     -0.677511    26A     -0.643303    27A     -0.631470
      28A     -0.622567    29A     -0.597122    30A     -0.587184
      31A     -0.577133    32A     -0.564913    33A     -0.536105
      34A     -0.530304    35A     -0.526817    36A     -0.502541
      37A     -0.492341    38A     -0.489197    39A     -0.351046
      40A     -0.340462    41A     -0.337082    42A     -0.275876

  @DF-RHF Final Energy:  -477.54515637383668

   => Energetics <=

    Nuclear Repulsion Energy =            639.3146200087654734
    One-Electron Energy =               -1913.9028774347787021
    Two-Electron Energy =                 797.0431010521764392
    Total Energy =                       -477.5451563738366758
  Basis Set: (AUG-CC-PVTZ AUX)
    Blend: AUG-CC-PVTZ-RI
    Molecular point group: c1

    Geometry (in Angstrom), charge = 0, multiplicity = 1:

       Center              X                  Y                   Z               Mass
    ------------   -----------------  -----------------  -----------------  -----------------
         N           -1.752603158805     0.668014967573     0.205400027520    14.003074004430
         C           -0.899349458805    -0.315737932427    -0.101423072480    12.000000000000
         C            0.596394841195    -0.175174032427    -0.061822972480    12.000000000000
         C           -1.609001158805    -1.463778032427    -0.447583972480    12.000000000000
         C           -3.035932158805     0.199084967573     0.065900027520    12.000000000000
         C           -2.974508158805    -1.123017032427    -0.341478972480    12.000000000000
         C           -1.420736158805     2.003134967573     0.676004027520    12.000000000000
         C            1.242450841195     0.903759967573    -0.690142972480    12.000000000000
         C            1.379216841195    -1.143149032427     0.590382027520    12.000000000000
         C            2.632076841195     1.020605967573    -0.647816972480    12.000000000000
         C            2.769448841195    -1.035404032427     0.612309027520    12.000000000000
         C            3.400423841195     0.051364967573     0.001487027520    12.000000000000
         H           -1.192575158805    -2.411230032427    -0.767163972480     1.007825032230
         H           -3.881818158805     0.839214967573     0.280842027520     1.007825032230
         H           -3.824803158805    -1.762450032427    -0.540822972480     1.007825032230
         H           -2.220758158805     2.347466967573     1.334089027520     1.007825032230
         H           -0.486514158805     1.968558967573     1.237359027520     1.007825032230
         H           -1.313413158805     2.707632967573    -0.153965972480     1.007825032230
         H            0.654119841195     1.634481967573    -1.241087972480     1.007825032230
         H            0.881764841195    -1.973544032427     1.086778027520     1.007825032230
         H            3.117891841195     1.860461967573    -1.139678972480     1.007825032230
         H            3.361571841195    -1.793156032427     1.120571027520     1.007825032230
         H            4.483837841195     0.140171967573     0.027354027520     1.007825032230

  Basis Set: AUG-CC-PVTZ
    Blend: AUG-CC-PVTZ
  Basis Set: (AUG-CC-PVTZ AUX)
    Blend: AUG-CC-PVTZ-JKFIT
	 Reference Energy          =    -477.5451563738366758 [Eh]
	 Singles Energy            =      -0.0000000000000000 [Eh]
	 Same-Spin Energy          =      -0.5386222118080768 [Eh]
	 Opposite-Spin Energy      =      -1.6820235575591882 [Eh]
	 Correlation Energy        =      -2.2206457693672652 [Eh]
	 Total Energy              =    -479.7658021432039277 [Eh]

	 ================> DF-SCS-MP2 Energies <==================
	-----------------------------------------------------------
	 SCS Same-Spin Scale       =       0.3333333333333333 [-]
	 SCS Opposite-Spin Scale   =       1.2000000000000000 [-]
	 SCS Same-Spin Energy      =      -0.1795407372693589 [Eh]
	 SCS Opposite-Spin Energy  =      -2.0184282690710256 [Eh]
	 SCS Correlation Energy    =      -2.1979690063403847 [Eh]
	 SCS Total Energy          =    -479.7431253801770481 [Eh]
	-----------------------------------------------------------

  Dipole Moment: [D]
     X:     0.4668      Y:     1.9231      Z:     0.7042     Total:     2.1005

*** Psi4 exiting successfully. Buy a developer a beer!
