                               Psi4 1.3.2 release

  ==> Input File <==

--------------------------------------------------------------------------
#psi4
#
memory 32 gb

molecule  {
0 1
  N       -1.7960020     0.6508506     0.2256367
  C       -0.8584400    -0.3593730    -0.1157050
  C        0.5958890    -0.1944310    -0.0686340
  C       -1.6095070    -1.4830350    -0.4543950
  C       -3.0364380     0.1798280     0.0590890
  C       -2.9750140    -1.1422740    -0.3482900
  C       -1.4212420     1.9838780     0.6691930
  C        1.2419450     0.8845030    -0.6969540
  C        1.3787110    -1.1624060     0.5835710
  C        2.6315710     1.0013490    -0.6546280
  C        2.7689430    -1.0546610     0.6054980
  C        3.3999180     0.0321080    -0.0053240
  H       -1.1930810    -2.4304870    -0.7739750
  H       -3.8823240     0.8199580     0.2740310
  H       -3.8253090    -1.7817070    -0.5476340
  H       -2.2212640     2.3282100     1.3272780
  H       -0.4870200     1.9493020     1.2305480
  H       -1.3139190     2.6883760    -0.1607770
  H        0.6536140     1.6152250    -1.2478990
  H        0.8812590    -1.9928010     1.0799670
  H        3.1173860     1.8412050    -1.1464900
  H        3.3610660    -1.8124130     1.1137600
  H        4.4833320     0.1209150     0.0205430
units angstrom
no_reorient  #important for SAPT in psi4, default
symmetry c1  #important for SAPT in psi4, default
}

set PROPERTIES_ORIGIN ["COM"]
properties('MP2/aug-cc-pvtz', properties = ['dipole'])
--------------------------------------------------------------------------

    Molecular point group: c1
  Charge       = 0
  Multiplicity = 1
  Basis Set: AUG-CC-PVTZ
    Blend: AUG-CC-PVTZ
  Basis Set: (AUG-CC-PVTZ AUX)
    Blend: AUG-CC-PVTZ-JKFIT

    Orbital Energies [Eh]
    ---------------------

    Doubly Occupied:

       1A    -15.608012     2A    -11.271120     3A    -11.255411
       4A    -11.250300     5A    -11.249278     6A    -11.240299
       7A    -11.239163     8A    -11.238796     9A    -11.237564
      10A    -11.236671    11A    -11.210485    12A    -11.204784
      13A     -1.300127    14A     -1.154998    15A     -1.073852
      16A     -1.043910    17A     -1.015826    18A     -0.956925
      19A     -0.932840    20A     -0.832607    21A     -0.830116
      22A     -0.770998    23A     -0.743097    24A     -0.712229
      25A     -0.678450    26A     -0.639768    27A     -0.632360
      28A     -0.622427    29A     -0.596903    30A     -0.586929
      31A     -0.576917    32A     -0.561329    33A     -0.536725
      34A     -0.527824    35A     -0.523853    36A     -0.501876
      37A     -0.494881    38A     -0.491486    39A     -0.355838
      40A     -0.339792    41A     -0.334510    42A     -0.274078

  @DF-RHF Final Energy:  -477.54335317039221

   => Energetics <=

    Nuclear Repulsion Energy =            638.6397805741049751
    One-Electron Energy =               -1912.5955592089389938
    Two-Electron Energy =                 796.4124254644418670
    Total Energy =                       -477.5433531703922654
  Basis Set: (AUG-CC-PVTZ AUX)
    Blend: AUG-CC-PVTZ-RI
    Molecular point group: c1

    Geometry (in Angstrom), charge = 0, multiplicity = 1:

       Center              X                  Y                   Z               Mass
    ------------   -----------------  -----------------  -----------------  -----------------
         N           -1.794836340773     0.671783268080     0.230607370335    14.003074004430
         C           -0.857274340773    -0.338440331920    -0.110734329665    12.000000000000
         C            0.597054659227    -0.173498331920    -0.063663329665    12.000000000000
         C           -1.608341340773    -1.462102331920    -0.449424329665    12.000000000000
         C           -3.035272340773     0.200760668080     0.064059670335    12.000000000000
         C           -2.973848340773    -1.121341331920    -0.343319329665    12.000000000000
         C           -1.420076340773     2.004810668080     0.674163670335    12.000000000000
         C            1.243110659227     0.905435668080    -0.691983329665    12.000000000000
         C            1.379876659227    -1.141473331920     0.588541670335    12.000000000000
         C            2.632736659227     1.022281668080    -0.649657329665    12.000000000000
         C            2.770108659227    -1.033728331920     0.610468670335    12.000000000000
         C            3.401083659227     0.053040668080    -0.000353329665    12.000000000000
         H           -1.191915340773    -2.409554331920    -0.769004329665     1.007825032230
         H           -3.881158340773     0.840890668080     0.279001670335     1.007825032230
         H           -3.824143340773    -1.760774331920    -0.542663329665     1.007825032230
         H           -2.220098340773     2.349142668080     1.332248670335     1.007825032230
         H           -0.485854340773     1.970234668080     1.235518670335     1.007825032230
         H           -1.312753340773     2.709308668080    -0.155806329665     1.007825032230
         H            0.654779659227     1.636157668080    -1.242928329665     1.007825032230
         H            0.882424659227    -1.971868331920     1.084937670335     1.007825032230
         H            3.118551659227     1.862137668080    -1.141519329665     1.007825032230
         H            3.362231659227    -1.791480331920     1.118730670335     1.007825032230
         H            4.484497659227     0.141847668080     0.025513670335     1.007825032230

  Basis Set: AUG-CC-PVTZ
    Blend: AUG-CC-PVTZ
  Basis Set: (AUG-CC-PVTZ AUX)
    Blend: AUG-CC-PVTZ-JKFIT
	 Reference Energy          =    -477.5433531703922085 [Eh]
	 Singles Energy            =      -0.0000000000000000 [Eh]
	 Same-Spin Energy          =      -0.5392519725208740 [Eh]
	 Opposite-Spin Energy      =      -1.6832905132182272 [Eh]
	 Correlation Energy        =      -2.2225424857391012 [Eh]
	 Total Energy              =    -479.7658956561313062 [Eh]

	 ================> DF-SCS-MP2 Energies <==================
	-----------------------------------------------------------
	 SCS Same-Spin Scale       =       0.3333333333333333 [-]
	 SCS Opposite-Spin Scale   =       1.2000000000000000 [-]
	 SCS Same-Spin Energy      =      -0.1797506575069580 [Eh]
	 SCS Opposite-Spin Energy  =      -2.0199486158618725 [Eh]
	 SCS Correlation Energy    =      -2.1996992733688305 [Eh]
	 SCS Total Energy          =    -479.7430524437610302 [Eh]
	-----------------------------------------------------------

  Dipole Moment: [D]
     X:     0.5115      Y:     1.8713      Z:     0.6671     Total:     2.0515

*** Psi4 exiting successfully. Buy a developer a beer!
