                               Psi4 1.3.2 release

  ==> Input File <==

--------------------------------------------------------------------------
#psi4
#
memory 32 gb

molecule  {
0 1
  N       -1.8112625     0.7736923     0.2395302
  C       -0.8584400    -0.3593730    -0.1157050
  C        0.5958890    -0.1944310    -0.0686340
  C       -1.6095070    -1.4830350    -0.4543950
  C       -3.0364380     0.1798280     0.0590890
  C       -2.9750140    -1.1422740    -0.3482900
  C       -1.4212420     1.9838780     0.6691930
  C        1.2419450     0.8845030    -0.6969540
  C        1.3787110    -1.1624060     0.5835710
  C        2.6315710     1.0013490    -0.6546280
  C        2.7689430    -1.0546610     0.6054980
  C        3.3999180     0.0321080    -0.0053240
  H       -1.1930810    -2.4304870    -0.7739750
  H       -3.8823240     0.8199580     0.2740310
  H       -3.8253090    -1.7817070    -0.5476340
  H       -2.2212640     2.3282100     1.3272780
  H       -0.4870200     1.9493020     1.2305480
  H       -1.3139190     2.6883760    -0.1607770
  H        0.6536140     1.6152250    -1.2478990
  H        0.8812590    -1.9928010     1.0799670
  H        3.1173860     1.8412050    -1.1464900
  H        3.3610660    -1.8124130     1.1137600
  H        4.4833320     0.1209150     0.0205430
units angstrom
no_reorient  #important for SAPT in psi4, default
symmetry c1  #important for SAPT in psi4, default
}

set PROPERTIES_ORIGIN ["COM"]
properties('MP2/aug-cc-pvtz', properties = ['dipole'])
--------------------------------------------------------------------------

    Molecular point group: c1
  Charge       = 0
  Multiplicity = 1
  Basis Set: AUG-CC-PVTZ
    Blend: AUG-CC-PVTZ
  Basis Set: (AUG-CC-PVTZ AUX)
    Blend: AUG-CC-PVTZ-JKFIT

    Orbital Energies [Eh]
    ---------------------

    Doubly Occupied:

       1A    -15.603099     2A    -11.264838     3A    -11.261528
       4A    -11.258931     5A    -11.249606     6A    -11.239810
       7A    -11.238842     8A    -11.238264     9A    -11.237220
      10A    -11.236508    11A    -11.221588    12A    -11.211064
      13A     -1.290178    14A     -1.155020    15A     -1.094903
      16A     -1.041706    17A     -1.015537    18A     -0.954887
      19A     -0.925464    20A     -0.831848    21A     -0.828953
      22A     -0.766791    23A     -0.749119    24A     -0.713404
      25A     -0.676229    26A     -0.643790    27A     -0.631248
      28A     -0.626186    29A     -0.603213    30A     -0.598090
      31A     -0.586680    32A     -0.556778    33A     -0.539818
      34A     -0.516470    35A     -0.510718    36A     -0.495067
      37A     -0.493311    38A     -0.484718    39A     -0.358614
      40A     -0.339457    41A     -0.335631    42A     -0.273098

  @DF-RHF Final Energy:  -477.51669789123582

   => Energetics <=

    Nuclear Repulsion Energy =            637.2515917914356578
    One-Electron Energy =               -1909.7401342807877427
    Two-Electron Energy =                 794.9718445981162631
    Total Energy =                       -477.5166978912358218
  Basis Set: (AUG-CC-PVTZ AUX)
    Blend: AUG-CC-PVTZ-RI
    Molecular point group: c1

    Geometry (in Angstrom), charge = 0, multiplicity = 1:

       Center              X                  Y                   Z               Mass
    ------------   -----------------  -----------------  -----------------  -----------------
         N           -1.808736505501     0.783674743810     0.243262390724    14.003074004430
         C           -0.855914005501    -0.349390556190    -0.111972809276    12.000000000000
         C            0.598414994499    -0.184448556190    -0.064901809276    12.000000000000
         C           -1.606981005501    -1.473052556190    -0.450662809276    12.000000000000
         C           -3.033912005501     0.189810443810     0.062821190724    12.000000000000
         C           -2.972488005501    -1.132291556190    -0.344557809276    12.000000000000
         C           -1.418716005501     1.993860443810     0.672925190724    12.000000000000
         C            1.244470994499     0.894485443810    -0.693221809276    12.000000000000
         C            1.381236994499    -1.152423556190     0.587303190724    12.000000000000
         C            2.634096994499     1.011331443810    -0.650895809276    12.000000000000
         C            2.771468994499    -1.044678556190     0.609230190724    12.000000000000
         C            3.402443994499     0.042090443810    -0.001591809276    12.000000000000
         H           -1.190555005501    -2.420504556190    -0.770242809276     1.007825032230
         H           -3.879798005501     0.829940443810     0.277763190724     1.007825032230
         H           -3.822783005501    -1.771724556190    -0.543901809276     1.007825032230
         H           -2.218738005501     2.338192443810     1.331010190724     1.007825032230
         H           -0.484494005501     1.959284443810     1.234280190724     1.007825032230
         H           -1.311393005501     2.698358443810    -0.157044809276     1.007825032230
         H            0.656139994499     1.625207443810    -1.244166809276     1.007825032230
         H            0.883784994499    -1.982818556190     1.083699190724     1.007825032230
         H            3.119911994499     1.851187443810    -1.142757809276     1.007825032230
         H            3.363591994499    -1.802430556190     1.117492190724     1.007825032230
         H            4.485857994499     0.130897443810     0.024275190724     1.007825032230

  Basis Set: AUG-CC-PVTZ
    Blend: AUG-CC-PVTZ
  Basis Set: (AUG-CC-PVTZ AUX)
    Blend: AUG-CC-PVTZ-JKFIT
	 Reference Energy          =    -477.5166978912358218 [Eh]
	 Singles Energy            =      -0.0000000000000000 [Eh]
	 Same-Spin Energy          =      -0.5401588585848793 [Eh]
	 Opposite-Spin Energy      =      -1.6861967029034060 [Eh]
	 Correlation Energy        =      -2.2263555614882851 [Eh]
	 Total Energy              =    -479.7430534527240980 [Eh]

	 ================> DF-SCS-MP2 Energies <==================
	-----------------------------------------------------------
	 SCS Same-Spin Scale       =       0.3333333333333333 [-]
	 SCS Opposite-Spin Scale   =       1.2000000000000000 [-]
	 SCS Same-Spin Energy      =      -0.1800529528616264 [Eh]
	 SCS Opposite-Spin Energy  =      -2.0234360434840872 [Eh]
	 SCS Correlation Energy    =      -2.2034889963457136 [Eh]
	 SCS Total Energy          =    -479.7201868875815194 [Eh]
	-----------------------------------------------------------

  Dipole Moment: [D]
     X:     0.4766      Y:     1.4426      Z:     0.5496     Total:     1.6157

*** Psi4 exiting successfully. Buy a developer a beer!
