                               Psi4 1.3.2 release

  ==> Input File <==

--------------------------------------------------------------------------
#psi4
#
memory 32 gb

molecule  {
0 1
  N       -1.7531090     0.6487580     0.1985890
  C       -0.8584400    -0.3593730    -0.1157050
  C        0.5958890    -0.1944310    -0.0686340
  C       -1.6095070    -1.4830350    -0.4543950
  C       -3.0364380     0.1798280     0.0590890
  C       -3.1199284    -1.1420502    -0.3450787
  C       -1.4212420     1.9838780     0.6691930
  C        1.2419450     0.8845030    -0.6969540
  C        1.3787110    -1.1624060     0.5835710
  C        2.6315710     1.0013490    -0.6546280
  C        2.7689430    -1.0546610     0.6054980
  C        3.3999180     0.0321080    -0.0053240
  H       -1.1930810    -2.4304870    -0.7739750
  H       -3.8823240     0.8199580     0.2740310
  H       -3.8253090    -1.7817070    -0.5476340
  H       -2.2212640     2.3282100     1.3272780
  H       -0.4870200     1.9493020     1.2305480
  H       -1.3139190     2.6883760    -0.1607770
  H        0.6536140     1.6152250    -1.2478990
  H        0.8812590    -1.9928010     1.0799670
  H        3.1173860     1.8412050    -1.1464900
  H        3.3610660    -1.8124130     1.1137600
  H        4.4833320     0.1209150     0.0205430
units angstrom
no_reorient  #important for SAPT in psi4, default
symmetry c1  #important for SAPT in psi4, default
}

set PROPERTIES_ORIGIN ["COM"]
properties('MP2/aug-cc-pvtz', properties = ['dipole'])
--------------------------------------------------------------------------

    Molecular point group: c1
  Charge       = 0
  Multiplicity = 1
  Basis Set: AUG-CC-PVTZ
    Blend: AUG-CC-PVTZ
  Basis Set: (AUG-CC-PVTZ AUX)
    Blend: AUG-CC-PVTZ-JKFIT

    Orbital Energies [Eh]
    ---------------------

    Doubly Occupied:

       1A    -15.604718     2A    -11.271244     3A    -11.259866
       4A    -11.257618     5A    -11.251396     6A    -11.241572
       7A    -11.240486     8A    -11.239950     9A    -11.238804
      10A    -11.237861    11A    -11.217519    12A    -11.212270
      13A     -1.294922    14A     -1.155902    15A     -1.060757
      16A     -1.043613    17A     -1.016831    18A     -0.960612
      19A     -0.926607    20A     -0.834530    21A     -0.831256
      22A     -0.784955    23A     -0.740026    24A     -0.714512
      25A     -0.677652    26A     -0.640198    27A     -0.633020
      28A     -0.624584    29A     -0.609692    30A     -0.588088
      31A     -0.581060    32A     -0.568632    33A     -0.542030
      34A     -0.522935    35A     -0.506754    36A     -0.502684
      37A     -0.492053    38A     -0.480727    39A     -0.355667
      40A     -0.340494    41A     -0.322757    42A     -0.282843

  @DF-RHF Final Energy:  -477.52206380754888

   => Energetics <=

    Nuclear Repulsion Energy =            636.4643255458495332
    One-Electron Energy =               -1908.1533865124845306
    Two-Electron Energy =                 794.1669971590861223
    Total Energy =                       -477.5220638075488750
  Basis Set: (AUG-CC-PVTZ AUX)
    Blend: AUG-CC-PVTZ-RI
    Molecular point group: c1

    Geometry (in Angstrom), charge = 0, multiplicity = 1:

       Center              X                  Y                   Z               Mass
    ------------   -----------------  -----------------  -----------------  -----------------
         N           -1.744696888989     0.669860108381     0.205725417277    14.003074004430
         C           -0.850027888989    -0.338270891619    -0.108568582723    12.000000000000
         C            0.604301111011    -0.173328891619    -0.061497582723    12.000000000000
         C           -1.601094888989    -1.461932891619    -0.447258582723    12.000000000000
         C           -3.028025888989     0.200930108381     0.066225417277    12.000000000000
         C           -3.111516288989    -1.120948091619    -0.337942282723    12.000000000000
         C           -1.412829888989     2.004980108381     0.676329417277    12.000000000000
         C            1.250357111011     0.905605108381    -0.689817582723    12.000000000000
         C            1.387123111011    -1.141303891619     0.590707417277    12.000000000000
         C            2.639983111011     1.022451108381    -0.647491582723    12.000000000000
         C            2.777355111011    -1.033558891619     0.612634417277    12.000000000000
         C            3.408330111011     0.053210108381     0.001812417277    12.000000000000
         H           -1.184668888989    -2.409384891619    -0.766838582723     1.007825032230
         H           -3.873911888989     0.841060108381     0.281167417277     1.007825032230
         H           -3.816896888989    -1.760604891619    -0.540497582723     1.007825032230
         H           -2.212851888989     2.349312108381     1.334414417277     1.007825032230
         H           -0.478607888989     1.970404108381     1.237684417277     1.007825032230
         H           -1.305506888989     2.709478108381    -0.153640582723     1.007825032230
         H            0.662026111011     1.636327108381    -1.240762582723     1.007825032230
         H            0.889671111011    -1.971698891619     1.087103417277     1.007825032230
         H            3.125798111011     1.862307108381    -1.139353582723     1.007825032230
         H            3.369478111011    -1.791310891619     1.120896417277     1.007825032230
         H            4.491744111011     0.142017108381     0.027679417277     1.007825032230

  Basis Set: AUG-CC-PVTZ
    Blend: AUG-CC-PVTZ
  Basis Set: (AUG-CC-PVTZ AUX)
    Blend: AUG-CC-PVTZ-JKFIT
	 Reference Energy          =    -477.5220638075488750 [Eh]
	 Singles Energy            =      -0.0000000000000000 [Eh]
	 Same-Spin Energy          =      -0.5377615034473547 [Eh]
	 Opposite-Spin Energy      =      -1.6835981796579409 [Eh]
	 Correlation Energy        =      -2.2213596831052955 [Eh]
	 Total Energy              =    -479.7434234906541519 [Eh]

	 ================> DF-SCS-MP2 Energies <==================
	-----------------------------------------------------------
	 SCS Same-Spin Scale       =       0.3333333333333333 [-]
	 SCS Opposite-Spin Scale   =       1.2000000000000000 [-]
	 SCS Same-Spin Energy      =      -0.1792538344824516 [Eh]
	 SCS Opposite-Spin Energy  =      -2.0203178155895292 [Eh]
	 SCS Correlation Energy    =      -2.1995716500719809 [Eh]
	 SCS Total Energy          =    -479.7216354576208346 [Eh]
	-----------------------------------------------------------

  Dipole Moment: [D]
     X:     0.5886      Y:     1.8832      Z:     0.6858     Total:     2.0889

*** Psi4 exiting successfully. Buy a developer a beer!
