                               Psi4 1.3.2 release

  ==> Input File <==

--------------------------------------------------------------------------
#psi4
#
memory 32 gb

molecule  {
0 1
  N       -1.7345433     0.6635354     0.2031099
  C       -0.8584400    -0.3593730    -0.1157050
  C        0.5958890    -0.1944310    -0.0686340
  C       -1.6095070    -1.4830350    -0.4543950
  C       -3.0364380     0.1798280     0.0590890
  C       -2.9750140    -1.1422740    -0.3482900
  C       -1.4212420     1.9838780     0.6691930
  C        1.2419450     0.8845030    -0.6969540
  C        1.3787110    -1.1624060     0.5835710
  C        2.6315710     1.0013490    -0.6546280
  C        2.7689430    -1.0546610     0.6054980
  C        3.3999180     0.0321080    -0.0053240
  H       -1.1930810    -2.4304870    -0.7739750
  H       -3.8823240     0.8199580     0.2740310
  H       -3.8253090    -1.7817070    -0.5476340
  H       -2.2212640     2.3282100     1.3272780
  H       -0.4870200     1.9493020     1.2305480
  H       -1.3139190     2.6883760    -0.1607770
  H        0.6536140     1.6152250    -1.2478990
  H        0.8812590    -1.9928010     1.0799670
  H        3.1173860     1.8412050    -1.1464900
  H        3.3610660    -1.8124130     1.1137600
  H        4.4833320     0.1209150     0.0205430
units angstrom
no_reorient  #important for SAPT in psi4, default
symmetry c1  #important for SAPT in psi4, default
}

set PROPERTIES_ORIGIN ["COM"]
properties('MP2/aug-cc-pvtz', properties = ['dipole'])
--------------------------------------------------------------------------

    Molecular point group: c1
  Charge       = 0
  Multiplicity = 1
  Basis Set: AUG-CC-PVTZ
    Blend: AUG-CC-PVTZ
  Basis Set: (AUG-CC-PVTZ AUX)
    Blend: AUG-CC-PVTZ-JKFIT

    Orbital Energies [Eh]
    ---------------------

    Doubly Occupied:

       1A    -15.606678     2A    -11.268533     3A    -11.258607
       4A    -11.250013     5A    -11.249843     6A    -11.240806
       7A    -11.239671     8A    -11.239344     9A    -11.238069
      10A    -11.237142    11A    -11.210652    12A    -11.207523
      13A     -1.295941    14A     -1.155033    15A     -1.076847
      16A     -1.043426    17A     -1.016274    18A     -0.954750
      19A     -0.932296    20A     -0.833314    21A     -0.830661
      22A     -0.770024    23A     -0.744000    24A     -0.712650
      25A     -0.677279    26A     -0.640350    27A     -0.631622
      28A     -0.622853    29A     -0.597240    30A     -0.587234
      31A     -0.575618    32A     -0.565088    33A     -0.538118
      34A     -0.526332    35A     -0.521369    36A     -0.501412
      37A     -0.494970    38A     -0.491270    39A     -0.353411
      40A     -0.340488    41A     -0.336094    42A     -0.275431

  @DF-RHF Final Energy:  -477.54482093547165

   => Energetics <=

    Nuclear Repulsion Energy =            638.9921513570326397
    One-Electron Energy =               -1913.2973878023101406
    Two-Electron Energy =                 796.7604155098057390
    Total Energy =                       -477.5448209354716482
  Basis Set: (AUG-CC-PVTZ AUX)
    Blend: AUG-CC-PVTZ-RI
    Molecular point group: c1

    Geometry (in Angstrom), charge = 0, multiplicity = 1:

       Center              X                  Y                   Z               Mass
    ------------   -----------------  -----------------  -----------------  -----------------
         N           -1.738856126893     0.683337333120     0.210088630400    14.003074004430
         C           -0.862752826893    -0.339571066880    -0.108726269600    12.000000000000
         C            0.591576173107    -0.174629066880    -0.061655269600    12.000000000000
         C           -1.613819826893    -1.463233066880    -0.447416269600    12.000000000000
         C           -3.040750826893     0.199629933120     0.066067730400    12.000000000000
         C           -2.979326826893    -1.122472066880    -0.341311269600    12.000000000000
         C           -1.425554826893     2.003679933120     0.676171730400    12.000000000000
         C            1.237632173107     0.904304933120    -0.689975269600    12.000000000000
         C            1.374398173107    -1.142604066880     0.590549730400    12.000000000000
         C            2.627258173107     1.021150933120    -0.647649269600    12.000000000000
         C            2.764630173107    -1.034859066880     0.612476730400    12.000000000000
         C            3.395605173107     0.051909933120     0.001654730400    12.000000000000
         H           -1.197393826893    -2.410685066880    -0.766996269600     1.007825032230
         H           -3.886636826893     0.839759933120     0.281009730400     1.007825032230
         H           -3.829621826893    -1.761905066880    -0.540655269600     1.007825032230
         H           -2.225576826893     2.348011933120     1.334256730400     1.007825032230
         H           -0.491332826893     1.969103933120     1.237526730400     1.007825032230
         H           -1.318231826893     2.708177933120    -0.153798269600     1.007825032230
         H            0.649301173107     1.635026933120    -1.240920269600     1.007825032230
         H            0.876946173107    -1.972999066880     1.086945730400     1.007825032230
         H            3.113073173107     1.861006933120    -1.139511269600     1.007825032230
         H            3.356753173107    -1.792611066880     1.120738730400     1.007825032230
         H            4.479019173107     0.140716933120     0.027521730400     1.007825032230

  Basis Set: AUG-CC-PVTZ
    Blend: AUG-CC-PVTZ
  Basis Set: (AUG-CC-PVTZ AUX)
    Blend: AUG-CC-PVTZ-JKFIT
	 Reference Energy          =    -477.5448209354716482 [Eh]
	 Singles Energy            =      -0.0000000000000000 [Eh]
	 Same-Spin Energy          =      -0.5391817925044294 [Eh]
	 Opposite-Spin Energy      =      -1.6834951070549069 [Eh]
	 Correlation Energy        =      -2.2226768995593362 [Eh]
	 Total Energy              =    -479.7674978350310084 [Eh]

	 ================> DF-SCS-MP2 Energies <==================
	-----------------------------------------------------------
	 SCS Same-Spin Scale       =       0.3333333333333333 [-]
	 SCS Opposite-Spin Scale   =       1.2000000000000000 [-]
	 SCS Same-Spin Energy      =      -0.1797272641681431 [Eh]
	 SCS Opposite-Spin Energy  =      -2.0201941284658882 [Eh]
	 SCS Correlation Energy    =      -2.1999213926340313 [Eh]
	 SCS Total Energy          =    -479.7447423281057013 [Eh]
	-----------------------------------------------------------

  Dipole Moment: [D]
     X:     0.4447      Y:     1.7862      Z:     0.6550     Total:     1.9538

*** Psi4 exiting successfully. Buy a developer a beer!
