                               Psi4 1.4a3.dev225

  ==> Input File <==

--------------------------------------------------------------------------
#psi4
#
memory 32 gb

molecule  {
0 1
  N       -1.7531090     0.6487580     0.1985890
  C       -0.8584400    -0.3593730    -0.1157050
  C        0.5958890    -0.1944310    -0.0686340
  C       -1.6095070    -1.4830350    -0.4543950
  C       -3.0364380     0.1798280     0.0590890
  C       -2.9750140    -1.1422740    -0.3482900
  C       -1.4212420     1.9838780     0.6691930
  C        1.2419450     0.8845030    -0.6969540
  C        1.3787110    -1.1624060     0.5835710
  C        2.6315710     1.0013490    -0.6546280
  C        2.7689430    -1.0546610     0.6054980
  C        3.3999180     0.0321080    -0.0053240
  H       -1.1738580    -2.4742231    -0.7887274
  H       -3.8823240     0.8199580     0.2740310
  H       -3.8253090    -1.7817070    -0.5476340
  H       -2.2212640     2.3282100     1.3272780
  H       -0.4870200     1.9493020     1.2305480
  H       -1.3139190     2.6883760    -0.1607770
  H        0.6536140     1.6152250    -1.2478990
  H        0.8812590    -1.9928010     1.0799670
  H        3.1173860     1.8412050    -1.1464900
  H        3.3610660    -1.8124130     1.1137600
  H        4.4833320     0.1209150     0.0205430
units angstrom
no_reorient  #important for SAPT in psi4, default
symmetry c1  #important for SAPT in psi4, default
}

set PROPERTIES_ORIGIN ["COM"]
properties('MP2/aug-cc-pvtz', properties = ['dipole'])
--------------------------------------------------------------------------

    Molecular point group: c1
  Charge       = 0
  Multiplicity = 1
  Basis Set: AUG-CC-PVTZ
    Blend: AUG-CC-PVTZ
  Basis Set: (AUG-CC-PVTZ AUX)
    Blend: AUG-CC-PVTZ-JKFIT

    Orbital Energies [Eh]
    ---------------------

    Doubly Occupied:

       1A    -15.607922     2A    -11.270864     3A    -11.256911
       4A    -11.250157     5A    -11.248915     6A    -11.240687
       7A    -11.239532     8A    -11.239221     9A    -11.237920
      10A    -11.236987    11A    -11.213030    12A    -11.208563
      13A     -1.299222    14A     -1.155038    15A     -1.073105
      16A     -1.044004    17A     -1.016138    18A     -0.955838
      19A     -0.932461    20A     -0.833098    21A     -0.830493
      22A     -0.768510    23A     -0.742375    24A     -0.710159
      25A     -0.677690    26A     -0.639938    27A     -0.631812
      28A     -0.622312    29A     -0.595928    30A     -0.587103
      31A     -0.569390    32A     -0.566250    33A     -0.538016
      34A     -0.524995    35A     -0.521759    36A     -0.502191
      37A     -0.494988    38A     -0.491679    39A     -0.354007
      40A     -0.340254    41A     -0.335594    42A     -0.275376

  @DF-RHF Final Energy:  -477.54347884903780

   => Energetics <=

    Nuclear Repulsion Energy =            638.7965515160921086
    One-Electron Energy =               -1912.9191983292273562
    Two-Electron Energy =                 796.5791679640975644
    Total Energy =                       -477.5434788490377969
  Basis Set: (AUG-CC-PVTZ AUX)
    Blend: AUG-CC-PVTZ-RI
    Molecular point group: c1

    Geometry (in Angstrom), charge = 0, multiplicity = 1:

       Center              X                  Y                   Z               Mass
    ------------   -----------------  -----------------  -----------------  -----------------
         N           -1.755890190549     0.670157798811     0.206065373526    14.003074004430
         C           -0.861221190549    -0.337973201189    -0.108228626474    12.000000000000
         C            0.593107809451    -0.173031201189    -0.061157626474    12.000000000000
         C           -1.612288190549    -1.461635201189    -0.446918626474    12.000000000000
         C           -3.039219190549     0.201227798811     0.066565373526    12.000000000000
         C           -2.977795190549    -1.120874201189    -0.340813626474    12.000000000000
         C           -1.424023190549     2.005277798811     0.676669373526    12.000000000000
         C            1.239163809451     0.905902798811    -0.689477626474    12.000000000000
         C            1.375929809451    -1.141006201189     0.591047373526    12.000000000000
         C            2.628789809451     1.022748798811    -0.647151626474    12.000000000000
         C            2.766161809451    -1.033261201189     0.612974373526    12.000000000000
         C            3.397136809451     0.053507798811     0.002152373526    12.000000000000
         H           -1.176639190549    -2.452823301189    -0.781251026474     1.007825032230
         H           -3.885105190549     0.841357798811     0.281507373526     1.007825032230
         H           -3.828090190549    -1.760307201189    -0.540157626474     1.007825032230
         H           -2.224045190549     2.349609798811     1.334754373526     1.007825032230
         H           -0.489801190549     1.970701798811     1.238024373526     1.007825032230
         H           -1.316700190549     2.709775798811    -0.153300626474     1.007825032230
         H            0.650832809451     1.636624798811    -1.240422626474     1.007825032230
         H            0.878477809451    -1.971401201189     1.087443373526     1.007825032230
         H            3.114604809451     1.862604798811    -1.139013626474     1.007825032230
         H            3.358284809451    -1.791013201189     1.121236373526     1.007825032230
         H            4.480550809451     0.142314798811     0.028019373526     1.007825032230

  Basis Set: AUG-CC-PVTZ
    Blend: AUG-CC-PVTZ
  Basis Set: (AUG-CC-PVTZ AUX)
    Blend: AUG-CC-PVTZ-JKFIT
	 Reference Energy          =    -477.5434788490377969 [Eh]
	 Singles Energy            =      -0.0000000000000000 [Eh]
	 Same-Spin Energy          =      -0.5392740411715953 [Eh]
	 Opposite-Spin Energy      =      -1.6836578504620971 [Eh]
	 Correlation Energy        =      -2.2229318916336922 [Eh]
	 Total Energy              =    -479.7664107406715175 [Eh]

	 ================> DF-SCS-MP2 Energies <==================
	-----------------------------------------------------------
	 SCS Same-Spin Scale       =       0.3333333333333333 [-]
	 SCS Opposite-Spin Scale   =       1.2000000000000000 [-]
	 SCS Same-Spin Energy      =      -0.1797580137238651 [Eh]
	 SCS Opposite-Spin Energy  =      -2.0203894205545163 [Eh]
	 SCS Correlation Energy    =      -2.2001474342783816 [Eh]
	 SCS Total Energy          =    -479.7436262833161891 [Eh]
	-----------------------------------------------------------

  Dipole Moment: [D]
     X:     0.4613      Y:     1.8672      Z:     0.6800     Total:     2.0400

*** Psi4 exiting successfully. Buy a developer a beer!
