                               Psi4 1.3.2 release

  ==> Input File <==

--------------------------------------------------------------------------
#psi4
#
memory 32 gb

molecule  {
0 1
  N       -1.7531090     0.6487580     0.1985890
  C       -0.8584400    -0.3593730    -0.1157050
  C        0.5958890    -0.1944310    -0.0686340
  C       -1.6095070    -1.4830350    -0.4543950
  C       -3.0846819     0.1770098     0.0580933
  C       -2.9750140    -1.1422740    -0.3482900
  C       -1.4212420     1.9838780     0.6691930
  C        1.2419450     0.8845030    -0.6969540
  C        1.3787110    -1.1624060     0.5835710
  C        2.6315710     1.0013490    -0.6546280
  C        2.7689430    -1.0546610     0.6054980
  C        3.3999180     0.0321080    -0.0053240
  H       -1.1930810    -2.4304870    -0.7739750
  H       -3.8823240     0.8199580     0.2740310
  H       -3.8253090    -1.7817070    -0.5476340
  H       -2.2212640     2.3282100     1.3272780
  H       -0.4870200     1.9493020     1.2305480
  H       -1.3139190     2.6883760    -0.1607770
  H        0.6536140     1.6152250    -1.2478990
  H        0.8812590    -1.9928010     1.0799670
  H        3.1173860     1.8412050    -1.1464900
  H        3.3610660    -1.8124130     1.1137600
  H        4.4833320     0.1209150     0.0205430
units angstrom
no_reorient  #important for SAPT in psi4, default
symmetry c1  #important for SAPT in psi4, default
}

set PROPERTIES_ORIGIN ["COM"]
properties('MP2/aug-cc-pvtz', properties = ['dipole'])
--------------------------------------------------------------------------

    Molecular point group: c1
  Charge       = 0
  Multiplicity = 1
  Basis Set: AUG-CC-PVTZ
    Blend: AUG-CC-PVTZ
  Basis Set: (AUG-CC-PVTZ AUX)
    Blend: AUG-CC-PVTZ-JKFIT

    Orbital Energies [Eh]
    ---------------------

    Doubly Occupied:

       1A    -15.605063     2A    -11.268049     3A    -11.260298
       4A    -11.251086     5A    -11.248106     6A    -11.241534
       7A    -11.240506     8A    -11.240090     9A    -11.238960
      10A    -11.238186    11A    -11.211945    12A    -11.206436
      13A     -1.286637    14A     -1.155647    15A     -1.071055
      16A     -1.043969    17A     -1.016995    18A     -0.957415
      19A     -0.928007    20A     -0.835643    21A     -0.831166
      22A     -0.769719    23A     -0.744769    24A     -0.709958
      25A     -0.678868    26A     -0.638997    27A     -0.632228
      28A     -0.621636    29A     -0.596852    30A     -0.587795
      31A     -0.572023    32A     -0.561893    33A     -0.543766
      34A     -0.523696    35A     -0.520750    36A     -0.502230
      37A     -0.495712    38A     -0.491523    39A     -0.353774
      40A     -0.340887    41A     -0.334403    42A     -0.276836

  @DF-RHF Final Energy:  -477.54211905519281

   => Energetics <=

    Nuclear Repulsion Energy =            637.9662277474711800
    One-Electron Energy =               -1911.2664783038492260
    Two-Electron Energy =                 795.7581315011852894
    Total Energy =                       -477.5421190551928703
  Basis Set: (AUG-CC-PVTZ AUX)
    Blend: AUG-CC-PVTZ-RI
    Molecular point group: c1

    Geometry (in Angstrom), charge = 0, multiplicity = 1:

       Center              X                  Y                   Z               Mass
    ------------   -----------------  -----------------  -----------------  -----------------
         N           -1.752081523795     0.670092485984     0.206046788932    14.003074004430
         C           -0.857412523795    -0.338038514016    -0.108247211068    12.000000000000
         C            0.596916476205    -0.173096514016    -0.061176211068    12.000000000000
         C           -1.608479523795    -1.461700514016    -0.446937211068    12.000000000000
         C           -3.083654423795     0.198344285984     0.065551088932    12.000000000000
         C           -2.973986523795    -1.120939514016    -0.340832211068    12.000000000000
         C           -1.420214523795     2.005212485984     0.676650788932    12.000000000000
         C            1.242972476205     0.905837485984    -0.689496211068    12.000000000000
         C            1.379738476205    -1.141071514016     0.591028788932    12.000000000000
         C            2.632598476205     1.022683485984    -0.647170211068    12.000000000000
         C            2.769970476205    -1.033326514016     0.612955788932    12.000000000000
         C            3.400945476205     0.053442485984     0.002133788932    12.000000000000
         H           -1.192053523795    -2.409152514016    -0.766517211068     1.007825032230
         H           -3.881296523795     0.841292485984     0.281488788932     1.007825032230
         H           -3.824281523795    -1.760372514016    -0.540176211068     1.007825032230
         H           -2.220236523795     2.349544485984     1.334735788932     1.007825032230
         H           -0.485992523795     1.970636485984     1.238005788932     1.007825032230
         H           -1.312891523795     2.709710485984    -0.153319211068     1.007825032230
         H            0.654641476205     1.636559485984    -1.240441211068     1.007825032230
         H            0.882286476205    -1.971466514016     1.087424788932     1.007825032230
         H            3.118413476205     1.862539485984    -1.139032211068     1.007825032230
         H            3.362093476205    -1.791078514016     1.121217788932     1.007825032230
         H            4.484359476205     0.142249485984     0.028000788932     1.007825032230

  Basis Set: AUG-CC-PVTZ
    Blend: AUG-CC-PVTZ
  Basis Set: (AUG-CC-PVTZ AUX)
    Blend: AUG-CC-PVTZ-JKFIT
	 Reference Energy          =    -477.5421190551928134 [Eh]
	 Singles Energy            =      -0.0000000000000000 [Eh]
	 Same-Spin Energy          =      -0.5391324657388260 [Eh]
	 Opposite-Spin Energy      =      -1.6839328929905035 [Eh]
	 Correlation Energy        =      -2.2230653587293294 [Eh]
	 Total Energy              =    -479.7651844139221566 [Eh]

	 ================> DF-SCS-MP2 Energies <==================
	-----------------------------------------------------------
	 SCS Same-Spin Scale       =       0.3333333333333333 [-]
	 SCS Opposite-Spin Scale   =       1.2000000000000000 [-]
	 SCS Same-Spin Energy      =      -0.1797108219129420 [Eh]
	 SCS Opposite-Spin Energy  =      -2.0207194715886043 [Eh]
	 SCS Correlation Energy    =      -2.2004302935015465 [Eh]
	 SCS Total Energy          =    -479.7425493486943537 [Eh]
	-----------------------------------------------------------

  Dipole Moment: [D]
     X:     0.4965      Y:     1.8044      Z:     0.6587     Total:     1.9839

*** Psi4 exiting successfully. Buy a developer a beer!
