                               Psi4 1.3.2 release

  ==> Input File <==

--------------------------------------------------------------------------
#psi4
#
memory 32 gb

molecule  {
0 1
  N       -1.7531090     0.6487580     0.1985890
  C       -0.8584400    -0.3593730    -0.1157050
  C        0.5958890    -0.1944310    -0.0686340
  C       -1.6095070    -1.4830350    -0.4543950
  C       -3.0364380     0.1798280     0.0590890
  C       -2.9267804    -1.1391252    -0.3483689
  C       -1.4212420     1.9838780     0.6691930
  C        1.2419450     0.8845030    -0.6969540
  C        1.3787110    -1.1624060     0.5835710
  C        2.6315710     1.0013490    -0.6546280
  C        2.7689430    -1.0546610     0.6054980
  C        3.3999180     0.0321080    -0.0053240
  H       -1.1930810    -2.4304870    -0.7739750
  H       -3.8823240     0.8199580     0.2740310
  H       -3.8253090    -1.7817070    -0.5476340
  H       -2.2212640     2.3282100     1.3272780
  H       -0.4870200     1.9493020     1.2305480
  H       -1.3139190     2.6883760    -0.1607770
  H        0.6536140     1.6152250    -1.2478990
  H        0.8812590    -1.9928010     1.0799670
  H        3.1173860     1.8412050    -1.1464900
  H        3.3610660    -1.8124130     1.1137600
  H        4.4833320     0.1209150     0.0205430
units angstrom
no_reorient  #important for SAPT in psi4, default
symmetry c1  #important for SAPT in psi4, default
}

set PROPERTIES_ORIGIN ["COM"]
properties('MP2/aug-cc-pvtz', properties = ['dipole'])
--------------------------------------------------------------------------

    Molecular point group: c1
  Charge       = 0
  Multiplicity = 1
  Basis Set: AUG-CC-PVTZ
    Blend: AUG-CC-PVTZ
  Basis Set: (AUG-CC-PVTZ AUX)
    Blend: AUG-CC-PVTZ-JKFIT

    Orbital Energies [Eh]
    ---------------------

    Doubly Occupied:

       1A    -15.608988     2A    -11.270604     3A    -11.255586
       4A    -11.249858     5A    -11.246065     6A    -11.240525
       7A    -11.239383     8A    -11.239045     9A    -11.237735
      10A    -11.236863    11A    -11.207134    12A    -11.203040
      13A     -1.300989    14A     -1.154886    15A     -1.079475
      16A     -1.043886    17A     -1.016042    18A     -0.955000
      19A     -0.936348    20A     -0.833296    21A     -0.830232
      22A     -0.766942    23A     -0.745019    24A     -0.712012
      25A     -0.677846    26A     -0.640274    27A     -0.632259
      28A     -0.622166    29A     -0.594957    30A     -0.587029
      31A     -0.569211    32A     -0.565703    33A     -0.547197
      34A     -0.526422    35A     -0.519245    36A     -0.502132
      37A     -0.494883    38A     -0.491541    39A     -0.353567
      40A     -0.342245    41A     -0.338836    42A     -0.272478

  @DF-RHF Final Energy:  -477.54189040013443

   => Energetics <=

    Nuclear Repulsion Energy =            640.0003756725012636
    One-Electron Energy =               -1915.3106473794675821
    Two-Electron Energy =                 797.7683813068319978
    Total Energy =                       -477.5418904001344345
  Basis Set: (AUG-CC-PVTZ AUX)
    Blend: AUG-CC-PVTZ-RI
    Molecular point group: c1

    Geometry (in Angstrom), charge = 0, multiplicity = 1:

       Center              X                  Y                   Z               Mass
    ------------   -----------------  -----------------  -----------------  -----------------
         N           -1.759451415380     0.669636668378     0.205976754814    14.003074004430
         C           -0.864782415380    -0.338494331622    -0.108317245186    12.000000000000
         C            0.589546584620    -0.173552331622    -0.061246245186    12.000000000000
         C           -1.615849415380    -1.462156331622    -0.447007245186    12.000000000000
         C           -3.042780415380     0.200706668378     0.066476754814    12.000000000000
         C           -2.933122815380    -1.118246531622    -0.340981145186    12.000000000000
         C           -1.427584415380     2.004756668378     0.676580754814    12.000000000000
         C            1.235602584620     0.905381668378    -0.689566245186    12.000000000000
         C            1.372368584620    -1.141527331622     0.590958754814    12.000000000000
         C            2.625228584620     1.022227668378    -0.647240245186    12.000000000000
         C            2.762600584620    -1.033782331622     0.612885754814    12.000000000000
         C            3.393575584620     0.052986668378     0.002063754814    12.000000000000
         H           -1.199423415380    -2.409608331622    -0.766587245186     1.007825032230
         H           -3.888666415380     0.840836668378     0.281418754814     1.007825032230
         H           -3.831651415380    -1.760828331622    -0.540246245186     1.007825032230
         H           -2.227606415380     2.349088668378     1.334665754814     1.007825032230
         H           -0.493362415380     1.970180668378     1.237935754814     1.007825032230
         H           -1.320261415380     2.709254668378    -0.153389245186     1.007825032230
         H            0.647271584620     1.636103668378    -1.240511245186     1.007825032230
         H            0.874916584620    -1.971922331622     1.087354754814     1.007825032230
         H            3.111043584620     1.862083668378    -1.139102245186     1.007825032230
         H            3.354723584620    -1.791534331622     1.121147754814     1.007825032230
         H            4.476989584620     0.141793668378     0.027930754814     1.007825032230

  Basis Set: AUG-CC-PVTZ
    Blend: AUG-CC-PVTZ
  Basis Set: (AUG-CC-PVTZ AUX)
    Blend: AUG-CC-PVTZ-JKFIT
	 Reference Energy          =    -477.5418904001344345 [Eh]
	 Singles Energy            =      -0.0000000000000000 [Eh]
	 Same-Spin Energy          =      -0.5398675638954051 [Eh]
	 Opposite-Spin Energy      =      -1.6837827156705822 [Eh]
	 Correlation Energy        =      -2.2236502795659874 [Eh]
	 Total Energy              =    -479.7655406797003934 [Eh]

	 ================> DF-SCS-MP2 Energies <==================
	-----------------------------------------------------------
	 SCS Same-Spin Scale       =       0.3333333333333333 [-]
	 SCS Opposite-Spin Scale   =       1.2000000000000000 [-]
	 SCS Same-Spin Energy      =      -0.1799558546318017 [Eh]
	 SCS Opposite-Spin Energy  =      -2.0205392588046984 [Eh]
	 SCS Correlation Energy    =      -2.2004951134365003 [Eh]
	 SCS Total Energy          =    -479.7423855135709232 [Eh]
	-----------------------------------------------------------

  Dipole Moment: [D]
     X:     0.4496      Y:     1.8555      Z:     0.6750     Total:     2.0250

*** Psi4 exiting successfully. Buy a developer a beer!
