                               Psi4 1.4a3.dev225

  ==> Input File <==

--------------------------------------------------------------------------
#psi4
#
memory 32 gb

molecule  {
0 1
  N       -1.7531090     0.6487580     0.1985890
  C       -0.8584400    -0.3593730    -0.1157050
  C        0.5958890    -0.1944310    -0.0686340
  C       -1.6095070    -1.4830350    -0.4543950
  C       -3.0364380     0.1798280     0.0590890
  C       -3.0233890    -1.1302021    -0.3445311
  C       -1.4212420     1.9838780     0.6691930
  C        1.2419450     0.8845030    -0.6969540
  C        1.3787110    -1.1624060     0.5835710
  C        2.6315710     1.0013490    -0.6546280
  C        2.7689430    -1.0546610     0.6054980
  C        3.3999180     0.0321080    -0.0053240
  H       -1.1930810    -2.4304870    -0.7739750
  H       -3.8823240     0.8199580     0.2740310
  H       -3.8253090    -1.7817070    -0.5476340
  H       -2.2212640     2.3282100     1.3272780
  H       -0.4870200     1.9493020     1.2305480
  H       -1.3139190     2.6883760    -0.1607770
  H        0.6536140     1.6152250    -1.2478990
  H        0.8812590    -1.9928010     1.0799670
  H        3.1173860     1.8412050    -1.1464900
  H        3.3610660    -1.8124130     1.1137600
  H        4.4833320     0.1209150     0.0205430
units angstrom
no_reorient  #important for SAPT in psi4, default
symmetry c1  #important for SAPT in psi4, default
}

set PROPERTIES_ORIGIN ["COM"]
properties('MP2/aug-cc-pvtz', properties = ['dipole'])
--------------------------------------------------------------------------

    Molecular point group: c1
  Charge       = 0
  Multiplicity = 1
  Basis Set: AUG-CC-PVTZ
    Blend: AUG-CC-PVTZ
  Basis Set: (AUG-CC-PVTZ AUX)
    Blend: AUG-CC-PVTZ-JKFIT

    Orbital Energies [Eh]
    ---------------------

    Doubly Occupied:

       1A    -15.605136     2A    -11.270394     3A    -11.257826
       4A    -11.250531     5A    -11.249532     6A    -11.241013
       7A    -11.239893     8A    -11.239527     9A    -11.238286
      10A    -11.237372    11A    -11.210803    12A    -11.208540
      13A     -1.297272    14A     -1.155379    15A     -1.068428
      16A     -1.044559    17A     -1.016422    18A     -0.958315
      19A     -0.929619    20A     -0.833909    21A     -0.830890
      22A     -0.774102    23A     -0.741603    24A     -0.712455
      25A     -0.677955    26A     -0.639803    27A     -0.631991
      28A     -0.622776    29A     -0.599075    30A     -0.587461
      31A     -0.574208    32A     -0.567924    33A     -0.535775
      34A     -0.527550    35A     -0.519521    36A     -0.502400
      37A     -0.492993    38A     -0.491949    39A     -0.354691
      40A     -0.340222    41A     -0.330344    42A     -0.279137

  @DF-RHF Final Energy:  -477.54445610654284

   => Energetics <=

    Nuclear Repulsion Energy =            638.3309614927269422
    One-Electron Energy =               -1911.9756714886168538
    Two-Electron Energy =                 796.1002538893471865
    Total Energy =                       -477.5444561065428388
  Basis Set: (AUG-CC-PVTZ AUX)
    Blend: AUG-CC-PVTZ-RI
    Molecular point group: c1

    Geometry (in Angstrom), charge = 0, multiplicity = 1:

       Center              X                  Y                   Z               Mass
    ------------   -----------------  -----------------  -----------------  -----------------
         N           -1.752071509099     0.668955035048     0.205683586252    14.003074004430
         C           -0.857402509099    -0.339175964952    -0.108610413748    12.000000000000
         C            0.596926490901    -0.174233964952    -0.061539413748    12.000000000000
         C           -1.608469509099    -1.462837964952    -0.447300413748    12.000000000000
         C           -3.035400509099     0.200025035048     0.066183586252    12.000000000000
         C           -3.022351509099    -1.110005064952    -0.337436513748    12.000000000000
         C           -1.420204509099     2.004075035048     0.676287586252    12.000000000000
         C            1.242982490901     0.904700035048    -0.689859413748    12.000000000000
         C            1.379748490901    -1.142208964952     0.590665586252    12.000000000000
         C            2.632608490901     1.021546035048    -0.647533413748    12.000000000000
         C            2.769980490901    -1.034463964952     0.612592586252    12.000000000000
         C            3.400955490901     0.052305035048     0.001770586252    12.000000000000
         H           -1.192043509099    -2.410289964952    -0.766880413748     1.007825032230
         H           -3.881286509099     0.840155035048     0.281125586252     1.007825032230
         H           -3.824271509099    -1.761509964952    -0.540539413748     1.007825032230
         H           -2.220226509099     2.348407035048     1.334372586252     1.007825032230
         H           -0.485982509099     1.969499035048     1.237642586252     1.007825032230
         H           -1.312881509099     2.708573035048    -0.153682413748     1.007825032230
         H            0.654651490901     1.635422035048    -1.240804413748     1.007825032230
         H            0.882296490901    -1.972603964952     1.087061586252     1.007825032230
         H            3.118423490901     1.861402035048    -1.139395413748     1.007825032230
         H            3.362103490901    -1.792215964952     1.120854586252     1.007825032230
         H            4.484369490901     0.141112035048     0.027637586252     1.007825032230

  Basis Set: AUG-CC-PVTZ
    Blend: AUG-CC-PVTZ
  Basis Set: (AUG-CC-PVTZ AUX)
    Blend: AUG-CC-PVTZ-JKFIT
	 Reference Energy          =    -477.5444561065428388 [Eh]
	 Singles Energy            =      -0.0000000000000000 [Eh]
	 Same-Spin Energy          =      -0.5383739000160105 [Eh]
	 Opposite-Spin Energy      =      -1.6826513232282885 [Eh]
	 Correlation Energy        =      -2.2210252232442991 [Eh]
	 Total Energy              =    -479.7654813297871215 [Eh]

	 ================> DF-SCS-MP2 Energies <==================
	-----------------------------------------------------------
	 SCS Same-Spin Scale       =       0.3333333333333333 [-]
	 SCS Opposite-Spin Scale   =       1.2000000000000000 [-]
	 SCS Same-Spin Energy      =      -0.1794579666720035 [Eh]
	 SCS Opposite-Spin Energy  =      -2.0191815878739461 [Eh]
	 SCS Correlation Energy    =      -2.1986395545459496 [Eh]
	 SCS Total Energy          =    -479.7430956610887733 [Eh]
	-----------------------------------------------------------

  Dipole Moment: [D]
     X:     0.4957      Y:     1.8547      Z:     0.6771     Total:     2.0357

*** Psi4 exiting successfully. Buy a developer a beer!
