                               Psi4 1.3.2 release

  ==> Input File <==

--------------------------------------------------------------------------
#psi4
#
memory 32 gb

molecule  {
0 1
  N       -1.7618402     0.6699749     0.2055310
  C       -0.8584400    -0.3593730    -0.1157050
  C        0.5958890    -0.1944310    -0.0686340
  C       -1.6095070    -1.4830350    -0.4543950
  C       -3.0364380     0.1798280     0.0590890
  C       -2.9750140    -1.1422740    -0.3482900
  C       -1.4212420     1.9838780     0.6691930
  C        1.2419450     0.8845030    -0.6969540
  C        1.3787110    -1.1624060     0.5835710
  C        2.6315710     1.0013490    -0.6546280
  C        2.7689430    -1.0546610     0.6054980
  C        3.3999180     0.0321080    -0.0053240
  H       -1.1930810    -2.4304870    -0.7739750
  H       -3.8823240     0.8199580     0.2740310
  H       -3.8253090    -1.7817070    -0.5476340
  H       -2.2212640     2.3282100     1.3272780
  H       -0.4870200     1.9493020     1.2305480
  H       -1.3139190     2.6883760    -0.1607770
  H        0.6536140     1.6152250    -1.2478990
  H        0.8812590    -1.9928010     1.0799670
  H        3.1173860     1.8412050    -1.1464900
  H        3.3610660    -1.8124130     1.1137600
  H        4.4833320     0.1209150     0.0205430
units angstrom
no_reorient  #important for SAPT in psi4, default
symmetry c1  #important for SAPT in psi4, default
}

set PROPERTIES_ORIGIN ["COM"]
properties('MP2/aug-cc-pvtz', properties = ['dipole'])
--------------------------------------------------------------------------

    Molecular point group: c1
  Charge       = 0
  Multiplicity = 1
  Basis Set: AUG-CC-PVTZ
    Blend: AUG-CC-PVTZ
  Basis Set: (AUG-CC-PVTZ AUX)
    Blend: AUG-CC-PVTZ-JKFIT

    Orbital Energies [Eh]
    ---------------------

    Doubly Occupied:

       1A    -15.606902     2A    -11.268593     3A    -11.258034
       4A    -11.250660     5A    -11.249986     6A    -11.240507
       7A    -11.239366     8A    -11.239045     9A    -11.237765
      10A    -11.236883    11A    -11.209968    12A    -11.208387
      13A     -1.296038    14A     -1.154971    15A     -1.077170
      16A     -1.043391    17A     -1.016021    18A     -0.954163
      19A     -0.933001    20A     -0.832892    21A     -0.830365
      22A     -0.770068    23A     -0.744061    24A     -0.712594
      25A     -0.677483    26A     -0.640130    27A     -0.631675
      28A     -0.622976    29A     -0.597251    30A     -0.587030
      31A     -0.575117    32A     -0.565629    33A     -0.537581
      34A     -0.526899    35A     -0.521309    36A     -0.501351
      37A     -0.494957    38A     -0.491220    39A     -0.354483
      40A     -0.340124    41A     -0.335556    42A     -0.274950

  @DF-RHF Final Energy:  -477.54477620246894

   => Energetics <=

    Nuclear Repulsion Energy =            638.7249917450902785
    One-Electron Energy =               -1912.7664302463540480
    Two-Electron Energy =                 796.4966622987947176
    Total Energy =                       -477.5447762024689382
  Basis Set: (AUG-CC-PVTZ AUX)
    Blend: AUG-CC-PVTZ-RI
    Molecular point group: c1

    Geometry (in Angstrom), charge = 0, multiplicity = 1:

       Center              X                  Y                   Z               Mass
    ------------   -----------------  -----------------  -----------------  -----------------
         N           -1.763719755643     0.689202810054     0.212293911277    14.003074004430
         C           -0.860319555643    -0.340145089946    -0.108942088723    12.000000000000
         C            0.594009444357    -0.175203089946    -0.061871088723    12.000000000000
         C           -1.611386555643    -1.463807089946    -0.447632088723    12.000000000000
         C           -3.038317555643     0.199055910054     0.065851911277    12.000000000000
         C           -2.976893555643    -1.123046089946    -0.341527088723    12.000000000000
         C           -1.423121555643     2.003105910054     0.675955911277    12.000000000000
         C            1.240065444357     0.903730910054    -0.690191088723    12.000000000000
         C            1.376831444357    -1.143178089946     0.590333911277    12.000000000000
         C            2.629691444357     1.020576910054    -0.647865088723    12.000000000000
         C            2.767063444357    -1.035433089946     0.612260911277    12.000000000000
         C            3.398038444357     0.051335910054     0.001438911277    12.000000000000
         H           -1.194960555643    -2.411259089946    -0.767212088723     1.007825032230
         H           -3.884203555643     0.839185910054     0.280793911277     1.007825032230
         H           -3.827188555643    -1.762479089946    -0.540871088723     1.007825032230
         H           -2.223143555643     2.347437910054     1.334040911277     1.007825032230
         H           -0.488899555643     1.968529910054     1.237310911277     1.007825032230
         H           -1.315798555643     2.707603910054    -0.154014088723     1.007825032230
         H            0.651734444357     1.634452910054    -1.241136088723     1.007825032230
         H            0.879379444357    -1.973573089946     1.086729911277     1.007825032230
         H            3.115506444357     1.860432910054    -1.139727088723     1.007825032230
         H            3.359186444357    -1.793185089946     1.120522911277     1.007825032230
         H            4.481452444357     0.140142910054     0.027305911277     1.007825032230

  Basis Set: AUG-CC-PVTZ
    Blend: AUG-CC-PVTZ
  Basis Set: (AUG-CC-PVTZ AUX)
    Blend: AUG-CC-PVTZ-JKFIT
	 Reference Energy          =    -477.5447762024689382 [Eh]
	 Singles Energy            =      -0.0000000000000000 [Eh]
	 Same-Spin Energy          =      -0.5392248069627034 [Eh]
	 Opposite-Spin Energy      =      -1.6834872040112123 [Eh]
	 Correlation Energy        =      -2.2227120109739156 [Eh]
	 Total Energy              =    -479.7674882134428458 [Eh]

	 ================> DF-SCS-MP2 Energies <==================
	-----------------------------------------------------------
	 SCS Same-Spin Scale       =       0.3333333333333333 [-]
	 SCS Opposite-Spin Scale   =       1.2000000000000000 [-]
	 SCS Same-Spin Energy      =      -0.1797416023209011 [Eh]
	 SCS Opposite-Spin Energy  =      -2.0201846448134546 [Eh]
	 SCS Correlation Energy    =      -2.1999262471343557 [Eh]
	 SCS Total Energy          =    -479.7447024496032668 [Eh]
	-----------------------------------------------------------

  Dipole Moment: [D]
     X:     0.4624      Y:     1.7878      Z:     0.6549     Total:     1.9593

*** Psi4 exiting successfully. Buy a developer a beer!
