                               Psi4 1.3.2 release

  ==> Input File <==

--------------------------------------------------------------------------
#psi4
#
memory 32 gb

molecule  {
0 1
  N       -1.7531090     0.6487580     0.1985890
  C       -0.8584400    -0.3593730    -0.1157050
  C        0.5958890    -0.1944310    -0.0686340
  C       -1.6095070    -1.4830350    -0.4543950
  C       -3.0364380     0.1798280     0.0590890
  C       -2.9302414    -1.0091038    -0.3026203
  C       -1.4212420     1.9838780     0.6691930
  C        1.2419450     0.8845030    -0.6969540
  C        1.3787110    -1.1624060     0.5835710
  C        2.6315710     1.0013490    -0.6546280
  C        2.7689430    -1.0546610     0.6054980
  C        3.3999180     0.0321080    -0.0053240
  H       -1.1930810    -2.4304870    -0.7739750
  H       -3.8823240     0.8199580     0.2740310
  H       -3.8253090    -1.7817070    -0.5476340
  H       -2.2212640     2.3282100     1.3272780
  H       -0.4870200     1.9493020     1.2305480
  H       -1.3139190     2.6883760    -0.1607770
  H        0.6536140     1.6152250    -1.2478990
  H        0.8812590    -1.9928010     1.0799670
  H        3.1173860     1.8412050    -1.1464900
  H        3.3610660    -1.8124130     1.1137600
  H        4.4833320     0.1209150     0.0205430
units angstrom
no_reorient  #important for SAPT in psi4, default
symmetry c1  #important for SAPT in psi4, default
}

set PROPERTIES_ORIGIN ["COM"]
properties('MP2/aug-cc-pvtz', properties = ['dipole'])
--------------------------------------------------------------------------

    Molecular point group: c1
  Charge       = 0
  Multiplicity = 1
  Basis Set: AUG-CC-PVTZ
    Blend: AUG-CC-PVTZ
  Basis Set: (AUG-CC-PVTZ AUX)
    Blend: AUG-CC-PVTZ-JKFIT

    Orbital Energies [Eh]
    ---------------------

    Doubly Occupied:

       1A    -15.596259     2A    -11.266919     3A    -11.259851
       4A    -11.250141     5A    -11.241383     6A    -11.240379
       7A    -11.239984     8A    -11.238892     9A    -11.238112
      10A    -11.228587    11A    -11.203505    12A    -11.200818
      13A     -1.305236    14A     -1.156081    15A     -1.081679
      16A     -1.049736    17A     -1.016945    18A     -0.967919
      19A     -0.925404    20A     -0.838554    21A     -0.830956
      22A     -0.767404    23A     -0.742521    24A     -0.705733
      25A     -0.679593    26A     -0.640505    27A     -0.632909
      28A     -0.621754    29A     -0.592416    30A     -0.587912
      31A     -0.578448    32A     -0.562658    33A     -0.549347
      34A     -0.531217    35A     -0.507697    36A     -0.503169
      37A     -0.493958    38A     -0.477889    39A     -0.357835
      40A     -0.341015    41A     -0.336238    42A     -0.287141

  @DF-RHF Final Energy:  -477.51577898251958

   => Energetics <=

    Nuclear Repulsion Energy =            641.9993441258432085
    One-Electron Energy =               -1919.2808534141149721
    Two-Electron Energy =                 799.7657303057521858
    Total Energy =                       -477.5157789825195778
  Basis Set: (AUG-CC-PVTZ AUX)
    Blend: AUG-CC-PVTZ-RI
    Molecular point group: c1

    Geometry (in Angstrom), charge = 0, multiplicity = 1:

       Center              X                  Y                   Z               Mass
    ------------   -----------------  -----------------  -----------------  -----------------
         N           -1.759187030474     0.659704366838     0.202482030944    14.003074004430
         C           -0.864518030474    -0.348426633162    -0.111811969056    12.000000000000
         C            0.589810969526    -0.183484633162    -0.064740969056    12.000000000000
         C           -1.615585030474    -1.472088633162    -0.450501969056    12.000000000000
         C           -3.042516030474     0.190774366838     0.062982030944    12.000000000000
         C           -2.936319430474    -0.998157433162    -0.298727269056    12.000000000000
         C           -1.427320030474     1.994824366838     0.673086030944    12.000000000000
         C            1.235866969526     0.895449366838    -0.693060969056    12.000000000000
         C            1.372632969526    -1.151459633162     0.587464030944    12.000000000000
         C            2.625492969526     1.012295366838    -0.650734969056    12.000000000000
         C            2.762864969526    -1.043714633162     0.609391030944    12.000000000000
         C            3.393839969526     0.043054366838    -0.001430969056    12.000000000000
         H           -1.199159030474    -2.419540633162    -0.770081969056     1.007825032230
         H           -3.888402030474     0.830904366838     0.277924030944     1.007825032230
         H           -3.831387030474    -1.770760633162    -0.543740969056     1.007825032230
         H           -2.227342030474     2.339156366838     1.331171030944     1.007825032230
         H           -0.493098030474     1.960248366838     1.234441030944     1.007825032230
         H           -1.319997030474     2.699322366838    -0.156883969056     1.007825032230
         H            0.647535969526     1.626171366838    -1.244005969056     1.007825032230
         H            0.875180969526    -1.981854633162     1.083860030944     1.007825032230
         H            3.111307969526     1.852151366838    -1.142596969056     1.007825032230
         H            3.354987969526    -1.801466633162     1.117653030944     1.007825032230
         H            4.477253969526     0.131861366838     0.024436030944     1.007825032230

  Basis Set: AUG-CC-PVTZ
    Blend: AUG-CC-PVTZ
  Basis Set: (AUG-CC-PVTZ AUX)
    Blend: AUG-CC-PVTZ-JKFIT
	 Reference Energy          =    -477.5157789825195778 [Eh]
	 Singles Energy            =      -0.0000000000000000 [Eh]
	 Same-Spin Energy          =      -0.5381490032662779 [Eh]
	 Opposite-Spin Energy      =      -1.6814811787589046 [Eh]
	 Correlation Energy        =      -2.2196301820251825 [Eh]
	 Total Energy              =    -479.7354091645447625 [Eh]

	 ================> DF-SCS-MP2 Energies <==================
	-----------------------------------------------------------
	 SCS Same-Spin Scale       =       0.3333333333333333 [-]
	 SCS Opposite-Spin Scale   =       1.2000000000000000 [-]
	 SCS Same-Spin Energy      =      -0.1793830010887593 [Eh]
	 SCS Opposite-Spin Energy  =      -2.0177774145106855 [Eh]
	 SCS Correlation Energy    =      -2.1971604155994449 [Eh]
	 SCS Total Energy          =    -479.7129393981190333 [Eh]
	-----------------------------------------------------------

  Dipole Moment: [D]
     X:     0.4772      Y:     1.8111      Z:     0.6545     Total:     1.9840

*** Psi4 exiting successfully. Buy a developer a beer!
