                               Psi4 1.3.2 release

  ==> Input File <==

--------------------------------------------------------------------------
#psi4
#
memory 32 gb

molecule  {
0 1
  N       -1.7531090     0.6487580     0.1985890
  C       -0.8584400    -0.3593730    -0.1157050
  C        0.5958890    -0.1944310    -0.0686340
  C       -1.6095070    -1.4830350    -0.4543950
  C       -3.0364380     0.1798280     0.0590890
  C       -3.0048258    -1.2791777    -0.3951222
  C       -1.4212420     1.9838780     0.6691930
  C        1.2419450     0.8845030    -0.6969540
  C        1.3787110    -1.1624060     0.5835710
  C        2.6315710     1.0013490    -0.6546280
  C        2.7689430    -1.0546610     0.6054980
  C        3.3999180     0.0321080    -0.0053240
  H       -1.1930810    -2.4304870    -0.7739750
  H       -3.8823240     0.8199580     0.2740310
  H       -3.8253090    -1.7817070    -0.5476340
  H       -2.2212640     2.3282100     1.3272780
  H       -0.4870200     1.9493020     1.2305480
  H       -1.3139190     2.6883760    -0.1607770
  H        0.6536140     1.6152250    -1.2478990
  H        0.8812590    -1.9928010     1.0799670
  H        3.1173860     1.8412050    -1.1464900
  H        3.3610660    -1.8124130     1.1137600
  H        4.4833320     0.1209150     0.0205430
units angstrom
no_reorient  #important for SAPT in psi4, default
symmetry c1  #important for SAPT in psi4, default
}

set PROPERTIES_ORIGIN ["COM"]
properties('MP2/aug-cc-pvtz', properties = ['dipole'])
--------------------------------------------------------------------------

    Molecular point group: c1
  Charge       = 0
  Multiplicity = 1
  Basis Set: AUG-CC-PVTZ
    Blend: AUG-CC-PVTZ
  Basis Set: (AUG-CC-PVTZ AUX)
    Blend: AUG-CC-PVTZ-JKFIT

    Orbital Energies [Eh]
    ---------------------

    Doubly Occupied:

       1A    -15.620102     2A    -11.274896     3A    -11.265723
       4A    -11.253873     5A    -11.250461     6A    -11.240284
       7A    -11.238963     8A    -11.238714     9A    -11.237182
      10A    -11.236159    11A    -11.216390    12A    -11.214265
      13A     -1.298156    14A     -1.154509    15A     -1.069649
      16A     -1.038831    17A     -1.015617    18A     -0.948623
      19A     -0.941951    20A     -0.830923    21A     -0.830332
      22A     -0.786467    23A     -0.740668    24A     -0.714077
      25A     -0.677622    26A     -0.641025    27A     -0.632527
      28A     -0.627006    29A     -0.608597    30A     -0.586781
      31A     -0.579584    32A     -0.569965    33A     -0.551553
      34A     -0.523133    35A     -0.501569    36A     -0.499575
      37A     -0.492807    38A     -0.487912    39A     -0.354144
      40A     -0.339876    41A     -0.336566    42A     -0.262964

  @DF-RHF Final Energy:  -477.51288185463153

   => Energetics <=

    Nuclear Repulsion Energy =            636.5732976649253487
    One-Electron Energy =               -1908.3123146886216546
    Two-Electron Energy =                 794.2261351690648326
    Total Energy =                       -477.5128818546314733
  Basis Set: (AUG-CC-PVTZ AUX)
    Blend: AUG-CC-PVTZ-RI
    Molecular point group: c1

    Geometry (in Angstrom), charge = 0, multiplicity = 1:

       Center              X                  Y                   Z               Mass
    ------------   -----------------  -----------------  -----------------  -----------------
         N           -1.753489547206     0.680335243084     0.209548227461    14.003074004430
         C           -0.858820547206    -0.327795756916    -0.104745772539    12.000000000000
         C            0.595508452794    -0.162853756916    -0.057674772539    12.000000000000
         C           -1.609887547206    -1.451457756916    -0.443435772539    12.000000000000
         C           -3.036818547206     0.211405243084     0.070048227461    12.000000000000
         C           -3.005206347206    -1.247600456916    -0.384162972539    12.000000000000
         C           -1.421622547206     2.015455243084     0.680152227461    12.000000000000
         C            1.241564452794     0.916080243084    -0.685994772539    12.000000000000
         C            1.378330452794    -1.130828756916     0.594530227461    12.000000000000
         C            2.631190452794     1.032926243084    -0.643668772539    12.000000000000
         C            2.768562452794    -1.023083756916     0.616457227461    12.000000000000
         C            3.399537452794     0.063685243084     0.005635227461    12.000000000000
         H           -1.193461547206    -2.398909756916    -0.763015772539     1.007825032230
         H           -3.882704547206     0.851535243084     0.284990227461     1.007825032230
         H           -3.825689547206    -1.750129756916    -0.536674772539     1.007825032230
         H           -2.221644547206     2.359787243084     1.338237227461     1.007825032230
         H           -0.487400547206     1.980879243084     1.241507227461     1.007825032230
         H           -1.314299547206     2.719953243084    -0.149817772539     1.007825032230
         H            0.653233452794     1.646802243084    -1.236939772539     1.007825032230
         H            0.880878452794    -1.961223756916     1.090926227461     1.007825032230
         H            3.117005452794     1.872782243084    -1.135530772539     1.007825032230
         H            3.360685452794    -1.780835756916     1.124719227461     1.007825032230
         H            4.482951452794     0.152492243084     0.031502227461     1.007825032230

  Basis Set: AUG-CC-PVTZ
    Blend: AUG-CC-PVTZ
  Basis Set: (AUG-CC-PVTZ AUX)
    Blend: AUG-CC-PVTZ-JKFIT
	 Reference Energy          =    -477.5128818546315301 [Eh]
	 Singles Energy            =      -0.0000000000000000 [Eh]
	 Same-Spin Energy          =      -0.5411565114814564 [Eh]
	 Opposite-Spin Energy      =      -1.6876445188071671 [Eh]
	 Correlation Energy        =      -2.2288010302886234 [Eh]
	 Total Energy              =    -479.7416828849201806 [Eh]

	 ================> DF-SCS-MP2 Energies <==================
	-----------------------------------------------------------
	 SCS Same-Spin Scale       =       0.3333333333333333 [-]
	 SCS Opposite-Spin Scale   =       1.2000000000000000 [-]
	 SCS Same-Spin Energy      =      -0.1803855038271521 [Eh]
	 SCS Opposite-Spin Energy  =      -2.0251734225686007 [Eh]
	 SCS Correlation Energy    =      -2.2055589263957529 [Eh]
	 SCS Total Energy          =    -479.7184407810273115 [Eh]
	-----------------------------------------------------------

  Dipole Moment: [D]
     X:     0.5558      Y:     1.9380      Z:     0.7096     Total:     2.1373

*** Psi4 exiting successfully. Buy a developer a beer!
