                               Psi4 1.4a3.dev225

  ==> Input File <==

--------------------------------------------------------------------------
#psi4
#
memory 32 gb

molecule  {
0 1
  N       -1.7531090     0.6487580     0.1985890
  C       -0.8584400    -0.3593730    -0.1157050
  C        0.5958890    -0.1944310    -0.0686340
  C       -1.6095070    -1.4830350    -0.4543950
  C       -3.0364380     0.1798280     0.0590890
  C       -2.9750140    -1.1422740    -0.3482900
  C       -1.4212420     1.9838780     0.6691930
  C        1.2419450     0.8845030    -0.6969540
  C        1.3787110    -1.1624060     0.5835710
  C        2.6315710     1.0013490    -0.6546280
  C        2.7689430    -1.0546610     0.6054980
  C        3.3999180     0.0321080    -0.0053240
  H       -1.1930810    -2.4304870    -0.7739750
  H       -3.8979545     0.8317865     0.2780028
  H       -3.8253090    -1.7817070    -0.5476340
  H       -2.2212640     2.3282100     1.3272780
  H       -0.4870200     1.9493020     1.2305480
  H       -1.3139190     2.6883760    -0.1607770
  H        0.6536140     1.6152250    -1.2478990
  H        0.8812590    -1.9928010     1.0799670
  H        3.1173860     1.8412050    -1.1464900
  H        3.3610660    -1.8124130     1.1137600
  H        4.4833320     0.1209150     0.0205430
units angstrom
no_reorient  #important for SAPT in psi4, default
symmetry c1  #important for SAPT in psi4, default
}

set PROPERTIES_ORIGIN ["COM"]
properties('MP2/aug-cc-pvtz', properties = ['dipole'])
--------------------------------------------------------------------------

    Molecular point group: c1
  Charge       = 0
  Multiplicity = 1
  Basis Set: AUG-CC-PVTZ
    Blend: AUG-CC-PVTZ
  Basis Set: (AUG-CC-PVTZ AUX)
    Blend: AUG-CC-PVTZ-JKFIT

    Orbital Energies [Eh]
    ---------------------

    Doubly Occupied:

       1A    -15.607778     2A    -11.270649     3A    -11.256551
       4A    -11.250825     5A    -11.250209     6A    -11.240737
       7A    -11.239585     8A    -11.239278     9A    -11.237975
      10A    -11.237076    11A    -11.208518    12A    -11.207098
      13A     -1.298962    14A     -1.155092    15A     -1.073458
      16A     -1.043844    17A     -1.016202    18A     -0.955258
      19A     -0.933399    20A     -0.832868    21A     -0.830609
      22A     -0.770191    23A     -0.742306    24A     -0.712107
      25A     -0.677053    26A     -0.639791    27A     -0.631162
      28A     -0.622454    29A     -0.596434    30A     -0.587185
      31A     -0.569693    32A     -0.567743    33A     -0.537357
      34A     -0.527143    35A     -0.523677    36A     -0.502168
      37A     -0.494904    38A     -0.491816    39A     -0.353993
      40A     -0.340304    41A     -0.335415    42A     -0.275188

  @DF-RHF Final Energy:  -477.54531959129588

   => Energetics <=

    Nuclear Repulsion Energy =            638.9387714538387399
    One-Electron Energy =               -1913.2000641153751985
    Two-Electron Energy =                 796.7159730702406932
    Total Energy =                       -477.5453195912958790
  Basis Set: (AUG-CC-PVTZ AUX)
    Blend: AUG-CC-PVTZ-RI
    Molecular point group: c1

    Geometry (in Angstrom), charge = 0, multiplicity = 1:

       Center              X                  Y                   Z               Mass
    ------------   -----------------  -----------------  -----------------  -----------------
         N           -1.755666583572     0.669801317188     0.205945246085    14.003074004430
         C           -0.860997583572    -0.338329682812    -0.108348753915    12.000000000000
         C            0.593331416428    -0.173387682812    -0.061277753915    12.000000000000
         C           -1.612064583572    -1.461991682812    -0.447038753915    12.000000000000
         C           -3.038995583572     0.200871317188     0.066445246085    12.000000000000
         C           -2.977571583572    -1.121230682812    -0.340933753915    12.000000000000
         C           -1.423799583572     2.004921317188     0.676549246085    12.000000000000
         C            1.239387416428     0.905546317188    -0.689597753915    12.000000000000
         C            1.376153416428    -1.141362682812     0.590927246085    12.000000000000
         C            2.629013416428     1.022392317188    -0.647271753915    12.000000000000
         C            2.766385416428    -1.033617682812     0.612854246085    12.000000000000
         C            3.397360416428     0.053151317188     0.002032246085    12.000000000000
         H           -1.195638583572    -2.409443682812    -0.766618753915     1.007825032230
         H           -3.900512083572     0.852829817188     0.285359046085     1.007825032230
         H           -3.827866583572    -1.760663682812    -0.540277753915     1.007825032230
         H           -2.223821583572     2.349253317188     1.334634246085     1.007825032230
         H           -0.489577583572     1.970345317188     1.237904246085     1.007825032230
         H           -1.316476583572     2.709419317188    -0.153420753915     1.007825032230
         H            0.651056416428     1.636268317188    -1.240542753915     1.007825032230
         H            0.878701416428    -1.971757682812     1.087323246085     1.007825032230
         H            3.114828416428     1.862248317188    -1.139133753915     1.007825032230
         H            3.358508416428    -1.791369682812     1.121116246085     1.007825032230
         H            4.480774416428     0.141958317188     0.027899246085     1.007825032230

  Basis Set: AUG-CC-PVTZ
    Blend: AUG-CC-PVTZ
  Basis Set: (AUG-CC-PVTZ AUX)
    Blend: AUG-CC-PVTZ-JKFIT
	 Reference Energy          =    -477.5453195912958790 [Eh]
	 Singles Energy            =      -0.0000000000000000 [Eh]
	 Same-Spin Energy          =      -0.5392215429696043 [Eh]
	 Opposite-Spin Energy      =      -1.6833949776108987 [Eh]
	 Correlation Energy        =      -2.2226165205805031 [Eh]
	 Total Energy              =    -479.7679361118763950 [Eh]

	 ================> DF-SCS-MP2 Energies <==================
	-----------------------------------------------------------
	 SCS Same-Spin Scale       =       0.3333333333333333 [-]
	 SCS Opposite-Spin Scale   =       1.2000000000000000 [-]
	 SCS Same-Spin Energy      =      -0.1797405143232014 [Eh]
	 SCS Opposite-Spin Energy  =      -2.0200739731330786 [Eh]
	 SCS Correlation Energy    =      -2.1998144874562802 [Eh]
	 SCS Total Energy          =    -479.7451340787521872 [Eh]
	-----------------------------------------------------------

  Dipole Moment: [D]
     X:     0.4726      Y:     1.8569      Z:     0.6761     Total:     2.0319

*** Psi4 exiting successfully. Buy a developer a beer!
