                               Psi4 1.3.2 release

  ==> Input File <==

--------------------------------------------------------------------------
#psi4
#
memory 32 gb

molecule  {
0 1
  N       -1.7531090     0.6487580     0.1985890
  C       -0.7530693    -0.2665703    -0.0800436
  C        0.5958890    -0.1944310    -0.0686340
  C       -1.6095070    -1.4830350    -0.4543950
  C       -3.0364380     0.1798280     0.0590890
  C       -2.9750140    -1.1422740    -0.3482900
  C       -1.4212420     1.9838780     0.6691930
  C        1.2419450     0.8845030    -0.6969540
  C        1.3787110    -1.1624060     0.5835710
  C        2.6315710     1.0013490    -0.6546280
  C        2.7689430    -1.0546610     0.6054980
  C        3.3999180     0.0321080    -0.0053240
  H       -1.1930810    -2.4304870    -0.7739750
  H       -3.8823240     0.8199580     0.2740310
  H       -3.8253090    -1.7817070    -0.5476340
  H       -2.2212640     2.3282100     1.3272780
  H       -0.4870200     1.9493020     1.2305480
  H       -1.3139190     2.6883760    -0.1607770
  H        0.6536140     1.6152250    -1.2478990
  H        0.8812590    -1.9928010     1.0799670
  H        3.1173860     1.8412050    -1.1464900
  H        3.3610660    -1.8124130     1.1137600
  H        4.4833320     0.1209150     0.0205430
units angstrom
no_reorient  #important for SAPT in psi4, default
symmetry c1  #important for SAPT in psi4, default
}

set PROPERTIES_ORIGIN ["COM"]
properties('MP2/aug-cc-pvtz', properties = ['dipole'])
--------------------------------------------------------------------------

    Molecular point group: c1
  Charge       = 0
  Multiplicity = 1
  Basis Set: AUG-CC-PVTZ
    Blend: AUG-CC-PVTZ
  Basis Set: (AUG-CC-PVTZ AUX)
    Blend: AUG-CC-PVTZ-JKFIT

    Orbital Energies [Eh]
    ---------------------

    Doubly Occupied:

       1A    -15.618664     2A    -11.269281     3A    -11.262040
       4A    -11.250400     5A    -11.243527     6A    -11.240631
       7A    -11.240128     8A    -11.238975     9A    -11.238405
      10A    -11.237951    11A    -11.219737    12A    -11.212776
      13A     -1.298282    14A     -1.161044    15A     -1.064519
      16A     -1.059718    17A     -1.016961    18A     -0.952354
      19A     -0.929213    20A     -0.846911    21A     -0.833325
      22A     -0.765899    23A     -0.747918    24A     -0.709236
      25A     -0.679337    26A     -0.643978    27A     -0.640027
      28A     -0.624246    29A     -0.601323    30A     -0.588123
      31A     -0.578040    32A     -0.560807    33A     -0.537447
      34A     -0.522647    35A     -0.517944    36A     -0.510336
      37A     -0.493392    38A     -0.480666    39A     -0.357650
      40A     -0.341071    41A     -0.334929    42A     -0.257140

  @DF-RHF Final Energy:  -477.50908809315496

   => Energetics <=

    Nuclear Repulsion Energy =            639.4401705466927979
    One-Electron Energy =               -1914.0445191823923778
    Two-Electron Energy =                 797.0952605425446791
    Total Energy =                       -477.5090880931549009
  Basis Set: (AUG-CC-PVTZ AUX)
    Blend: AUG-CC-PVTZ-RI
    Molecular point group: c1

    Geometry (in Angstrom), charge = 0, multiplicity = 1:

       Center              X                  Y                   Z               Mass
    ------------   -----------------  -----------------  -----------------  -----------------
         N           -1.763816103857     0.662788029854     0.203246562425    14.003074004430
         C           -0.763776403857    -0.252540270146    -0.075386037575    12.000000000000
         C            0.585181896143    -0.180400970146    -0.063976437575    12.000000000000
         C           -1.620214103857    -1.469004970146    -0.449737437575    12.000000000000
         C           -3.047145103857     0.193858029854     0.063746562425    12.000000000000
         C           -2.985721103857    -1.128243970146    -0.343632437575    12.000000000000
         C           -1.431949103857     1.997908029854     0.673850562425    12.000000000000
         C            1.231237896143     0.898533029854    -0.692296437575    12.000000000000
         C            1.368003896143    -1.148375970146     0.588228562425    12.000000000000
         C            2.620863896143     1.015379029854    -0.649970437575    12.000000000000
         C            2.758235896143    -1.040630970146     0.610155562425    12.000000000000
         C            3.389210896143     0.046138029854    -0.000666437575    12.000000000000
         H           -1.203788103857    -2.416456970146    -0.769317437575     1.007825032230
         H           -3.893031103857     0.833988029854     0.278688562425     1.007825032230
         H           -3.836016103857    -1.767676970146    -0.542976437575     1.007825032230
         H           -2.231971103857     2.342240029854     1.331935562425     1.007825032230
         H           -0.497727103857     1.963332029854     1.235205562425     1.007825032230
         H           -1.324626103857     2.702406029854    -0.156119437575     1.007825032230
         H            0.642906896143     1.629255029854    -1.243241437575     1.007825032230
         H            0.870551896143    -1.978770970146     1.084624562425     1.007825032230
         H            3.106678896143     1.855235029854    -1.141832437575     1.007825032230
         H            3.350358896143    -1.798382970146     1.118417562425     1.007825032230
         H            4.472624896143     0.134945029854     0.025200562425     1.007825032230

  Basis Set: AUG-CC-PVTZ
    Blend: AUG-CC-PVTZ
  Basis Set: (AUG-CC-PVTZ AUX)
    Blend: AUG-CC-PVTZ-JKFIT
	 Reference Energy          =    -477.5090880931549577 [Eh]
	 Singles Energy            =      -0.0000000000000000 [Eh]
	 Same-Spin Energy          =      -0.5439803495152835 [Eh]
	 Opposite-Spin Energy      =      -1.6903603338804671 [Eh]
	 Correlation Energy        =      -2.2343406833957506 [Eh]
	 Total Energy              =    -479.7434287765507293 [Eh]

	 ================> DF-SCS-MP2 Energies <==================
	-----------------------------------------------------------
	 SCS Same-Spin Scale       =       0.3333333333333333 [-]
	 SCS Opposite-Spin Scale   =       1.2000000000000000 [-]
	 SCS Same-Spin Energy      =      -0.1813267831717612 [Eh]
	 SCS Opposite-Spin Energy  =      -2.0284324006565604 [Eh]
	 SCS Correlation Energy    =      -2.2097591838283215 [Eh]
	 SCS Total Energy          =    -479.7188472769832970 [Eh]
	-----------------------------------------------------------

  Dipole Moment: [D]
     X:     0.2421      Y:     1.9089      Z:     0.6885     Total:     2.0437

*** Psi4 exiting successfully. Buy a developer a beer!
