                               Psi4 1.3.2 release

  ==> Input File <==

--------------------------------------------------------------------------
#psi4
#
memory 32 gb

molecule  {
0 1
  N       -1.7531090     0.6487580     0.1985890
  C       -0.8584400    -0.3593730    -0.1157050
  C        0.5958890    -0.1944310    -0.0686340
  C       -1.6377291    -1.5732412    -0.4821637
  C       -3.0364380     0.1798280     0.0590890
  C       -2.9750140    -1.1422740    -0.3482900
  C       -1.4212420     1.9838780     0.6691930
  C        1.2419450     0.8845030    -0.6969540
  C        1.3787110    -1.1624060     0.5835710
  C        2.6315710     1.0013490    -0.6546280
  C        2.7689430    -1.0546610     0.6054980
  C        3.3999180     0.0321080    -0.0053240
  H       -1.1930810    -2.4304870    -0.7739750
  H       -3.8823240     0.8199580     0.2740310
  H       -3.8253090    -1.7817070    -0.5476340
  H       -2.2212640     2.3282100     1.3272780
  H       -0.4870200     1.9493020     1.2305480
  H       -1.3139190     2.6883760    -0.1607770
  H        0.6536140     1.6152250    -1.2478990
  H        0.8812590    -1.9928010     1.0799670
  H        3.1173860     1.8412050    -1.1464900
  H        3.3610660    -1.8124130     1.1137600
  H        4.4833320     0.1209150     0.0205430
units angstrom
no_reorient  #important for SAPT in psi4, default
symmetry c1  #important for SAPT in psi4, default
}

set PROPERTIES_ORIGIN ["COM"]
properties('MP2/aug-cc-pvtz', properties = ['dipole'])
--------------------------------------------------------------------------

    Molecular point group: c1
  Charge       = 0
  Multiplicity = 1
  Basis Set: AUG-CC-PVTZ
    Blend: AUG-CC-PVTZ
  Basis Set: (AUG-CC-PVTZ AUX)
    Blend: AUG-CC-PVTZ-JKFIT

    Orbital Energies [Eh]
    ---------------------

    Doubly Occupied:

       1A    -15.615315     2A    -11.273406     3A    -11.267549
       4A    -11.250365     5A    -11.246436     6A    -11.240860
       7A    -11.239676     8A    -11.239390     9A    -11.237998
      10A    -11.237082    11A    -11.212410    12A    -11.211253
      13A     -1.297316    14A     -1.155138    15A     -1.068037
      16A     -1.043364    17A     -1.016291    18A     -0.950328
      19A     -0.938865    20A     -0.833759    21A     -0.830581
      22A     -0.776031    23A     -0.742904    24A     -0.712923
      25A     -0.677665    26A     -0.641551    27A     -0.634216
      28A     -0.623173    29A     -0.600263    30A     -0.587590
      31A     -0.575989    32A     -0.567006    33A     -0.547133
      34A     -0.526053    35A     -0.518960    36A     -0.502406
      37A     -0.492435    38A     -0.486044    39A     -0.352001
      40A     -0.340868    41A     -0.337139    42A     -0.266200

  @DF-RHF Final Energy:  -477.52980183406260

   => Energetics <=

    Nuclear Repulsion Energy =            637.0438793557566441
    One-Electron Energy =               -1909.3194259255242287
    Two-Electron Energy =                 794.7457447357049887
    Total Energy =                       -477.5298018340625958
  Basis Set: (AUG-CC-PVTZ AUX)
    Blend: AUG-CC-PVTZ-RI
    Molecular point group: c1

    Geometry (in Angstrom), charge = 0, multiplicity = 1:

       Center              X                  Y                   Z               Mass
    ------------   -----------------  -----------------  -----------------  -----------------
         N           -1.753610983983     0.676768032986     0.208091971564    14.003074004430
         C           -0.858941983983    -0.331362967014    -0.106202028436    12.000000000000
         C            0.595387016017    -0.166420967014    -0.059131028436    12.000000000000
         C           -1.638231083983    -1.545231167014    -0.472660728436    12.000000000000
         C           -3.036939983983     0.207838032986     0.068591971564    12.000000000000
         C           -2.975515983983    -1.114263967014    -0.338787028436    12.000000000000
         C           -1.421743983983     2.011888032986     0.678695971564    12.000000000000
         C            1.241443016017     0.912513032986    -0.687451028436    12.000000000000
         C            1.378209016017    -1.134395967014     0.593073971564    12.000000000000
         C            2.631069016017     1.029359032986    -0.645125028436    12.000000000000
         C            2.768441016017    -1.026650967014     0.615000971564    12.000000000000
         C            3.399416016017     0.060118032986     0.004178971564    12.000000000000
         H           -1.193582983983    -2.402476967014    -0.764472028436     1.007825032230
         H           -3.882825983983     0.847968032986     0.283533971564     1.007825032230
         H           -3.825810983983    -1.753696967014    -0.538131028436     1.007825032230
         H           -2.221765983983     2.356220032986     1.336780971564     1.007825032230
         H           -0.487521983983     1.977312032986     1.240050971564     1.007825032230
         H           -1.314420983983     2.716386032986    -0.151274028436     1.007825032230
         H            0.653112016017     1.643235032986    -1.238396028436     1.007825032230
         H            0.880757016017    -1.964790967014     1.089469971564     1.007825032230
         H            3.116884016017     1.869215032986    -1.136987028436     1.007825032230
         H            3.360564016017    -1.784402967014     1.123262971564     1.007825032230
         H            4.482830016017     0.148925032986     0.030045971564     1.007825032230

  Basis Set: AUG-CC-PVTZ
    Blend: AUG-CC-PVTZ
  Basis Set: (AUG-CC-PVTZ AUX)
    Blend: AUG-CC-PVTZ-JKFIT
	 Reference Energy          =    -477.5298018340625958 [Eh]
	 Singles Energy            =      -0.0000000000000000 [Eh]
	 Same-Spin Energy          =      -0.5405473822648844 [Eh]
	 Opposite-Spin Energy      =      -1.6857756409967954 [Eh]
	 Correlation Energy        =      -2.2263230232616800 [Eh]
	 Total Energy              =    -479.7561248573242665 [Eh]

	 ================> DF-SCS-MP2 Energies <==================
	-----------------------------------------------------------
	 SCS Same-Spin Scale       =       0.3333333333333333 [-]
	 SCS Opposite-Spin Scale   =       1.2000000000000000 [-]
	 SCS Same-Spin Energy      =      -0.1801824607549615 [Eh]
	 SCS Opposite-Spin Energy  =      -2.0229307691961544 [Eh]
	 SCS Correlation Energy    =      -2.2031132299511160 [Eh]
	 SCS Total Energy          =    -479.7329150640136959 [Eh]
	-----------------------------------------------------------

  Dipole Moment: [D]
     X:     0.4051      Y:     1.9381      Z:     0.6954     Total:     2.0986

*** Psi4 exiting successfully. Buy a developer a beer!
