                               Psi4 1.3.2 release

  ==> Input File <==

--------------------------------------------------------------------------
#psi4
#
memory 32 gb

molecule  {
0 1
  N       -1.7531090     0.6487580     0.1985890
  C       -0.8584400    -0.3593730    -0.1157050
  C        0.6058492    -0.3408228    -0.1129710
  C       -1.6095070    -1.4830350    -0.4543950
  C       -3.0364380     0.1798280     0.0590890
  C       -2.9750140    -1.1422740    -0.3482900
  C       -1.4212420     1.9838780     0.6691930
  C        1.2419450     0.8845030    -0.6969540
  C        1.3787110    -1.1624060     0.5835710
  C        2.6315710     1.0013490    -0.6546280
  C        2.7689430    -1.0546610     0.6054980
  C        3.3999180     0.0321080    -0.0053240
  H       -1.1930810    -2.4304870    -0.7739750
  H       -3.8823240     0.8199580     0.2740310
  H       -3.8253090    -1.7817070    -0.5476340
  H       -2.2212640     2.3282100     1.3272780
  H       -0.4870200     1.9493020     1.2305480
  H       -1.3139190     2.6883760    -0.1607770
  H        0.6536140     1.6152250    -1.2478990
  H        0.8812590    -1.9928010     1.0799670
  H        3.1173860     1.8412050    -1.1464900
  H        3.3610660    -1.8124130     1.1137600
  H        4.4833320     0.1209150     0.0205430
units angstrom
no_reorient  #important for SAPT in psi4, default
symmetry c1  #important for SAPT in psi4, default
}

set PROPERTIES_ORIGIN ["COM"]
properties('MP2/aug-cc-pvtz', properties = ['dipole'])
--------------------------------------------------------------------------

    Molecular point group: c1
  Charge       = 0
  Multiplicity = 1
  Basis Set: AUG-CC-PVTZ
    Blend: AUG-CC-PVTZ
  Basis Set: (AUG-CC-PVTZ AUX)
    Blend: AUG-CC-PVTZ-JKFIT

    Orbital Energies [Eh]
    ---------------------

    Doubly Occupied:

       1A    -15.610384     2A    -11.271305     3A    -11.256188
       4A    -11.250624     5A    -11.249242     6A    -11.247109
       7A    -11.240070     8A    -11.239571     9A    -11.238141
      10A    -11.228529    11A    -11.207439    12A    -11.204366
      13A     -1.299080    14A     -1.155983    15A     -1.074552
      16A     -1.045797    17A     -1.014058    18A     -0.956053
      19A     -0.933479    20A     -0.838672    21A     -0.824102
      22A     -0.771038    23A     -0.742670    24A     -0.712143
      25A     -0.679581    26A     -0.640477    27A     -0.632829
      28A     -0.619205    29A     -0.601542    30A     -0.584459
      31A     -0.571321    32A     -0.566508    33A     -0.537738
      34A     -0.526966    35A     -0.523819    36A     -0.510444
      37A     -0.495576    38A     -0.474401    39A     -0.361071
      40A     -0.338055    41A     -0.332027    42A     -0.274896

  @DF-RHF Final Energy:  -477.52912576887468

   => Energetics <=

    Nuclear Repulsion Energy =            638.6200303864906118
    One-Electron Energy =               -1912.5352964593166689
    Two-Electron Energy =                 796.3861403039512652
    Total Energy =                       -477.5291257688746782
  Basis Set: (AUG-CC-PVTZ AUX)
    Blend: AUG-CC-PVTZ-RI
    Molecular point group: c1

    Geometry (in Angstrom), charge = 0, multiplicity = 1:

       Center              X                  Y                   Z               Mass
    ------------   -----------------  -----------------  -----------------  -----------------
         N           -1.756527720129     0.681060036620     0.209357619770    14.003074004430
         C           -0.861858720129    -0.327070963380    -0.104936380230    12.000000000000
         C            0.602430479871    -0.308520763380    -0.102202380230    12.000000000000
         C           -1.612925720129    -1.450732963380    -0.443626380230    12.000000000000
         C           -3.039856720129     0.212130036620     0.069857619770    12.000000000000
         C           -2.978432720129    -1.109971963380    -0.337521380230    12.000000000000
         C           -1.424660720129     2.016180036620     0.679961619770    12.000000000000
         C            1.238526279871     0.916805036620    -0.686185380230    12.000000000000
         C            1.375292279871    -1.130103963380     0.594339619770    12.000000000000
         C            2.628152279871     1.033651036620    -0.643859380230    12.000000000000
         C            2.765524279871    -1.022358963380     0.616266619770    12.000000000000
         C            3.396499279871     0.064410036620     0.005444619770    12.000000000000
         H           -1.196499720129    -2.398184963380    -0.763206380230     1.007825032230
         H           -3.885742720129     0.852260036620     0.284799619770     1.007825032230
         H           -3.828727720129    -1.749404963380    -0.536865380230     1.007825032230
         H           -2.224682720129     2.360512036620     1.338046619770     1.007825032230
         H           -0.490438720129     1.981604036620     1.241316619770     1.007825032230
         H           -1.317337720129     2.720678036620    -0.150008380230     1.007825032230
         H            0.650195279871     1.647527036620    -1.237130380230     1.007825032230
         H            0.877840279871    -1.960498963380     1.090735619770     1.007825032230
         H            3.113967279871     1.873507036620    -1.135721380230     1.007825032230
         H            3.357647279871    -1.780110963380     1.124528619770     1.007825032230
         H            4.479913279871     0.153217036620     0.031311619770     1.007825032230

  Basis Set: AUG-CC-PVTZ
    Blend: AUG-CC-PVTZ
  Basis Set: (AUG-CC-PVTZ AUX)
    Blend: AUG-CC-PVTZ-JKFIT
	 Reference Energy          =    -477.5291257688746782 [Eh]
	 Singles Energy            =      -0.0000000000000000 [Eh]
	 Same-Spin Energy          =      -0.5389290623902638 [Eh]
	 Opposite-Spin Energy      =      -1.6839659814929275 [Eh]
	 Correlation Energy        =      -2.2228950438831916 [Eh]
	 Total Energy              =    -479.7520208127578485 [Eh]

	 ================> DF-SCS-MP2 Energies <==================
	-----------------------------------------------------------
	 SCS Same-Spin Scale       =       0.3333333333333333 [-]
	 SCS Opposite-Spin Scale   =       1.2000000000000000 [-]
	 SCS Same-Spin Energy      =      -0.1796430207967546 [Eh]
	 SCS Opposite-Spin Energy  =      -2.0207591777915130 [Eh]
	 SCS Correlation Energy    =      -2.2004021985882676 [Eh]
	 SCS Total Energy          =    -479.7295279674629569 [Eh]
	-----------------------------------------------------------

  Dipole Moment: [D]
     X:     0.4765      Y:     1.8942      Z:     0.7066     Total:     2.0770

*** Psi4 exiting successfully. Buy a developer a beer!
