                               Psi4 1.3.2 release

  ==> Input File <==

--------------------------------------------------------------------------
#psi4
#
memory 32 gb

molecule  {
0 1
  N       -1.7531090     0.6487580     0.1985890
  C       -0.8584400    -0.3593730    -0.1157050
  C        0.5958890    -0.1944310    -0.0686340
  C       -1.6095070    -1.4830350    -0.4543950
  C       -3.0364380     0.1798280     0.0590890
  C       -2.9991625    -1.1432445    -0.3480644
  C       -1.4212420     1.9838780     0.6691930
  C        1.2419450     0.8845030    -0.6969540
  C        1.3787110    -1.1624060     0.5835710
  C        2.6315710     1.0013490    -0.6546280
  C        2.7689430    -1.0546610     0.6054980
  C        3.3999180     0.0321080    -0.0053240
  H       -1.1930810    -2.4304870    -0.7739750
  H       -3.8823240     0.8199580     0.2740310
  H       -3.8253090    -1.7817070    -0.5476340
  H       -2.2212640     2.3282100     1.3272780
  H       -0.4870200     1.9493020     1.2305480
  H       -1.3139190     2.6883760    -0.1607770
  H        0.6536140     1.6152250    -1.2478990
  H        0.8812590    -1.9928010     1.0799670
  H        3.1173860     1.8412050    -1.1464900
  H        3.3610660    -1.8124130     1.1137600
  H        4.4833320     0.1209150     0.0205430
units angstrom
no_reorient  #important for SAPT in psi4, default
symmetry c1  #important for SAPT in psi4, default
}

set PROPERTIES_ORIGIN ["COM"]
properties('MP2/aug-cc-pvtz', properties = ['dipole'])
--------------------------------------------------------------------------

    Molecular point group: c1
  Charge       = 0
  Multiplicity = 1
  Basis Set: AUG-CC-PVTZ
    Blend: AUG-CC-PVTZ
  Basis Set: (AUG-CC-PVTZ AUX)
    Blend: AUG-CC-PVTZ-JKFIT

    Orbital Energies [Eh]
    ---------------------

    Doubly Occupied:

       1A    -15.606994     2A    -11.270730     3A    -11.256976
       4A    -11.250350     5A    -11.249897     6A    -11.240836
       7A    -11.239689     8A    -11.239367     9A    -11.238080
      10A    -11.237164    11A    -11.209491    12A    -11.208391
      13A     -1.297994    14A     -1.155189    15A     -1.070683
      16A     -1.043943    17A     -1.016269    18A     -0.956590
      19A     -0.931965    20A     -0.833388    21A     -0.830761
      22A     -0.772867    23A     -0.742269    24A     -0.712508
      25A     -0.677897    26A     -0.639926    27A     -0.631996
      28A     -0.622725    29A     -0.598061    30A     -0.587286
      31A     -0.571959    32A     -0.568193    33A     -0.536172
      34A     -0.528098    35A     -0.521860    36A     -0.502255
      37A     -0.494412    38A     -0.491836    39A     -0.354202
      40A     -0.340179    41A     -0.332910    42A     -0.276477

  @DF-RHF Final Energy:  -477.54561711164769

   => Energetics <=

    Nuclear Repulsion Energy =            638.5851957266520458
    One-Electron Energy =               -1912.4839617362185891
    Two-Electron Energy =                 796.3531488979187998
    Total Energy =                       -477.5456171116477435
  Basis Set: (AUG-CC-PVTZ AUX)
    Blend: AUG-CC-PVTZ-RI
    Molecular point group: c1

    Geometry (in Angstrom), charge = 0, multiplicity = 1:

       Center              X                  Y                   Z               Mass
    ------------   -----------------  -----------------  -----------------  -----------------
         N           -1.753922165247     0.669951340653     0.205953494137    14.003074004430
         C           -0.859253165247    -0.338179659347    -0.108340505863    12.000000000000
         C            0.595075834753    -0.173237659347    -0.061269505863    12.000000000000
         C           -1.610320165247    -1.461841659347    -0.447030505863    12.000000000000
         C           -3.037251165247     0.201021340653     0.066453494137    12.000000000000
         C           -2.999975665247    -1.122051159347    -0.340699905863    12.000000000000
         C           -1.422055165247     2.005071340653     0.676557494137    12.000000000000
         C            1.241131834753     0.905696340653    -0.689589505863    12.000000000000
         C            1.377897834753    -1.141212659347     0.590935494137    12.000000000000
         C            2.630757834753     1.022542340653    -0.647263505863    12.000000000000
         C            2.768129834753    -1.033467659347     0.612862494137    12.000000000000
         C            3.399104834753     0.053301340653     0.002040494137    12.000000000000
         H           -1.193894165247    -2.409293659347    -0.766610505863     1.007825032230
         H           -3.883137165247     0.841151340653     0.281395494137     1.007825032230
         H           -3.826122165247    -1.760513659347    -0.540269505863     1.007825032230
         H           -2.222077165247     2.349403340653     1.334642494137     1.007825032230
         H           -0.487833165247     1.970495340653     1.237912494137     1.007825032230
         H           -1.314732165247     2.709569340653    -0.153412505863     1.007825032230
         H            0.652800834753     1.636418340653    -1.240534505863     1.007825032230
         H            0.880445834753    -1.971607659347     1.087331494137     1.007825032230
         H            3.116572834753     1.862398340653    -1.139125505863     1.007825032230
         H            3.360252834753    -1.791219659347     1.121124494137     1.007825032230
         H            4.482518834753     0.142108340653     0.027907494137     1.007825032230

  Basis Set: AUG-CC-PVTZ
    Blend: AUG-CC-PVTZ
  Basis Set: (AUG-CC-PVTZ AUX)
    Blend: AUG-CC-PVTZ-JKFIT
	 Reference Energy          =    -477.5456171116476867 [Eh]
	 Singles Energy            =      -0.0000000000000000 [Eh]
	 Same-Spin Energy          =      -0.5388644500318458 [Eh]
	 Opposite-Spin Energy      =      -1.6830664560768840 [Eh]
	 Correlation Energy        =      -2.2219309061087298 [Eh]
	 Total Energy              =    -479.7675480177564395 [Eh]

	 ================> DF-SCS-MP2 Energies <==================
	-----------------------------------------------------------
	 SCS Same-Spin Scale       =       0.3333333333333333 [-]
	 SCS Opposite-Spin Scale   =       1.2000000000000000 [-]
	 SCS Same-Spin Energy      =      -0.1796214833439486 [Eh]
	 SCS Opposite-Spin Energy  =      -2.0196797472922605 [Eh]
	 SCS Correlation Energy    =      -2.1993012306362090 [Eh]
	 SCS Total Energy          =    -479.7449183422838814 [Eh]
	-----------------------------------------------------------

  Dipole Moment: [D]
     X:     0.4845      Y:     1.8616      Z:     0.6780     Total:     2.0396

*** Psi4 exiting successfully. Buy a developer a beer!
