                               Psi4 1.3.2 release

  ==> Input File <==

--------------------------------------------------------------------------
#psi4
#
memory 32 gb

molecule  {
0 1
  N       -1.7531090     0.6487580     0.1985890
  C       -0.9852282    -0.2904630    -0.0945662
  C        0.5958890    -0.1944310    -0.0686340
  C       -1.6095070    -1.4830350    -0.4543950
  C       -3.0364380     0.1798280     0.0590890
  C       -2.9750140    -1.1422740    -0.3482900
  C       -1.4212420     1.9838780     0.6691930
  C        1.2419450     0.8845030    -0.6969540
  C        1.3787110    -1.1624060     0.5835710
  C        2.6315710     1.0013490    -0.6546280
  C        2.7689430    -1.0546610     0.6054980
  C        3.3999180     0.0321080    -0.0053240
  H       -1.1930810    -2.4304870    -0.7739750
  H       -3.8823240     0.8199580     0.2740310
  H       -3.8253090    -1.7817070    -0.5476340
  H       -2.2212640     2.3282100     1.3272780
  H       -0.4870200     1.9493020     1.2305480
  H       -1.3139190     2.6883760    -0.1607770
  H        0.6536140     1.6152250    -1.2478990
  H        0.8812590    -1.9928010     1.0799670
  H        3.1173860     1.8412050    -1.1464900
  H        3.3610660    -1.8124130     1.1137600
  H        4.4833320     0.1209150     0.0205430
units angstrom
no_reorient  #important for SAPT in psi4, default
symmetry c1  #important for SAPT in psi4, default
}

set PROPERTIES_ORIGIN ["COM"]
properties('MP2/aug-cc-pvtz', properties = ['dipole'])
--------------------------------------------------------------------------

    Molecular point group: c1
  Charge       = 0
  Multiplicity = 1
  Basis Set: AUG-CC-PVTZ
    Blend: AUG-CC-PVTZ
  Basis Set: (AUG-CC-PVTZ AUX)
    Blend: AUG-CC-PVTZ-JKFIT

    Orbital Energies [Eh]
    ---------------------

    Doubly Occupied:

       1A    -15.613132     2A    -11.279462     3A    -11.257229
       4A    -11.255449     5A    -11.239860     6A    -11.239249
       7A    -11.238045     8A    -11.237201     9A    -11.236843
      10A    -11.236482    11A    -11.209778    12A    -11.196841
      13A     -1.344602    14A     -1.151283    15A     -1.080470
      16A     -1.032129    17A     -1.015236    18A     -0.968989
      19A     -0.942758    20A     -0.828617    21A     -0.822986
      22A     -0.783998    23A     -0.737803    24A     -0.717885
      25A     -0.676498    26A     -0.653745    27A     -0.630403
      28A     -0.621618    29A     -0.599286    30A     -0.592887
      31A     -0.586151    32A     -0.558846    33A     -0.540747
      34A     -0.534976    35A     -0.526913    36A     -0.502421
      37A     -0.492486    38A     -0.471753    39A     -0.346565
      40A     -0.343256    41A     -0.338639    42A     -0.275730

  @DF-RHF Final Energy:  -477.52286218217876

   => Energetics <=

    Nuclear Repulsion Energy =            639.9832177801396256
    One-Electron Energy =               -1915.0936677153765686
    Two-Electron Energy =                 797.5875877530580738
    Total Energy =                       -477.5228621821787556
  Basis Set: (AUG-CC-PVTZ AUX)
    Blend: AUG-CC-PVTZ-RI
    Molecular point group: c1

    Geometry (in Angstrom), charge = 0, multiplicity = 1:

       Center              X                  Y                   Z               Mass
    ------------   -----------------  -----------------  -----------------  -----------------
         N           -1.746081544777     0.664613187105     0.204355940130    14.003074004430
         C           -0.978200744777    -0.274607812895    -0.088799259870    12.000000000000
         C            0.602916455223    -0.178575812895    -0.062867059870    12.000000000000
         C           -1.602479544777    -1.467179812895    -0.448628059870    12.000000000000
         C           -3.029410544777     0.195683187105     0.064855940130    12.000000000000
         C           -2.967986544777    -1.126418812895    -0.342523059870    12.000000000000
         C           -1.414214544777     1.999733187105     0.674959940130    12.000000000000
         C            1.248972455223     0.900358187105    -0.691187059870    12.000000000000
         C            1.385738455223    -1.146550812895     0.589337940130    12.000000000000
         C            2.638598455223     1.017204187105    -0.648861059870    12.000000000000
         C            2.775970455223    -1.038805812895     0.611264940130    12.000000000000
         C            3.406945455223     0.047963187105     0.000442940130    12.000000000000
         H           -1.186053544777    -2.414631812895    -0.768208059870     1.007825032230
         H           -3.875296544777     0.835813187105     0.279797940130     1.007825032230
         H           -3.818281544777    -1.765851812895    -0.541867059870     1.007825032230
         H           -2.214236544777     2.344065187105     1.333044940130     1.007825032230
         H           -0.479992544777     1.965157187105     1.236314940130     1.007825032230
         H           -1.306891544777     2.704231187105    -0.155010059870     1.007825032230
         H            0.660641455223     1.631080187105    -1.242132059870     1.007825032230
         H            0.888286455223    -1.976945812895     1.085733940130     1.007825032230
         H            3.124413455223     1.857060187105    -1.140723059870     1.007825032230
         H            3.368093455223    -1.796557812895     1.119526940130     1.007825032230
         H            4.490359455223     0.136770187105     0.026309940130     1.007825032230

  Basis Set: AUG-CC-PVTZ
    Blend: AUG-CC-PVTZ
  Basis Set: (AUG-CC-PVTZ AUX)
    Blend: AUG-CC-PVTZ-JKFIT
	 Reference Energy          =    -477.5228621821787556 [Eh]
	 Singles Energy            =      -0.0000000000000000 [Eh]
	 Same-Spin Energy          =      -0.5379169806267764 [Eh]
	 Opposite-Spin Energy      =      -1.6804468001086970 [Eh]
	 Correlation Energy        =      -2.2183637807354732 [Eh]
	 Total Energy              =    -479.7412259629142568 [Eh]

	 ================> DF-SCS-MP2 Energies <==================
	-----------------------------------------------------------
	 SCS Same-Spin Scale       =       0.3333333333333333 [-]
	 SCS Opposite-Spin Scale   =       1.2000000000000000 [-]
	 SCS Same-Spin Energy      =      -0.1793056602089255 [Eh]
	 SCS Opposite-Spin Energy  =      -2.0165361601304364 [Eh]
	 SCS Correlation Energy    =      -2.1958418203393619 [Eh]
	 SCS Total Energy          =    -479.7187040025181091 [Eh]
	-----------------------------------------------------------

  Dipole Moment: [D]
     X:     0.4838      Y:     2.0669      Z:     0.7625     Total:     2.2556

*** Psi4 exiting successfully. Buy a developer a beer!
