                               Psi4 1.3.2 release

  ==> Input File <==

--------------------------------------------------------------------------
#psi4
#
memory 32 gb

molecule  {
0 1
  N       -1.7531090     0.6487580     0.1985890
  C       -0.8584400    -0.3593730    -0.1157050
  C        0.5958890    -0.1944310    -0.0686340
  C       -1.6095070    -1.4830350    -0.4543950
  C       -3.0605730     0.1786201     0.0586531
  C       -2.9750140    -1.1422740    -0.3482900
  C       -1.4212420     1.9838780     0.6691930
  C        1.2419450     0.8845030    -0.6969540
  C        1.3787110    -1.1624060     0.5835710
  C        2.6315710     1.0013490    -0.6546280
  C        2.7689430    -1.0546610     0.6054980
  C        3.3999180     0.0321080    -0.0053240
  H       -1.1930810    -2.4304870    -0.7739750
  H       -3.8823240     0.8199580     0.2740310
  H       -3.8253090    -1.7817070    -0.5476340
  H       -2.2212640     2.3282100     1.3272780
  H       -0.4870200     1.9493020     1.2305480
  H       -1.3139190     2.6883760    -0.1607770
  H        0.6536140     1.6152250    -1.2478990
  H        0.8812590    -1.9928010     1.0799670
  H        3.1173860     1.8412050    -1.1464900
  H        3.3610660    -1.8124130     1.1137600
  H        4.4833320     0.1209150     0.0205430
units angstrom
no_reorient  #important for SAPT in psi4, default
symmetry c1  #important for SAPT in psi4, default
}

set PROPERTIES_ORIGIN ["COM"]
properties('MP2/aug-cc-pvtz', properties = ['dipole'])
--------------------------------------------------------------------------

    Molecular point group: c1
  Charge       = 0
  Multiplicity = 1
  Basis Set: AUG-CC-PVTZ
    Blend: AUG-CC-PVTZ
  Basis Set: (AUG-CC-PVTZ AUX)
    Blend: AUG-CC-PVTZ-JKFIT

    Orbital Energies [Eh]
    ---------------------

    Doubly Occupied:

       1A    -15.606373     2A    -11.269342     3A    -11.258393
       4A    -11.250631     5A    -11.248271     6A    -11.241120
       7A    -11.240036     8A    -11.239682     9A    -11.238459
      10A    -11.237627    11A    -11.210056    12A    -11.206755
      13A     -1.292554    14A     -1.155365    15A     -1.072167
      16A     -1.043941    17A     -1.016590    18A     -0.956638
      19A     -0.930626    20A     -0.834472    21A     -0.830878
      22A     -0.769956    23A     -0.744046    24A     -0.711104
      25A     -0.678414    26A     -0.639200    27A     -0.632278
      28A     -0.622151    29A     -0.596719    30A     -0.587489
      31A     -0.570574    32A     -0.565242    33A     -0.540803
      34A     -0.525816    35A     -0.522295    36A     -0.502306
      37A     -0.495306    38A     -0.491710    39A     -0.353807
      40A     -0.340578    41A     -0.334851    42A     -0.276019

  @DF-RHF Final Energy:  -477.54475889891955

   => Energetics <=

    Nuclear Repulsion Energy =            638.4997180846399942
    One-Electron Energy =               -1912.3276735626252503
    Two-Electron Energy =                 796.2831965790655886
    Total Energy =                       -477.5447588989195538
  Basis Set: (AUG-CC-PVTZ AUX)
    Blend: AUG-CC-PVTZ-RI
    Molecular point group: c1

    Geometry (in Angstrom), charge = 0, multiplicity = 1:

       Center              X                  Y                   Z               Mass
    ------------   -----------------  -----------------  -----------------  -----------------
         N           -1.753923196508     0.669969475578     0.206004025953    14.003074004430
         C           -0.859254196508    -0.338161524422    -0.108289974047    12.000000000000
         C            0.595074803492    -0.173219524422    -0.061218974047    12.000000000000
         C           -1.610321196508    -1.461823524422    -0.446979974047    12.000000000000
         C           -3.061387196508     0.199831575578     0.066068125953    12.000000000000
         C           -2.975828196508    -1.121062524422    -0.340874974047    12.000000000000
         C           -1.422056196508     2.005089475578     0.676608025953    12.000000000000
         C            1.241130803492     0.905714475578    -0.689538974047    12.000000000000
         C            1.377896803492    -1.141194524422     0.590986025953    12.000000000000
         C            2.630756803492     1.022560475578    -0.647212974047    12.000000000000
         C            2.768128803492    -1.033449524422     0.612913025953    12.000000000000
         C            3.399103803492     0.053319475578     0.002091025953    12.000000000000
         H           -1.193895196508    -2.409275524422    -0.766559974047     1.007825032230
         H           -3.883138196508     0.841169475578     0.281446025953     1.007825032230
         H           -3.826123196508    -1.760495524422    -0.540218974047     1.007825032230
         H           -2.222078196508     2.349421475578     1.334693025953     1.007825032230
         H           -0.487834196508     1.970513475578     1.237963025953     1.007825032230
         H           -1.314733196508     2.709587475578    -0.153361974047     1.007825032230
         H            0.652799803492     1.636436475578    -1.240483974047     1.007825032230
         H            0.880444803492    -1.971589524422     1.087382025953     1.007825032230
         H            3.116571803492     1.862416475578    -1.139074974047     1.007825032230
         H            3.360251803492    -1.791201524422     1.121175025953     1.007825032230
         H            4.482517803492     0.142126475578     0.027958025953     1.007825032230

  Basis Set: AUG-CC-PVTZ
    Blend: AUG-CC-PVTZ
  Basis Set: (AUG-CC-PVTZ AUX)
    Blend: AUG-CC-PVTZ-JKFIT
	 Reference Energy          =    -477.5447588989195538 [Eh]
	 Singles Energy            =      -0.0000000000000000 [Eh]
	 Same-Spin Energy          =      -0.5391471022045552 [Eh]
	 Opposite-Spin Energy      =      -1.6835553679314255 [Eh]
	 Correlation Energy        =      -2.2227024701359808 [Eh]
	 Total Energy              =    -479.7674613690555248 [Eh]

	 ================> DF-SCS-MP2 Energies <==================
	-----------------------------------------------------------
	 SCS Same-Spin Scale       =       0.3333333333333333 [-]
	 SCS Opposite-Spin Scale   =       1.2000000000000000 [-]
	 SCS Same-Spin Energy      =      -0.1797157007348517 [Eh]
	 SCS Opposite-Spin Energy  =      -2.0202664415177103 [Eh]
	 SCS Correlation Energy    =      -2.1999821422525621 [Eh]
	 SCS Total Energy          =    -479.7447410411721194 [Eh]
	-----------------------------------------------------------

  Dipole Moment: [D]
     X:     0.4830      Y:     1.8314      Z:     0.6677     Total:     2.0083

*** Psi4 exiting successfully. Buy a developer a beer!
