                               Psi4 1.3.2 release

  ==> Input File <==

--------------------------------------------------------------------------
#psi4
#
memory 32 gb

molecule  {
0 1
  N       -1.7531090     0.6487580     0.1985890
  C       -0.8584400    -0.3593730    -0.1157050
  C        0.5743405    -0.1860012    -0.0767943
  C       -1.6095070    -1.4830350    -0.4543950
  C       -3.0364380     0.1798280     0.0590890
  C       -2.9750140    -1.1422740    -0.3482900
  C       -1.4212420     1.9838780     0.6691930
  C        1.2419450     0.8845030    -0.6969540
  C        1.3787110    -1.1624060     0.5835710
  C        2.6315710     1.0013490    -0.6546280
  C        2.7689430    -1.0546610     0.6054980
  C        3.3999180     0.0321080    -0.0053240
  H       -1.1930810    -2.4304870    -0.7739750
  H       -3.8823240     0.8199580     0.2740310
  H       -3.8253090    -1.7817070    -0.5476340
  H       -2.2212640     2.3282100     1.3272780
  H       -0.4870200     1.9493020     1.2305480
  H       -1.3139190     2.6883760    -0.1607770
  H        0.6536140     1.6152250    -1.2478990
  H        0.8812590    -1.9928010     1.0799670
  H        3.1173860     1.8412050    -1.1464900
  H        3.3610660    -1.8124130     1.1137600
  H        4.4833320     0.1209150     0.0205430
units angstrom
no_reorient  #important for SAPT in psi4, default
symmetry c1  #important for SAPT in psi4, default
}

set PROPERTIES_ORIGIN ["COM"]
properties('MP2/aug-cc-pvtz', properties = ['dipole'])
--------------------------------------------------------------------------

    Molecular point group: c1
  Charge       = 0
  Multiplicity = 1
  Basis Set: AUG-CC-PVTZ
    Blend: AUG-CC-PVTZ
  Basis Set: (AUG-CC-PVTZ AUX)
    Blend: AUG-CC-PVTZ-JKFIT

    Orbital Energies [Eh]
    ---------------------

    Doubly Occupied:

       1A    -15.607848     2A    -11.270788     3A    -11.255680
       4A    -11.250691     5A    -11.249248     6A    -11.240575
       7A    -11.239758     8A    -11.239311     9A    -11.238659
      10A    -11.237715    11A    -11.209015    12A    -11.207808
      13A     -1.299670    14A     -1.153036    15A     -1.074035
      16A     -1.045719    17A     -1.014848    18A     -0.955868
      19A     -0.933744    20A     -0.835221    21A     -0.829063
      22A     -0.771488    23A     -0.743525    24A     -0.712584
      25A     -0.678519    26A     -0.640172    27A     -0.632457
      28A     -0.621775    29A     -0.596257    30A     -0.586069
      31A     -0.570095    32A     -0.568978    33A     -0.538741
      34A     -0.527771    35A     -0.524275    36A     -0.503300
      37A     -0.495654    38A     -0.488474    39A     -0.354222
      40A     -0.339556    41A     -0.335758    42A     -0.274142

  @DF-RHF Final Energy:  -477.54444322286207

   => Energetics <=

    Nuclear Repulsion Energy =            639.0833757239884108
    One-Electron Energy =               -1913.4714112113199462
    Two-Electron Energy =                 796.8435922644695211
    Total Energy =                       -477.5444432228620144
  Basis Set: (AUG-CC-PVTZ AUX)
    Blend: AUG-CC-PVTZ-RI
    Molecular point group: c1

    Geometry (in Angstrom), charge = 0, multiplicity = 1:

       Center              X                  Y                   Z               Mass
    ------------   -----------------  -----------------  -----------------  -----------------
         N           -1.754120778583     0.669233254137     0.206594090896    14.003074004430
         C           -0.859451778583    -0.338897745863    -0.107699909104    12.000000000000
         C            0.573328721417    -0.165525945863    -0.068789209104    12.000000000000
         C           -1.610518778583    -1.462559745863    -0.446389909104    12.000000000000
         C           -3.037449778583     0.200303254137     0.067094090896    12.000000000000
         C           -2.976025778583    -1.121798745863    -0.340284909104    12.000000000000
         C           -1.422253778583     2.004353254137     0.677198090896    12.000000000000
         C            1.240933221417     0.904978254137    -0.688948909104    12.000000000000
         C            1.377699221417    -1.141930745863     0.591576090896    12.000000000000
         C            2.630559221417     1.021824254137    -0.646622909104    12.000000000000
         C            2.767931221417    -1.034185745863     0.613503090896    12.000000000000
         C            3.398906221417     0.052583254137     0.002681090896    12.000000000000
         H           -1.194092778583    -2.410011745863    -0.765969909104     1.007825032230
         H           -3.883335778583     0.840433254137     0.282036090896     1.007825032230
         H           -3.826320778583    -1.761231745863    -0.539628909104     1.007825032230
         H           -2.222275778583     2.348685254137     1.335283090896     1.007825032230
         H           -0.488031778583     1.969777254137     1.238553090896     1.007825032230
         H           -1.314930778583     2.708851254137    -0.152771909104     1.007825032230
         H            0.652602221417     1.635700254137    -1.239893909104     1.007825032230
         H            0.880247221417    -1.972325745863     1.087972090896     1.007825032230
         H            3.116374221417     1.861680254137    -1.138484909104     1.007825032230
         H            3.360054221417    -1.791937745863     1.121765090896     1.007825032230
         H            4.482320221417     0.141390254137     0.028548090896     1.007825032230

  Basis Set: AUG-CC-PVTZ
    Blend: AUG-CC-PVTZ
  Basis Set: (AUG-CC-PVTZ AUX)
    Blend: AUG-CC-PVTZ-JKFIT
	 Reference Energy          =    -477.5444432228620713 [Eh]
	 Singles Energy            =      -0.0000000000000000 [Eh]
	 Same-Spin Energy          =      -0.5395431340024983 [Eh]
	 Opposite-Spin Energy      =      -1.6837737058943358 [Eh]
	 Correlation Energy        =      -2.2233168398968344 [Eh]
	 Total Energy              =    -479.7677600627588959 [Eh]

	 ================> DF-SCS-MP2 Energies <==================
	-----------------------------------------------------------
	 SCS Same-Spin Scale       =       0.3333333333333333 [-]
	 SCS Opposite-Spin Scale   =       1.2000000000000000 [-]
	 SCS Same-Spin Energy      =      -0.1798477113341661 [Eh]
	 SCS Opposite-Spin Energy  =      -2.0205284470732030 [Eh]
	 SCS Correlation Energy    =      -2.2003761584073693 [Eh]
	 SCS Total Energy          =    -479.7448193812694512 [Eh]
	-----------------------------------------------------------

  Dipole Moment: [D]
     X:     0.4078      Y:     1.8525      Z:     0.6715     Total:     2.0122

*** Psi4 exiting successfully. Buy a developer a beer!
