                               Psi4 1.3.2 release

  ==> Input File <==

--------------------------------------------------------------------------
#psi4
#
memory 32 gb

molecule  {
0 1
  N       -1.8112760     0.7743380     0.2374841
  C       -0.8584400    -0.3593730    -0.1157050
  C        0.5958890    -0.1944310    -0.0686340
  C       -1.6095070    -1.4830350    -0.4543950
  C       -3.0364380     0.1798280     0.0590890
  C       -2.9750140    -1.1422740    -0.3482900
  C       -1.4212420     1.9838780     0.6691930
  C        1.2419450     0.8845030    -0.6969540
  C        1.3787110    -1.1624060     0.5835710
  C        2.6315710     1.0013490    -0.6546280
  C        2.7689430    -1.0546610     0.6054980
  C        3.3999180     0.0321080    -0.0053240
  H       -1.1930810    -2.4304870    -0.7739750
  H       -3.8823240     0.8199580     0.2740310
  H       -3.8253090    -1.7817070    -0.5476340
  H       -2.2212640     2.3282100     1.3272780
  H       -0.4870200     1.9493020     1.2305480
  H       -1.3139190     2.6883760    -0.1607770
  H        0.6536140     1.6152250    -1.2478990
  H        0.8812590    -1.9928010     1.0799670
  H        3.1173860     1.8412050    -1.1464900
  H        3.3610660    -1.8124130     1.1137600
  H        4.4833320     0.1209150     0.0205430
units angstrom
no_reorient  #important for SAPT in psi4, default
symmetry c1  #important for SAPT in psi4, default
}

set PROPERTIES_ORIGIN ["COM"]
properties('MP2/aug-cc-pvtz', properties = ['dipole'])
--------------------------------------------------------------------------

    Molecular point group: c1
  Charge       = 0
  Multiplicity = 1
  Basis Set: AUG-CC-PVTZ
    Blend: AUG-CC-PVTZ
  Basis Set: (AUG-CC-PVTZ AUX)
    Blend: AUG-CC-PVTZ-JKFIT

    Orbital Energies [Eh]
    ---------------------

    Doubly Occupied:

       1A    -15.603103     2A    -11.264849     3A    -11.261538
       4A    -11.258937     5A    -11.249611     6A    -11.239804
       7A    -11.238837     8A    -11.238254     9A    -11.237208
      10A    -11.236501    11A    -11.221595    12A    -11.211066
      13A     -1.290167    14A     -1.155015    15A     -1.094893
      16A     -1.041704    17A     -1.015530    18A     -0.954887
      19A     -0.925466    20A     -0.831844    21A     -0.828954
      22A     -0.766784    23A     -0.749117    24A     -0.713405
      25A     -0.676214    26A     -0.643798    27A     -0.631233
      28A     -0.626212    29A     -0.603182    30A     -0.598087
      31A     -0.586672    32A     -0.556781    33A     -0.539827
      34A     -0.516467    35A     -0.510725    36A     -0.495061
      37A     -0.493300    38A     -0.484742    39A     -0.358633
      40A     -0.339456    41A     -0.335645    42A     -0.273067

  @DF-RHF Final Energy:  -477.51670816670520

   => Energetics <=

    Nuclear Repulsion Energy =            637.2509397791391166
    One-Electron Energy =               -1909.7389470145778887
    Two-Electron Energy =                 794.9712990687335150
    Total Energy =                       -477.5167081667052571
  Basis Set: (AUG-CC-PVTZ AUX)
    Blend: AUG-CC-PVTZ-RI
    Molecular point group: c1

    Geometry (in Angstrom), charge = 0, multiplicity = 1:

       Center              X                  Y                   Z               Mass
    ------------   -----------------  -----------------  -----------------  -----------------
         N           -1.808748802098     0.784262885507     0.241398681995    14.003074004430
         C           -0.855912802098    -0.349448114493    -0.111790418005    12.000000000000
         C            0.598416197902    -0.184506114493    -0.064719418005    12.000000000000
         C           -1.606979802098    -1.473110114493    -0.450480418005    12.000000000000
         C           -3.033910802098     0.189752885507     0.063003581995    12.000000000000
         C           -2.972486802098    -1.132349114493    -0.344375418005    12.000000000000
         C           -1.418714802098     1.993802885507     0.673107581995    12.000000000000
         C            1.244472197902     0.894427885507    -0.693039418005    12.000000000000
         C            1.381238197902    -1.152481114493     0.587485581995    12.000000000000
         C            2.634098197902     1.011273885507    -0.650713418005    12.000000000000
         C            2.771470197902    -1.044736114493     0.609412581995    12.000000000000
         C            3.402445197902     0.042032885507    -0.001409418005    12.000000000000
         H           -1.190553802098    -2.420562114493    -0.770060418005     1.007825032230
         H           -3.879796802098     0.829882885507     0.277945581995     1.007825032230
         H           -3.822781802098    -1.771782114493    -0.543719418005     1.007825032230
         H           -2.218736802098     2.338134885507     1.331192581995     1.007825032230
         H           -0.484492802098     1.959226885507     1.234462581995     1.007825032230
         H           -1.311391802098     2.698300885507    -0.156862418005     1.007825032230
         H            0.656141197902     1.625149885507    -1.243984418005     1.007825032230
         H            0.883786197902    -1.982876114493     1.083881581995     1.007825032230
         H            3.119913197902     1.851129885507    -1.142575418005     1.007825032230
         H            3.363593197902    -1.802488114493     1.117674581995     1.007825032230
         H            4.485859197902     0.130839885507     0.024457581995     1.007825032230

  Basis Set: AUG-CC-PVTZ
    Blend: AUG-CC-PVTZ
  Basis Set: (AUG-CC-PVTZ AUX)
    Blend: AUG-CC-PVTZ-JKFIT
	 Reference Energy          =    -477.5167081667052003 [Eh]
	 Singles Energy            =      -0.0000000000000000 [Eh]
	 Same-Spin Energy          =      -0.5401592820385944 [Eh]
	 Opposite-Spin Energy      =      -1.6861968122686861 [Eh]
	 Correlation Energy        =      -2.2263560943072807 [Eh]
	 Total Energy              =    -479.7430642610124778 [Eh]

	 ================> DF-SCS-MP2 Energies <==================
	-----------------------------------------------------------
	 SCS Same-Spin Scale       =       0.3333333333333333 [-]
	 SCS Opposite-Spin Scale   =       1.2000000000000000 [-]
	 SCS Same-Spin Energy      =      -0.1800530940128648 [Eh]
	 SCS Opposite-Spin Energy  =      -2.0234361747224234 [Eh]
	 SCS Correlation Energy    =      -2.2034892687352881 [Eh]
	 SCS Total Energy          =    -479.7201974354404683 [Eh]
	-----------------------------------------------------------

  Dipole Moment: [D]
     X:     0.4753      Y:     1.4425      Z:     0.5509     Total:     1.6156

*** Psi4 exiting successfully. Buy a developer a beer!
