                               Psi4 1.3.2 release

  ==> Input File <==

--------------------------------------------------------------------------
#psi4
#
memory 32 gb

molecule  {
0 1
  N       -1.7746093     0.6496011     0.2120432
  C       -0.8584400    -0.3593730    -0.1157050
  C        0.5958890    -0.1944310    -0.0686340
  C       -1.6095070    -1.4830350    -0.4543950
  C       -3.0364380     0.1798280     0.0590890
  C       -2.9750140    -1.1422740    -0.3482900
  C       -1.4212420     1.9838780     0.6691930
  C        1.2419450     0.8845030    -0.6969540
  C        1.3787110    -1.1624060     0.5835710
  C        2.6315710     1.0013490    -0.6546280
  C        2.7689430    -1.0546610     0.6054980
  C        3.3999180     0.0321080    -0.0053240
  H       -1.1930810    -2.4304870    -0.7739750
  H       -3.8823240     0.8199580     0.2740310
  H       -3.8253090    -1.7817070    -0.5476340
  H       -2.2212640     2.3282100     1.3272780
  H       -0.4870200     1.9493020     1.2305480
  H       -1.3139190     2.6883760    -0.1607770
  H        0.6536140     1.6152250    -1.2478990
  H        0.8812590    -1.9928010     1.0799670
  H        3.1173860     1.8412050    -1.1464900
  H        3.3610660    -1.8124130     1.1137600
  H        4.4833320     0.1209150     0.0205430
units angstrom
no_reorient  #important for SAPT in psi4, default
symmetry c1  #important for SAPT in psi4, default
}

set PROPERTIES_ORIGIN ["COM"]
properties('MP2/aug-cc-pvtz', properties = ['dipole'])
--------------------------------------------------------------------------

    Molecular point group: c1
  Charge       = 0
  Multiplicity = 1
  Basis Set: AUG-CC-PVTZ
    Blend: AUG-CC-PVTZ
  Basis Set: (AUG-CC-PVTZ AUX)
    Blend: AUG-CC-PVTZ-JKFIT

    Orbital Energies [Eh]
    ---------------------

    Doubly Occupied:

       1A    -15.607811     2A    -11.270836     3A    -11.255942
       4A    -11.250246     5A    -11.248911     6A    -11.240506
       7A    -11.239356     8A    -11.239034     9A    -11.237757
      10A    -11.236862    11A    -11.208965    12A    -11.206354
      13A     -1.299317    14A     -1.155040    15A     -1.073590
      16A     -1.043923    17A     -1.016002    18A     -0.955978
      19A     -0.933523    20A     -0.832966    21A     -0.830364
      22A     -0.770900    23A     -0.743093    24A     -0.712234
      25A     -0.678165    26A     -0.639855    27A     -0.632193
      28A     -0.622445    29A     -0.596791    30A     -0.587051
      31A     -0.572758    32A     -0.565290    33A     -0.537410
      34A     -0.527595    35A     -0.523897    36A     -0.502109
      37A     -0.494902    38A     -0.491674    39A     -0.354771
      40A     -0.340026    41A     -0.334857    42A     -0.274762

  @DF-RHF Final Energy:  -477.54530166685305

   => Energetics <=

    Nuclear Repulsion Energy =            638.8436372336301474
    One-Electron Energy =               -1913.0057623165364475
    Two-Electron Energy =                 796.6168234160531938
    Total Energy =                       -477.5453016668529926
  Basis Set: (AUG-CC-PVTZ AUX)
    Blend: AUG-CC-PVTZ-RI
    Molecular point group: c1

    Geometry (in Angstrom), charge = 0, multiplicity = 1:

       Center              X                  Y                   Z               Mass
    ------------   -----------------  -----------------  -----------------  -----------------
         N           -1.775350606102     0.670645149681     0.218225607666    14.003074004430
         C           -0.859181306102    -0.338328950319    -0.109522592334    12.000000000000
         C            0.595147693898    -0.173386950319    -0.062451592334    12.000000000000
         C           -1.610248306102    -1.461990950319    -0.448212592334    12.000000000000
         C           -3.037179306102     0.200872049681     0.065271407666    12.000000000000
         C           -2.975755306102    -1.121229950319    -0.342107592334    12.000000000000
         C           -1.421983306102     2.004922049681     0.675375407666    12.000000000000
         C            1.241203693898     0.905547049681    -0.690771592334    12.000000000000
         C            1.377969693898    -1.141361950319     0.589753407666    12.000000000000
         C            2.630829693898     1.022393049681    -0.648445592334    12.000000000000
         C            2.768201693898    -1.033616950319     0.611680407666    12.000000000000
         C            3.399176693898     0.053152049681     0.000858407666    12.000000000000
         H           -1.193822306102    -2.409442950319    -0.767792592334     1.007825032230
         H           -3.883065306102     0.841002049681     0.280213407666     1.007825032230
         H           -3.826050306102    -1.760662950319    -0.541451592334     1.007825032230
         H           -2.222005306102     2.349254049681     1.333460407666     1.007825032230
         H           -0.487761306102     1.970346049681     1.236730407666     1.007825032230
         H           -1.314660306102     2.709420049681    -0.154594592334     1.007825032230
         H            0.652872693898     1.636269049681    -1.241716592334     1.007825032230
         H            0.880517693898    -1.971756950319     1.086149407666     1.007825032230
         H            3.116644693898     1.862249049681    -1.140307592334     1.007825032230
         H            3.360324693898    -1.791368950319     1.119942407666     1.007825032230
         H            4.482590693898     0.141959049681     0.026725407666     1.007825032230

  Basis Set: AUG-CC-PVTZ
    Blend: AUG-CC-PVTZ
  Basis Set: (AUG-CC-PVTZ AUX)
    Blend: AUG-CC-PVTZ-JKFIT
	 Reference Energy          =    -477.5453016668530495 [Eh]
	 Singles Energy            =      -0.0000000000000000 [Eh]
	 Same-Spin Energy          =      -0.5392079948055595 [Eh]
	 Opposite-Spin Energy      =      -1.6832261355597156 [Eh]
	 Correlation Energy        =      -2.2224341303652748 [Eh]
	 Total Energy              =    -479.7677357972183358 [Eh]

	 ================> DF-SCS-MP2 Energies <==================
	-----------------------------------------------------------
	 SCS Same-Spin Scale       =       0.3333333333333333 [-]
	 SCS Opposite-Spin Scale   =       1.2000000000000000 [-]
	 SCS Same-Spin Energy      =      -0.1797359982685198 [Eh]
	 SCS Opposite-Spin Energy  =      -2.0198713626716587 [Eh]
	 SCS Correlation Energy    =      -2.1996073609401785 [Eh]
	 SCS Total Energy          =    -479.7449090277932555 [Eh]
	-----------------------------------------------------------

  Dipole Moment: [D]
     X:     0.4901      Y:     1.8646      Z:     0.6717     Total:     2.0416

*** Psi4 exiting successfully. Buy a developer a beer!
