                               Psi4 1.3.2 release

  ==> Input File <==

--------------------------------------------------------------------------
#psi4
#
memory 32 gb

molecule  {
0 1
  N       -1.7531090     0.6487580     0.1985890
  C       -0.8584400    -0.3593730    -0.1157050
  C        0.5958890    -0.1944310    -0.0686340
  C       -1.6095070    -1.4830350    -0.4543950
  C       -2.9429978     0.2139712     0.0692461
  C       -2.9750140    -1.1422740    -0.3482900
  C       -1.4212420     1.9838780     0.6691930
  C        1.2419450     0.8845030    -0.6969540
  C        1.3787110    -1.1624060     0.5835710
  C        2.6315710     1.0013490    -0.6546280
  C        2.7689430    -1.0546610     0.6054980
  C        3.3999180     0.0321080    -0.0053240
  H       -1.1930810    -2.4304870    -0.7739750
  H       -3.8823240     0.8199580     0.2740310
  H       -3.8253090    -1.7817070    -0.5476340
  H       -2.2212640     2.3282100     1.3272780
  H       -0.4870200     1.9493020     1.2305480
  H       -1.3139190     2.6883760    -0.1607770
  H        0.6536140     1.6152250    -1.2478990
  H        0.8812590    -1.9928010     1.0799670
  H        3.1173860     1.8412050    -1.1464900
  H        3.3610660    -1.8124130     1.1137600
  H        4.4833320     0.1209150     0.0205430
units angstrom
no_reorient  #important for SAPT in psi4, default
symmetry c1  #important for SAPT in psi4, default
}

set PROPERTIES_ORIGIN ["COM"]
properties('MP2/aug-cc-pvtz', properties = ['dipole'])
--------------------------------------------------------------------------

    Molecular point group: c1
  Charge       = 0
  Multiplicity = 1
  Basis Set: AUG-CC-PVTZ
    Blend: AUG-CC-PVTZ
  Basis Set: (AUG-CC-PVTZ AUX)
    Blend: AUG-CC-PVTZ-JKFIT

    Orbital Energies [Eh]
    ---------------------

    Doubly Occupied:

       1A    -15.614831     2A    -11.276554     3A    -11.251994
       4A    -11.248673     5A    -11.247693     6A    -11.239120
       7A    -11.237787     8A    -11.237096     9A    -11.235720
      10A    -11.234483    11A    -11.210243    12A    -11.204127
      13A     -1.331391    14A     -1.153854    15A     -1.076903
      16A     -1.043465    17A     -1.014406    18A     -0.957837
      19A     -0.941896    20A     -0.829742    21A     -0.828256
      22A     -0.778107    23A     -0.739726    24A     -0.717146
      25A     -0.676926    26A     -0.649334    27A     -0.632610
      28A     -0.622720    29A     -0.598469    30A     -0.585995
      31A     -0.583387    32A     -0.563695    33A     -0.539445
      34A     -0.533766    35A     -0.512645    36A     -0.499851
      37A     -0.492635    38A     -0.490990    39A     -0.357094
      40A     -0.338811    41A     -0.335840    42A     -0.268025

  @DF-RHF Final Energy:  -477.53386728524231

   => Energetics <=

    Nuclear Repulsion Energy =            641.0767742718987847
    One-Electron Energy =               -1917.3547080266832836
    Two-Electron Energy =                 798.7440664695421901
    Total Energy =                       -477.5338672852423088
  Basis Set: (AUG-CC-PVTZ AUX)
    Blend: AUG-CC-PVTZ-RI
    Molecular point group: c1

    Geometry (in Angstrom), charge = 0, multiplicity = 1:

       Center              X                  Y                   Z               Mass
    ------------   -----------------  -----------------  -----------------  -----------------
         N           -1.762904736009     0.667269014078     0.205194829388    14.003074004430
         C           -0.868235736009    -0.340861985922    -0.109099170612    12.000000000000
         C            0.586093263991    -0.175919985922    -0.062028170612    12.000000000000
         C           -1.619302736009    -1.464523985922    -0.447789170612    12.000000000000
         C           -2.952793536009     0.232482214078     0.075851929388    12.000000000000
         C           -2.984809736009    -1.123762985922    -0.341684170612    12.000000000000
         C           -1.431037736009     2.002389014078     0.675798829388    12.000000000000
         C            1.232149263991     0.903014014078    -0.690348170612    12.000000000000
         C            1.368915263991    -1.143894985922     0.590176829388    12.000000000000
         C            2.621775263991     1.019860014078    -0.648022170612    12.000000000000
         C            2.759147263991    -1.036149985922     0.612103829388    12.000000000000
         C            3.390122263991     0.050619014078     0.001281829388    12.000000000000
         H           -1.202876736009    -2.411975985922    -0.767369170612     1.007825032230
         H           -3.892119736009     0.838469014078     0.280636829388     1.007825032230
         H           -3.835104736009    -1.763195985922    -0.541028170612     1.007825032230
         H           -2.231059736009     2.346721014078     1.333883829388     1.007825032230
         H           -0.496815736009     1.967813014078     1.237153829388     1.007825032230
         H           -1.323714736009     2.706887014078    -0.154171170612     1.007825032230
         H            0.643818263991     1.633736014078    -1.241293170612     1.007825032230
         H            0.871463263991    -1.974289985922     1.086572829388     1.007825032230
         H            3.107590263991     1.859716014078    -1.139884170612     1.007825032230
         H            3.351270263991    -1.793901985922     1.120365829388     1.007825032230
         H            4.473536263991     0.139426014078     0.027148829388     1.007825032230

  Basis Set: AUG-CC-PVTZ
    Blend: AUG-CC-PVTZ
  Basis Set: (AUG-CC-PVTZ AUX)
    Blend: AUG-CC-PVTZ-JKFIT
	 Reference Energy          =    -477.5338672852423088 [Eh]
	 Singles Energy            =      -0.0000000000000000 [Eh]
	 Same-Spin Energy          =      -0.5397237531636576 [Eh]
	 Opposite-Spin Energy      =      -1.6827769532198871 [Eh]
	 Correlation Energy        =      -2.2225007063835447 [Eh]
	 Total Energy              =    -479.7563679916258366 [Eh]

	 ================> DF-SCS-MP2 Energies <==================
	-----------------------------------------------------------
	 SCS Same-Spin Scale       =       0.3333333333333333 [-]
	 SCS Opposite-Spin Scale   =       1.2000000000000000 [-]
	 SCS Same-Spin Energy      =      -0.1799079177212192 [Eh]
	 SCS Opposite-Spin Energy  =      -2.0193323438638644 [Eh]
	 SCS Correlation Energy    =      -2.1992402615850835 [Eh]
	 SCS Total Energy          =    -479.7331075468273980 [Eh]
	-----------------------------------------------------------

  Dipole Moment: [D]
     X:     0.4412      Y:     2.0033      Z:     0.7241     Total:     2.1753

*** Psi4 exiting successfully. Buy a developer a beer!
