                               Psi4 1.3.2 release

  ==> Input File <==

--------------------------------------------------------------------------
#psi4
#
memory 32 gb

molecule  {
0 1
  N       -1.7894172     0.6182866     0.1892615
  C       -0.8584400    -0.3593730    -0.1157050
  C        0.5958890    -0.1944310    -0.0686340
  C       -1.6095070    -1.4830350    -0.4543950
  C       -3.0364380     0.1798280     0.0590890
  C       -2.9750140    -1.1422740    -0.3482900
  C       -1.4212420     1.9838780     0.6691930
  C        1.2419450     0.8845030    -0.6969540
  C        1.3787110    -1.1624060     0.5835710
  C        2.6315710     1.0013490    -0.6546280
  C        2.7689430    -1.0546610     0.6054980
  C        3.3999180     0.0321080    -0.0053240
  H       -1.1930810    -2.4304870    -0.7739750
  H       -3.8823240     0.8199580     0.2740310
  H       -3.8253090    -1.7817070    -0.5476340
  H       -2.2212640     2.3282100     1.3272780
  H       -0.4870200     1.9493020     1.2305480
  H       -1.3139190     2.6883760    -0.1607770
  H        0.6536140     1.6152250    -1.2478990
  H        0.8812590    -1.9928010     1.0799670
  H        3.1173860     1.8412050    -1.1464900
  H        3.3610660    -1.8124130     1.1137600
  H        4.4833320     0.1209150     0.0205430
units angstrom
no_reorient  #important for SAPT in psi4, default
symmetry c1  #important for SAPT in psi4, default
}

set PROPERTIES_ORIGIN ["COM"]
properties('MP2/aug-cc-pvtz', properties = ['dipole'])
--------------------------------------------------------------------------

    Molecular point group: c1
  Charge       = 0
  Multiplicity = 1
  Basis Set: AUG-CC-PVTZ
    Blend: AUG-CC-PVTZ
  Basis Set: (AUG-CC-PVTZ AUX)
    Blend: AUG-CC-PVTZ-JKFIT

    Orbital Energies [Eh]
    ---------------------

    Doubly Occupied:

       1A    -15.609387     2A    -11.274987     3A    -11.252392
       4A    -11.250761     5A    -11.245546     6A    -11.240523
       7A    -11.239350     8A    -11.239020     9A    -11.237683
      10A    -11.236827    11A    -11.206608    12A    -11.203116
      13A     -1.306538    14A     -1.155173    15A     -1.066684
      16A     -1.045007    17A     -1.015960    18A     -0.959788
      19A     -0.934424    20A     -0.833385    21A     -0.830409
      22A     -0.772480    23A     -0.741325    24A     -0.711271
      25A     -0.679377    26A     -0.639760    27A     -0.633287
      28A     -0.621928    29A     -0.595877    30A     -0.587090
      31A     -0.575266    32A     -0.557697    33A     -0.537631
      34A     -0.529366    35A     -0.527611    36A     -0.503267
      37A     -0.494822    38A     -0.492020    39A     -0.355310
      40A     -0.339952    41A     -0.333517    42A     -0.274292

  @DF-RHF Final Energy:  -477.54326923633329

   => Energetics <=

    Nuclear Repulsion Energy =            639.1968630258230633
    One-Electron Energy =               -1913.7068361144933988
    Two-Electron Energy =                 796.9667038523371048
    Total Energy =                       -477.5432692363333445
  Basis Set: (AUG-CC-PVTZ AUX)
    Blend: AUG-CC-PVTZ-RI
    Molecular point group: c1

    Geometry (in Angstrom), charge = 0, multiplicity = 1:

       Center              X                  Y                   Z               Mass
    ------------   -----------------  -----------------  -----------------  -----------------
         N           -1.788838516017     0.642122053561     0.197474689756    14.003074004430
         C           -0.857861316017    -0.335537546439    -0.107491810244    12.000000000000
         C            0.596467683983    -0.170595546439    -0.060420810244    12.000000000000
         C           -1.608928316017    -1.459199546439    -0.446181810244    12.000000000000
         C           -3.035859316017     0.203663453561     0.067302189756    12.000000000000
         C           -2.974435316017    -1.118438546439    -0.340076810244    12.000000000000
         C           -1.420663316017     2.007713453561     0.677406189756    12.000000000000
         C            1.242523683983     0.908338453561    -0.688740810244    12.000000000000
         C            1.379289683983    -1.138570546439     0.591784189756    12.000000000000
         C            2.632149683983     1.025184453561    -0.646414810244    12.000000000000
         C            2.769521683983    -1.030825546439     0.613711189756    12.000000000000
         C            3.400496683983     0.055943453561     0.002889189756    12.000000000000
         H           -1.192502316017    -2.406651546439    -0.765761810244     1.007825032230
         H           -3.881745316017     0.843793453561     0.282244189756     1.007825032230
         H           -3.824730316017    -1.757871546439    -0.539420810244     1.007825032230
         H           -2.220685316017     2.352045453561     1.335491189756     1.007825032230
         H           -0.486441316017     1.973137453561     1.238761189756     1.007825032230
         H           -1.313340316017     2.712211453561    -0.152563810244     1.007825032230
         H            0.654192683983     1.639060453561    -1.239685810244     1.007825032230
         H            0.881837683983    -1.968965546439     1.088180189756     1.007825032230
         H            3.117964683983     1.865040453561    -1.138276810244     1.007825032230
         H            3.361644683983    -1.788577546439     1.121973189756     1.007825032230
         H            4.483910683983     0.144750453561     0.028756189756     1.007825032230

  Basis Set: AUG-CC-PVTZ
    Blend: AUG-CC-PVTZ
  Basis Set: (AUG-CC-PVTZ AUX)
    Blend: AUG-CC-PVTZ-JKFIT
	 Reference Energy          =    -477.5432692363332876 [Eh]
	 Singles Energy            =      -0.0000000000000000 [Eh]
	 Same-Spin Energy          =      -0.5392745289252319 [Eh]
	 Opposite-Spin Energy      =      -1.6829417056342910 [Eh]
	 Correlation Energy        =      -2.2222162345595229 [Eh]
	 Total Energy              =    -479.7654854708928269 [Eh]

	 ================> DF-SCS-MP2 Energies <==================
	-----------------------------------------------------------
	 SCS Same-Spin Scale       =       0.3333333333333333 [-]
	 SCS Opposite-Spin Scale   =       1.2000000000000000 [-]
	 SCS Same-Spin Energy      =      -0.1797581763084106 [Eh]
	 SCS Opposite-Spin Energy  =      -2.0195300467611492 [Eh]
	 SCS Correlation Energy    =      -2.1992882230695598 [Eh]
	 SCS Total Energy          =    -479.7425574594028603 [Eh]
	-----------------------------------------------------------

  Dipole Moment: [D]
     X:     0.5138      Y:     2.0052      Z:     0.7210     Total:     2.1919

*** Psi4 exiting successfully. Buy a developer a beer!
