                               Psi4 1.3.2 release

  ==> Input File <==

--------------------------------------------------------------------------
#psi4
#
memory 32 gb

molecule  {
0 1
  N       -1.7531090     0.6487580     0.1985890
  C       -0.8584400    -0.3593730    -0.1157050
  C        0.5958890    -0.1944310    -0.0686340
  C       -1.6095070    -1.4830350    -0.4543950
  C       -3.0364380     0.1798280     0.0590890
  C       -2.9750140    -1.1422740    -0.3482900
  C       -1.4212420     1.9838780     0.6691930
  C        1.1534443     0.9176827    -0.7233157
  C        1.3787110    -1.1624060     0.5835710
  C        2.6315710     1.0013490    -0.6546280
  C        2.7689430    -1.0546610     0.6054980
  C        3.3999180     0.0321080    -0.0053240
  H       -1.1930810    -2.4304870    -0.7739750
  H       -3.8823240     0.8199580     0.2740310
  H       -3.8253090    -1.7817070    -0.5476340
  H       -2.2212640     2.3282100     1.3272780
  H       -0.4870200     1.9493020     1.2305480
  H       -1.3139190     2.6883760    -0.1607770
  H        0.6536140     1.6152250    -1.2478990
  H        0.8812590    -1.9928010     1.0799670
  H        3.1173860     1.8412050    -1.1464900
  H        3.3610660    -1.8124130     1.1137600
  H        4.4833320     0.1209150     0.0205430
units angstrom
no_reorient  #important for SAPT in psi4, default
symmetry c1  #important for SAPT in psi4, default
}

set PROPERTIES_ORIGIN ["COM"]
properties('MP2/aug-cc-pvtz', properties = ['dipole'])
--------------------------------------------------------------------------

    Molecular point group: c1
  Charge       = 0
  Multiplicity = 1
  Basis Set: AUG-CC-PVTZ
    Blend: AUG-CC-PVTZ
  Basis Set: (AUG-CC-PVTZ AUX)
    Blend: AUG-CC-PVTZ-JKFIT

    Orbital Energies [Eh]
    ---------------------

    Doubly Occupied:

       1A    -15.606934     2A    -11.270387     3A    -11.254498
       4A    -11.252295     5A    -11.249906     6A    -11.247545
       7A    -11.242229     8A    -11.241836     9A    -11.238635
      10A    -11.237948    11A    -11.207537    12A    -11.205505
      13A     -1.298340    14A     -1.149094    15A     -1.072500
      16A     -1.045805    17A     -1.009418    18A     -0.955097
      19A     -0.932890    20A     -0.840321    21A     -0.828122
      22A     -0.770303    23A     -0.741422    24A     -0.712153
      25A     -0.683613    26A     -0.641920    27A     -0.636622
      28A     -0.620368    29A     -0.599219    30A     -0.585503
      31A     -0.569473    32A     -0.568157    33A     -0.537149
      34A     -0.527298    35A     -0.523593    36A     -0.505582
      37A     -0.494823    38A     -0.483630    39A     -0.356531
      40A     -0.335730    41A     -0.331038    42A     -0.274989

  @DF-RHF Final Energy:  -477.53210019083508

   => Energetics <=

    Nuclear Repulsion Energy =            638.4684135967384009
    One-Electron Energy =               -1912.2291063073726036
    Two-Electron Energy =                 796.2285925197991219
    Total Energy =                       -477.5321001908350809
  Basis Set: (AUG-CC-PVTZ AUX)
    Blend: AUG-CC-PVTZ-RI
    Molecular point group: c1

    Geometry (in Angstrom), charge = 0, multiplicity = 1:

       Center              X                  Y                   Z               Mass
    ------------   -----------------  -----------------  -----------------  -----------------
         N           -1.749006317124     0.667342615597     0.207984491194    14.003074004430
         C           -0.854337317124    -0.340788384403    -0.106309508806    12.000000000000
         C            0.599991682876    -0.175846384403    -0.059238508806    12.000000000000
         C           -1.605404317124    -1.464450384403    -0.444999508806    12.000000000000
         C           -3.032335317124     0.198412615597     0.068484491194    12.000000000000
         C           -2.970911317124    -1.123689384403    -0.338894508806    12.000000000000
         C           -1.417139317124     2.002462615597     0.678588491194    12.000000000000
         C            1.157546982876     0.936267315597    -0.713920208806    12.000000000000
         C            1.382813682876    -1.143821384403     0.592966491194    12.000000000000
         C            2.635673682876     1.019933615597    -0.645232508806    12.000000000000
         C            2.773045682876    -1.036076384403     0.614893491194    12.000000000000
         C            3.404020682876     0.050692615597     0.004071491194    12.000000000000
         H           -1.188978317124    -2.411902384403    -0.764579508806     1.007825032230
         H           -3.878221317124     0.838542615597     0.283426491194     1.007825032230
         H           -3.821206317124    -1.763122384403    -0.538238508806     1.007825032230
         H           -2.217161317124     2.346794615597     1.336673491194     1.007825032230
         H           -0.482917317124     1.967886615597     1.239943491194     1.007825032230
         H           -1.309816317124     2.706960615597    -0.151381508806     1.007825032230
         H            0.657716682876     1.633809615597    -1.238503508806     1.007825032230
         H            0.885361682876    -1.974216384403     1.089362491194     1.007825032230
         H            3.121488682876     1.859789615597    -1.137094508806     1.007825032230
         H            3.365168682876    -1.793828384403     1.123155491194     1.007825032230
         H            4.487434682876     0.139499615597     0.029938491194     1.007825032230

  Basis Set: AUG-CC-PVTZ
    Blend: AUG-CC-PVTZ
  Basis Set: (AUG-CC-PVTZ AUX)
    Blend: AUG-CC-PVTZ-JKFIT
	 Reference Energy          =    -477.5321001908350809 [Eh]
	 Singles Energy            =      -0.0000000000000000 [Eh]
	 Same-Spin Energy          =      -0.5393188798010391 [Eh]
	 Opposite-Spin Energy      =      -1.6844093979934192 [Eh]
	 Correlation Energy        =      -2.2237282777944580 [Eh]
	 Total Energy              =    -479.7558284686295451 [Eh]

	 ================> DF-SCS-MP2 Energies <==================
	-----------------------------------------------------------
	 SCS Same-Spin Scale       =       0.3333333333333333 [-]
	 SCS Opposite-Spin Scale   =       1.2000000000000000 [-]
	 SCS Same-Spin Energy      =      -0.1797729599336797 [Eh]
	 SCS Opposite-Spin Energy  =      -2.0212912775921028 [Eh]
	 SCS Correlation Energy    =      -2.2010642375257827 [Eh]
	 SCS Total Energy          =    -479.7331644283608512 [Eh]
	-----------------------------------------------------------

  Dipole Moment: [D]
     X:     0.5356      Y:     1.8525      Z:     0.6771     Total:     2.0438

*** Psi4 exiting successfully. Buy a developer a beer!
