                               Psi4 1.4a3.dev225

  ==> Input File <==

--------------------------------------------------------------------------
#psi4
#
memory 32 gb

molecule  {
0 1
  N       -1.7531090     0.6487580     0.1985890
  C       -0.8584400    -0.3593730    -0.1157050
  C        0.5958890    -0.1944310    -0.0686340
  C       -1.6095070    -1.4830350    -0.4543950
  C       -3.0551260     0.1729994     0.0570576
  C       -2.9750140    -1.1422740    -0.3482900
  C       -1.4212420     1.9838780     0.6691930
  C        1.2419450     0.8845030    -0.6969540
  C        1.3787110    -1.1624060     0.5835710
  C        2.6315710     1.0013490    -0.6546280
  C        2.7689430    -1.0546610     0.6054980
  C        3.3999180     0.0321080    -0.0053240
  H       -1.1930810    -2.4304870    -0.7739750
  H       -3.8823240     0.8199580     0.2740310
  H       -3.8253090    -1.7817070    -0.5476340
  H       -2.2212640     2.3282100     1.3272780
  H       -0.4870200     1.9493020     1.2305480
  H       -1.3139190     2.6883760    -0.1607770
  H        0.6536140     1.6152250    -1.2478990
  H        0.8812590    -1.9928010     1.0799670
  H        3.1173860     1.8412050    -1.1464900
  H        3.3610660    -1.8124130     1.1137600
  H        4.4833320     0.1209150     0.0205430
units angstrom
no_reorient  #important for SAPT in psi4, default
symmetry c1  #important for SAPT in psi4, default
}

set PROPERTIES_ORIGIN ["COM"]
properties('MP2/aug-cc-pvtz', properties = ['dipole'])
--------------------------------------------------------------------------

    Molecular point group: c1
  Charge       = 0
  Multiplicity = 1
  Basis Set: AUG-CC-PVTZ
    Blend: AUG-CC-PVTZ
  Basis Set: (AUG-CC-PVTZ AUX)
    Blend: AUG-CC-PVTZ-JKFIT

    Orbital Energies [Eh]
    ---------------------

    Doubly Occupied:

       1A    -15.606061     2A    -11.269581     3A    -11.258048
       4A    -11.250491     5A    -11.248120     6A    -11.241031
       7A    -11.239934     8A    -11.239587     9A    -11.238353
      10A    -11.237501    11A    -11.209109    12A    -11.206584
      13A     -1.293474    14A     -1.155280    15A     -1.072813
      16A     -1.044097    17A     -1.016499    18A     -0.956571
      19A     -0.931042    20A     -0.834237    21A     -0.830802
      22A     -0.769818    23A     -0.743684    24A     -0.711353
      25A     -0.678049    26A     -0.639066    27A     -0.631852
      28A     -0.622153    29A     -0.596495    30A     -0.587397
      31A     -0.570600    32A     -0.565713    33A     -0.539847
      34A     -0.526641    35A     -0.522683    36A     -0.502203
      37A     -0.495244    38A     -0.491738    39A     -0.353833
      40A     -0.340528    41A     -0.335157    42A     -0.276250

  @DF-RHF Final Energy:  -477.54534141359727

   => Energetics <=

    Nuclear Repulsion Energy =            638.6585106003215060
    One-Electron Energy =               -1912.6486729518192078
    Two-Electron Energy =                 796.4448209379004311
    Total Energy =                       -477.5453414135972707
  Basis Set: (AUG-CC-PVTZ AUX)
    Blend: AUG-CC-PVTZ-RI
    Molecular point group: c1

    Geometry (in Angstrom), charge = 0, multiplicity = 1:

       Center              X                  Y                   Z               Mass
    ------------   -----------------  -----------------  -----------------  -----------------
         N           -1.754339291447     0.670398839416     0.206125905791    14.003074004430
         C           -0.859670291447    -0.337732160584    -0.108168094209    12.000000000000
         C            0.594658708553    -0.172790160584    -0.061097094209    12.000000000000
         C           -1.610737291447    -1.461394160584    -0.446858094209    12.000000000000
         C           -3.056356291447     0.194640239416     0.064594505791    12.000000000000
         C           -2.976244291447    -1.120633160584    -0.340753094209    12.000000000000
         C           -1.422472291447     2.005518839416     0.676729905791    12.000000000000
         C            1.240714708553     0.906143839416    -0.689417094209    12.000000000000
         C            1.377480708553    -1.140765160584     0.591107905791    12.000000000000
         C            2.630340708553     1.022989839416    -0.647091094209    12.000000000000
         C            2.767712708553    -1.033020160584     0.613034905791    12.000000000000
         C            3.398687708553     0.053748839416     0.002212905791    12.000000000000
         H           -1.194311291447    -2.408846160584    -0.766438094209     1.007825032230
         H           -3.883554291447     0.841598839416     0.281567905791     1.007825032230
         H           -3.826539291447    -1.760066160584    -0.540097094209     1.007825032230
         H           -2.222494291447     2.349850839416     1.334814905791     1.007825032230
         H           -0.488250291447     1.970942839416     1.238084905791     1.007825032230
         H           -1.315149291447     2.710016839416    -0.153240094209     1.007825032230
         H            0.652383708553     1.636865839416    -1.240362094209     1.007825032230
         H            0.880028708553    -1.971160160584     1.087503905791     1.007825032230
         H            3.116155708553     1.862845839416    -1.138953094209     1.007825032230
         H            3.359835708553    -1.790772160584     1.121296905791     1.007825032230
         H            4.482101708553     0.142555839416     0.028079905791     1.007825032230

  Basis Set: AUG-CC-PVTZ
    Blend: AUG-CC-PVTZ
  Basis Set: (AUG-CC-PVTZ AUX)
    Blend: AUG-CC-PVTZ-JKFIT
	 Reference Energy          =    -477.5453414135972707 [Eh]
	 Singles Energy            =      -0.0000000000000000 [Eh]
	 Same-Spin Energy          =      -0.5390669052933439 [Eh]
	 Opposite-Spin Energy      =      -1.6833597851343600 [Eh]
	 Correlation Energy        =      -2.2224266904277039 [Eh]
	 Total Energy              =    -479.7677681040249809 [Eh]

	 ================> DF-SCS-MP2 Energies <==================
	-----------------------------------------------------------
	 SCS Same-Spin Scale       =       0.3333333333333333 [-]
	 SCS Opposite-Spin Scale   =       1.2000000000000000 [-]
	 SCS Same-Spin Energy      =      -0.1796889684311146 [Eh]
	 SCS Opposite-Spin Energy  =      -2.0200317421612319 [Eh]
	 SCS Correlation Energy    =      -2.1997207105923464 [Eh]
	 SCS Total Energy          =    -479.7450621241896442 [Eh]
	-----------------------------------------------------------

  Dipole Moment: [D]
     X:     0.4729      Y:     1.8329      Z:     0.6683     Total:     2.0074

*** Psi4 exiting successfully. Buy a developer a beer!
