                               Psi4 1.3.2 release

  ==> Input File <==

--------------------------------------------------------------------------
#psi4
#
memory 32 gb

molecule  {
0 1
  N       -1.7531090     0.6487580     0.1985890
  C       -0.8584400    -0.3593730    -0.1157050
  C        0.6397189    -0.2112361    -0.0543401
  C       -1.6095070    -1.4830350    -0.4543950
  C       -3.0364380     0.1798280     0.0590890
  C       -2.9750140    -1.1422740    -0.3482900
  C       -1.4212420     1.9838780     0.6691930
  C        1.2419450     0.8845030    -0.6969540
  C        1.3787110    -1.1624060     0.5835710
  C        2.6315710     1.0013490    -0.6546280
  C        2.7689430    -1.0546610     0.6054980
  C        3.3999180     0.0321080    -0.0053240
  H       -1.1930810    -2.4304870    -0.7739750
  H       -3.8823240     0.8199580     0.2740310
  H       -3.8253090    -1.7817070    -0.5476340
  H       -2.2212640     2.3282100     1.3272780
  H       -0.4870200     1.9493020     1.2305480
  H       -1.3139190     2.6883760    -0.1607770
  H        0.6536140     1.6152250    -1.2478990
  H        0.8812590    -1.9928010     1.0799670
  H        3.1173860     1.8412050    -1.1464900
  H        3.3610660    -1.8124130     1.1137600
  H        4.4833320     0.1209150     0.0205430
units angstrom
no_reorient  #important for SAPT in psi4, default
symmetry c1  #important for SAPT in psi4, default
}

set PROPERTIES_ORIGIN ["COM"]
properties('MP2/aug-cc-pvtz', properties = ['dipole'])
--------------------------------------------------------------------------

    Molecular point group: c1
  Charge       = 0
  Multiplicity = 1
  Basis Set: AUG-CC-PVTZ
    Blend: AUG-CC-PVTZ
  Basis Set: (AUG-CC-PVTZ AUX)
    Blend: AUG-CC-PVTZ-JKFIT

    Orbital Energies [Eh]
    ---------------------

    Doubly Occupied:

       1A    -15.607082     2A    -11.270421     3A    -11.257758
       4A    -11.249072     5A    -11.247209     6A    -11.241067
       7A    -11.239967     8A    -11.239620     9A    -11.237879
      10A    -11.232929    11A    -11.207210    12A    -11.205265
      13A     -1.297365    14A     -1.159646    15A     -1.072108
      16A     -1.041170    17A     -1.018870    18A     -0.955853
      19A     -0.932622    20A     -0.834482    21A     -0.828983
      22A     -0.769392    23A     -0.742141    24A     -0.711822
      25A     -0.676619    26A     -0.639778    27A     -0.631377
      28A     -0.624387    29A     -0.597974    30A     -0.588714
      31A     -0.568894    32A     -0.566673    33A     -0.537005
      34A     -0.526159    35A     -0.522820    36A     -0.504346
      37A     -0.497746    38A     -0.487887    39A     -0.354567
      40A     -0.341134    41A     -0.334379    42A     -0.276764

  @DF-RHF Final Energy:  -477.54445370209896

   => Energetics <=

    Nuclear Repulsion Energy =            638.9941217554263631
    One-Electron Energy =               -1913.3228358413944079
    Two-Electron Energy =                 796.7842603838689683
    Total Energy =                       -477.5444537020989628
  Basis Set: (AUG-CC-PVTZ AUX)
    Blend: AUG-CC-PVTZ-RI
    Molecular point group: c1

    Geometry (in Angstrom), charge = 0, multiplicity = 1:

       Center              X                  Y                   Z               Mass
    ------------   -----------------  -----------------  -----------------  -----------------
         N           -1.759115017862     0.671160941703     0.204878820293    14.003074004430
         C           -0.864446017862    -0.336970058297    -0.109415179707    12.000000000000
         C            0.633712882138    -0.188833158297    -0.048050279707    12.000000000000
         C           -1.615513017862    -1.460632058297    -0.448105179707    12.000000000000
         C           -3.042444017862     0.202230941703     0.065378820293    12.000000000000
         C           -2.981020017862    -1.119871058297    -0.342000179707    12.000000000000
         C           -1.427248017862     2.006280941703     0.675482820293    12.000000000000
         C            1.235938982138     0.906905941703    -0.690664179707    12.000000000000
         C            1.372704982138    -1.140003058297     0.589860820293    12.000000000000
         C            2.625564982138     1.023751941703    -0.648338179707    12.000000000000
         C            2.762936982138    -1.032258058297     0.611787820293    12.000000000000
         C            3.393911982138     0.054510941703     0.000965820293    12.000000000000
         H           -1.199087017862    -2.408084058297    -0.767685179707     1.007825032230
         H           -3.888330017862     0.842360941703     0.280320820293     1.007825032230
         H           -3.831315017862    -1.759304058297    -0.541344179707     1.007825032230
         H           -2.227270017862     2.350612941703     1.333567820293     1.007825032230
         H           -0.493026017862     1.971704941703     1.236837820293     1.007825032230
         H           -1.319925017862     2.710778941703    -0.154487179707     1.007825032230
         H            0.647607982138     1.637627941703    -1.241609179707     1.007825032230
         H            0.875252982138    -1.970398058297     1.086256820293     1.007825032230
         H            3.111379982138     1.863607941703    -1.140200179707     1.007825032230
         H            3.355059982138    -1.790010058297     1.120049820293     1.007825032230
         H            4.477325982138     0.143317941703     0.026832820293     1.007825032230

  Basis Set: AUG-CC-PVTZ
    Blend: AUG-CC-PVTZ
  Basis Set: (AUG-CC-PVTZ AUX)
    Blend: AUG-CC-PVTZ-JKFIT
	 Reference Energy          =    -477.5444537020989628 [Eh]
	 Singles Energy            =      -0.0000000000000000 [Eh]
	 Same-Spin Energy          =      -0.5385652981732831 [Eh]
	 Opposite-Spin Energy      =      -1.6824202273226436 [Eh]
	 Correlation Energy        =      -2.2209855254959265 [Eh]
	 Total Energy              =    -479.7654392275948680 [Eh]

	 ================> DF-SCS-MP2 Energies <==================
	-----------------------------------------------------------
	 SCS Same-Spin Scale       =       0.3333333333333333 [-]
	 SCS Opposite-Spin Scale   =       1.2000000000000000 [-]
	 SCS Same-Spin Energy      =      -0.1795217660577610 [Eh]
	 SCS Opposite-Spin Energy  =      -2.0189042727871724 [Eh]
	 SCS Correlation Energy    =      -2.1984260388449335 [Eh]
	 SCS Total Energy          =    -479.7428797409439198 [Eh]
	-----------------------------------------------------------

  Dipole Moment: [D]
     X:     0.5887      Y:     1.8707      Z:     0.6872     Total:     2.0781

*** Psi4 exiting successfully. Buy a developer a beer!
