                               Psi4 1.3.2 release

  ==> Input File <==

--------------------------------------------------------------------------
#psi4
#
memory 32 gb

molecule  {
0 1
  N       -1.7531090     0.6487580     0.1985890
  C       -0.8584400    -0.3593730    -0.1157050
  C        0.5958890    -0.1944310    -0.0686340
  C       -1.6095070    -1.4830350    -0.4543950
  C       -3.0364380     0.1798280     0.0590890
  C       -2.9750140    -1.1422740    -0.3482900
  C       -1.4212420     1.9838780     0.6691930
  C        1.2850414     0.8659309    -0.6826166
  C        1.3787110    -1.1624060     0.5835710
  C        2.6315710     1.0013490    -0.6546280
  C        2.7689430    -1.0546610     0.6054980
  C        3.3999180     0.0321080    -0.0053240
  H       -1.1930810    -2.4304870    -0.7739750
  H       -3.8823240     0.8199580     0.2740310
  H       -3.8253090    -1.7817070    -0.5476340
  H       -2.2212640     2.3282100     1.3272780
  H       -0.4870200     1.9493020     1.2305480
  H       -1.3139190     2.6883760    -0.1607770
  H        0.6536140     1.6152250    -1.2478990
  H        0.8812590    -1.9928010     1.0799670
  H        3.1173860     1.8412050    -1.1464900
  H        3.3610660    -1.8124130     1.1137600
  H        4.4833320     0.1209150     0.0205430
units angstrom
no_reorient  #important for SAPT in psi4, default
symmetry c1  #important for SAPT in psi4, default
}

set PROPERTIES_ORIGIN ["COM"]
properties('MP2/aug-cc-pvtz', properties = ['dipole'])
--------------------------------------------------------------------------

    Molecular point group: c1
  Charge       = 0
  Multiplicity = 1
  Basis Set: AUG-CC-PVTZ
    Blend: AUG-CC-PVTZ
  Basis Set: (AUG-CC-PVTZ AUX)
    Blend: AUG-CC-PVTZ-JKFIT

    Orbital Energies [Eh]
    ---------------------

    Doubly Occupied:

       1A    -15.607913     2A    -11.270730     3A    -11.257543
       4A    -11.249633     5A    -11.249034     6A    -11.238931
       7A    -11.238783     8A    -11.237795     9A    -11.236687
      10A    -11.234799    11A    -11.208830    12A    -11.207640
      13A     -1.299150    14A     -1.159059    15A     -1.073834
      16A     -1.043897    17A     -1.019701    18A     -0.956397
      19A     -0.933562    20A     -0.835912    21A     -0.826693
      22A     -0.771049    23A     -0.744355    24A     -0.712566
      25A     -0.676565    26A     -0.640748    27A     -0.629720
      28A     -0.624666    29A     -0.596642    30A     -0.584202
      31A     -0.569922    32A     -0.567829    33A     -0.538626
      34A     -0.527320    35A     -0.523882    36A     -0.505691
      37A     -0.499075    38A     -0.483120    39A     -0.353097
      40A     -0.344481    41A     -0.335812    42A     -0.275186

  @DF-RHF Final Energy:  -477.54317764385792

   => Energetics <=

    Nuclear Repulsion Energy =            639.4034915803969170
    One-Electron Energy =               -1914.1111859684094725
    Two-Electron Energy =                 797.1645167441545254
    Total Energy =                       -477.5431776438579163
  Basis Set: (AUG-CC-PVTZ AUX)
    Blend: AUG-CC-PVTZ-RI
    Molecular point group: c1

    Geometry (in Angstrom), charge = 0, multiplicity = 1:

       Center              X                  Y                   Z               Mass
    ------------   -----------------  -----------------  -----------------  -----------------
         N           -1.759058985984     0.671295922381     0.204875497339    14.003074004430
         C           -0.864389985984    -0.336835077619    -0.109418502661    12.000000000000
         C            0.589939014016    -0.171893077619    -0.062347502661    12.000000000000
         C           -1.615456985984    -1.460497077619    -0.448108502661    12.000000000000
         C           -3.042387985984     0.202365922381     0.065375497339    12.000000000000
         C           -2.980963985984    -1.119736077619    -0.342003502661    12.000000000000
         C           -1.427191985984     2.006415922381     0.675479497339    12.000000000000
         C            1.279091414016     0.888468822381    -0.676330102661    12.000000000000
         C            1.372761014016    -1.139868077619     0.589857497339    12.000000000000
         C            2.625621014016     1.023886922381    -0.648341502661    12.000000000000
         C            2.762993014016    -1.032123077619     0.611784497339    12.000000000000
         C            3.393968014016     0.054645922381     0.000962497339    12.000000000000
         H           -1.199030985984    -2.407949077619    -0.767688502661     1.007825032230
         H           -3.888273985984     0.842495922381     0.280317497339     1.007825032230
         H           -3.831258985984    -1.759169077619    -0.541347502661     1.007825032230
         H           -2.227213985984     2.350747922381     1.333564497339     1.007825032230
         H           -0.492969985984     1.971839922381     1.236834497339     1.007825032230
         H           -1.319868985984     2.710913922381    -0.154490502661     1.007825032230
         H            0.647664014016     1.637762922381    -1.241612502661     1.007825032230
         H            0.875309014016    -1.970263077619     1.086253497339     1.007825032230
         H            3.111436014016     1.863742922381    -1.140203502661     1.007825032230
         H            3.355116014016    -1.789875077619     1.120046497339     1.007825032230
         H            4.477382014016     0.143452922381     0.026829497339     1.007825032230

  Basis Set: AUG-CC-PVTZ
    Blend: AUG-CC-PVTZ
  Basis Set: (AUG-CC-PVTZ AUX)
    Blend: AUG-CC-PVTZ-JKFIT
	 Reference Energy          =    -477.5431776438579163 [Eh]
	 Singles Energy            =      -0.0000000000000000 [Eh]
	 Same-Spin Energy          =      -0.5392246494100417 [Eh]
	 Opposite-Spin Energy      =      -1.6831729823773594 [Eh]
	 Correlation Energy        =      -2.2223976317874010 [Eh]
	 Total Energy              =    -479.7655752756452898 [Eh]

	 ================> DF-SCS-MP2 Energies <==================
	-----------------------------------------------------------
	 SCS Same-Spin Scale       =       0.3333333333333333 [-]
	 SCS Opposite-Spin Scale   =       1.2000000000000000 [-]
	 SCS Same-Spin Energy      =      -0.1797415498033472 [Eh]
	 SCS Opposite-Spin Energy  =      -2.0198075788528311 [Eh]
	 SCS Correlation Energy    =      -2.1995491286561784 [Eh]
	 SCS Total Energy          =    -479.7427267725141178 [Eh]
	-----------------------------------------------------------

  Dipole Moment: [D]
     X:     0.4440      Y:     1.8506      Z:     0.6850     Total:     2.0226

*** Psi4 exiting successfully. Buy a developer a beer!
