                               Psi4 1.3.2 release

  ==> Input File <==

--------------------------------------------------------------------------
#psi4
#
memory 32 gb

molecule  {
0 1
  N       -1.7447688     0.6273983     0.1916045
  C       -0.8584400    -0.3593730    -0.1157050
  C        0.5958890    -0.1944310    -0.0686340
  C       -1.6095070    -1.4830350    -0.4543950
  C       -3.0364380     0.1798280     0.0590890
  C       -2.9750140    -1.1422740    -0.3482900
  C       -1.4212420     1.9838780     0.6691930
  C        1.2419450     0.8845030    -0.6969540
  C        1.3787110    -1.1624060     0.5835710
  C        2.6315710     1.0013490    -0.6546280
  C        2.7689430    -1.0546610     0.6054980
  C        3.3999180     0.0321080    -0.0053240
  H       -1.1930810    -2.4304870    -0.7739750
  H       -3.8823240     0.8199580     0.2740310
  H       -3.8253090    -1.7817070    -0.5476340
  H       -2.2212640     2.3282100     1.3272780
  H       -0.4870200     1.9493020     1.2305480
  H       -1.3139190     2.6883760    -0.1607770
  H        0.6536140     1.6152250    -1.2478990
  H        0.8812590    -1.9928010     1.0799670
  H        3.1173860     1.8412050    -1.1464900
  H        3.3610660    -1.8124130     1.1137600
  H        4.4833320     0.1209150     0.0205430
units angstrom
no_reorient  #important for SAPT in psi4, default
symmetry c1  #important for SAPT in psi4, default
}

set PROPERTIES_ORIGIN ["COM"]
properties('MP2/aug-cc-pvtz', properties = ['dipole'])
--------------------------------------------------------------------------

    Molecular point group: c1
  Charge       = 0
  Multiplicity = 1
  Basis Set: AUG-CC-PVTZ
    Blend: AUG-CC-PVTZ
  Basis Set: (AUG-CC-PVTZ AUX)
    Blend: AUG-CC-PVTZ-JKFIT

    Orbital Energies [Eh]
    ---------------------

    Doubly Occupied:

       1A    -15.608272     2A    -11.272758     3A    -11.254857
       4A    -11.250386     5A    -11.246474     6A    -11.240954
       7A    -11.239801     8A    -11.239480     9A    -11.238168
      10A    -11.237246    11A    -11.207712    12A    -11.204611
      13A     -1.302294    14A     -1.155213    15A     -1.069541
      16A     -1.044554    17A     -1.016359    18A     -0.958382
      19A     -0.933328    20A     -0.833786    21A     -0.830830
      22A     -0.771493    23A     -0.742173    24A     -0.711890
      25A     -0.678352    26A     -0.640053    27A     -0.632537
      28A     -0.622076    29A     -0.596266    30A     -0.587362
      31A     -0.572313    32A     -0.562940    33A     -0.538832
      34A     -0.527921    35A     -0.525316    36A     -0.502917
      37A     -0.494760    38A     -0.492270    39A     -0.353565
      40A     -0.340438    41A     -0.334996    42A     -0.275252

  @DF-RHF Final Energy:  -477.54560978757382

   => Energetics <=

    Nuclear Repulsion Energy =            639.3730246378570428
    One-Electron Energy =               -1914.0598112360612504
    Two-Electron Energy =                 797.1411768106304407
    Total Energy =                       -477.5456097875737669
  Basis Set: (AUG-CC-PVTZ AUX)
    Blend: AUG-CC-PVTZ-RI
    Molecular point group: c1

    Geometry (in Angstrom), charge = 0, multiplicity = 1:

       Center              X                  Y                   Z               Mass
    ------------   -----------------  -----------------  -----------------  -----------------
         N           -1.748170116239     0.650421528083     0.199608832540    14.003074004430
         C           -0.861841316239    -0.336349771917    -0.107700667460    12.000000000000
         C            0.592487683761    -0.171407771917    -0.060629667460    12.000000000000
         C           -1.612908316239    -1.460011771917    -0.446390667460    12.000000000000
         C           -3.039839316239     0.202851228083     0.067093332540    12.000000000000
         C           -2.978415316239    -1.119250771917    -0.340285667460    12.000000000000
         C           -1.424643316239     2.006901228083     0.677197332540    12.000000000000
         C            1.238543683761     0.907526228083    -0.688949667460    12.000000000000
         C            1.375309683761    -1.139382771917     0.591575332540    12.000000000000
         C            2.628169683761     1.024372228083    -0.646623667460    12.000000000000
         C            2.765541683761    -1.031637771917     0.613502332540    12.000000000000
         C            3.396516683761     0.055131228083     0.002680332540    12.000000000000
         H           -1.196482316239    -2.407463771917    -0.765970667460     1.007825032230
         H           -3.885725316239     0.842981228083     0.282035332540     1.007825032230
         H           -3.828710316239    -1.758683771917    -0.539629667460     1.007825032230
         H           -2.224665316239     2.351233228083     1.335282332540     1.007825032230
         H           -0.490421316239     1.972325228083     1.238552332540     1.007825032230
         H           -1.317320316239     2.711399228083    -0.152772667460     1.007825032230
         H            0.650212683761     1.638248228083    -1.239894667460     1.007825032230
         H            0.877857683761    -1.969777771917     1.087971332540     1.007825032230
         H            3.113984683761     1.864228228083    -1.138485667460     1.007825032230
         H            3.357664683761    -1.789389771917     1.121764332540     1.007825032230
         H            4.479930683761     0.143938228083     0.028547332540     1.007825032230

  Basis Set: AUG-CC-PVTZ
    Blend: AUG-CC-PVTZ
  Basis Set: (AUG-CC-PVTZ AUX)
    Blend: AUG-CC-PVTZ-JKFIT
	 Reference Energy          =    -477.5456097875738237 [Eh]
	 Singles Energy            =      -0.0000000000000000 [Eh]
	 Same-Spin Energy          =      -0.5391617152247977 [Eh]
	 Opposite-Spin Energy      =      -1.6830442042119960 [Eh]
	 Correlation Energy        =      -2.2222059194367936 [Eh]
	 Total Energy              =    -479.7678157070106408 [Eh]

	 ================> DF-SCS-MP2 Energies <==================
	-----------------------------------------------------------
	 SCS Same-Spin Scale       =       0.3333333333333333 [-]
	 SCS Opposite-Spin Scale   =       1.2000000000000000 [-]
	 SCS Same-Spin Energy      =      -0.1797205717415992 [Eh]
	 SCS Opposite-Spin Energy  =      -2.0196530450543952 [Eh]
	 SCS Correlation Energy    =      -2.1993736167959943 [Eh]
	 SCS Total Energy          =    -479.7449834043698047 [Eh]
	-----------------------------------------------------------

  Dipole Moment: [D]
     X:     0.4812      Y:     1.9297      Z:     0.6987     Total:     2.1079

*** Psi4 exiting successfully. Buy a developer a beer!
