                               Psi4 1.4a3.dev225

  ==> Input File <==

--------------------------------------------------------------------------
#psi4
#
memory 32 gb

molecule  {
0 1
  N       -1.7531090     0.6487580     0.1985890
  C       -0.8584400    -0.3593730    -0.1157050
  C        0.5958890    -0.1944310    -0.0686340
  C       -1.6095070    -1.4830350    -0.4543950
  C       -3.0831581     0.1627564     0.0540104
  C       -2.9750140    -1.1422740    -0.3482900
  C       -1.4212420     1.9838780     0.6691930
  C        1.2419450     0.8845030    -0.6969540
  C        1.3787110    -1.1624060     0.5835710
  C        2.6315710     1.0013490    -0.6546280
  C        2.7689430    -1.0546610     0.6054980
  C        3.3999180     0.0321080    -0.0053240
  H       -1.1930810    -2.4304870    -0.7739750
  H       -3.8823240     0.8199580     0.2740310
  H       -3.8253090    -1.7817070    -0.5476340
  H       -2.2212640     2.3282100     1.3272780
  H       -0.4870200     1.9493020     1.2305480
  H       -1.3139190     2.6883760    -0.1607770
  H        0.6536140     1.6152250    -1.2478990
  H        0.8812590    -1.9928010     1.0799670
  H        3.1173860     1.8412050    -1.1464900
  H        3.3610660    -1.8124130     1.1137600
  H        4.4833320     0.1209150     0.0205430
units angstrom
no_reorient  #important for SAPT in psi4, default
symmetry c1  #important for SAPT in psi4, default
}

set PROPERTIES_ORIGIN ["COM"]
properties('MP2/aug-cc-pvtz', properties = ['dipole'])
--------------------------------------------------------------------------

    Molecular point group: c1
  Charge       = 0
  Multiplicity = 1
  Basis Set: AUG-CC-PVTZ
    Blend: AUG-CC-PVTZ
  Basis Set: (AUG-CC-PVTZ AUX)
    Blend: AUG-CC-PVTZ-JKFIT

    Orbital Energies [Eh]
    ---------------------

    Doubly Occupied:

       1A    -15.603685     2A    -11.267991     3A    -11.260328
       4A    -11.250949     5A    -11.247666     6A    -11.241497
       7A    -11.240470     8A    -11.240040     9A    -11.238924
      10A    -11.238132    11A    -11.210430    12A    -11.205882
      13A     -1.285961    14A     -1.155563    15A     -1.072064
      16A     -1.044360    17A     -1.016954    18A     -0.957705
      19A     -0.927600    20A     -0.835590    21A     -0.831096
      22A     -0.768871    23A     -0.744404    24A     -0.710010
      25A     -0.678239    26A     -0.638255    27A     -0.631457
      28A     -0.621400    29A     -0.596279    30A     -0.587698
      31A     -0.572645    32A     -0.561595    33A     -0.543083
      34A     -0.524554    35A     -0.520880    36A     -0.501975
      37A     -0.495736    38A     -0.491539    39A     -0.353918
      40A     -0.340881    41A     -0.334932    42A     -0.277700

  @DF-RHF Final Energy:  -477.54280059255655

   => Energetics <=

    Nuclear Repulsion Energy =            638.0902642372855098
    One-Electron Energy =               -1911.5282521596202514
    Two-Electron Energy =                 795.8951873297781958
    Total Energy =                       -477.5428005925565458
  Basis Set: (AUG-CC-PVTZ AUX)
    Blend: AUG-CC-PVTZ-RI
    Molecular point group: c1

    Geometry (in Angstrom), charge = 0, multiplicity = 1:

       Center              X                  Y                   Z               Mass
    ------------   -----------------  -----------------  -----------------  -----------------
         N           -1.752197926488     0.671181299570     0.206358680620    14.003074004430
         C           -0.857528926488    -0.336949700430    -0.107935319380    12.000000000000
         C            0.596800073512    -0.172007700430    -0.060864319380    12.000000000000
         C           -1.608595926488    -1.460611700430    -0.446625319380    12.000000000000
         C           -3.082247026488     0.185179699570     0.061780080620    12.000000000000
         C           -2.974102926488    -1.119850700430    -0.340520319380    12.000000000000
         C           -1.420330926488     2.006301299570     0.676962680620    12.000000000000
         C            1.242856073512     0.906926299570    -0.689184319380    12.000000000000
         C            1.379622073512    -1.139982700430     0.591340680620    12.000000000000
         C            2.632482073512     1.023772299570    -0.646858319380    12.000000000000
         C            2.769854073512    -1.032237700430     0.613267680620    12.000000000000
         C            3.400829073512     0.054531299570     0.002445680620    12.000000000000
         H           -1.192169926488    -2.408063700430    -0.766205319380     1.007825032230
         H           -3.881412926488     0.842381299570     0.281800680620     1.007825032230
         H           -3.824397926488    -1.759283700430    -0.539864319380     1.007825032230
         H           -2.220352926488     2.350633299570     1.335047680620     1.007825032230
         H           -0.486108926488     1.971725299570     1.238317680620     1.007825032230
         H           -1.313007926488     2.710799299570    -0.153007319380     1.007825032230
         H            0.654525073512     1.637648299570    -1.240129319380     1.007825032230
         H            0.882170073512    -1.970377700430     1.087736680620     1.007825032230
         H            3.118297073512     1.863628299570    -1.138720319380     1.007825032230
         H            3.361977073512    -1.789989700430     1.121529680620     1.007825032230
         H            4.484243073512     0.143338299570     0.028312680620     1.007825032230

  Basis Set: AUG-CC-PVTZ
    Blend: AUG-CC-PVTZ
  Basis Set: (AUG-CC-PVTZ AUX)
    Blend: AUG-CC-PVTZ-JKFIT
	 Reference Energy          =    -477.5428005925565458 [Eh]
	 Singles Energy            =      -0.0000000000000000 [Eh]
	 Same-Spin Energy          =      -0.5389222883007563 [Eh]
	 Opposite-Spin Energy      =      -1.6836066940687049 [Eh]
	 Correlation Energy        =      -2.2225289823694609 [Eh]
	 Total Energy              =    -479.7653295749259996 [Eh]

	 ================> DF-SCS-MP2 Energies <==================
	-----------------------------------------------------------
	 SCS Same-Spin Scale       =       0.3333333333333333 [-]
	 SCS Opposite-Spin Scale   =       1.2000000000000000 [-]
	 SCS Same-Spin Energy      =      -0.1796407627669188 [Eh]
	 SCS Opposite-Spin Energy  =      -2.0203280328824458 [Eh]
	 SCS Correlation Energy    =      -2.1999687956493643 [Eh]
	 SCS Total Energy          =    -479.7427693882058861 [Eh]
	-----------------------------------------------------------

  Dipole Moment: [D]
     X:     0.4760      Y:     1.7953      Z:     0.6559     Total:     1.9697

*** Psi4 exiting successfully. Buy a developer a beer!
