                               Psi4 1.3.2 release

  ==> Input File <==

--------------------------------------------------------------------------
#psi4
#
memory 32 gb

molecule  {
0 1
  N       -1.7531090     0.6487580     0.1985890
  C       -0.8584400    -0.3593730    -0.1157050
  C        0.6043099    -0.2919235    -0.0981646
  C       -1.6095070    -1.4830350    -0.4543950
  C       -3.0364380     0.1798280     0.0590890
  C       -2.9750140    -1.1422740    -0.3482900
  C       -1.4212420     1.9838780     0.6691930
  C        1.2419450     0.8845030    -0.6969540
  C        1.3787110    -1.1624060     0.5835710
  C        2.6315710     1.0013490    -0.6546280
  C        2.7689430    -1.0546610     0.6054980
  C        3.3999180     0.0321080    -0.0053240
  H       -1.1930810    -2.4304870    -0.7739750
  H       -3.8823240     0.8199580     0.2740310
  H       -3.8253090    -1.7817070    -0.5476340
  H       -2.2212640     2.3282100     1.3272780
  H       -0.4870200     1.9493020     1.2305480
  H       -1.3139190     2.6883760    -0.1607770
  H        0.6536140     1.6152250    -1.2478990
  H        0.8812590    -1.9928010     1.0799670
  H        3.1173860     1.8412050    -1.1464900
  H        3.3610660    -1.8124130     1.1137600
  H        4.4833320     0.1209150     0.0205430
units angstrom
no_reorient  #important for SAPT in psi4, default
symmetry c1  #important for SAPT in psi4, default
}

set PROPERTIES_ORIGIN ["COM"]
properties('MP2/aug-cc-pvtz', properties = ['dipole'])
--------------------------------------------------------------------------

    Molecular point group: c1
  Charge       = 0
  Multiplicity = 1
  Basis Set: AUG-CC-PVTZ
    Blend: AUG-CC-PVTZ
  Basis Set: (AUG-CC-PVTZ AUX)
    Blend: AUG-CC-PVTZ-JKFIT

    Orbital Energies [Eh]
    ---------------------

    Doubly Occupied:

       1A    -15.609473     2A    -11.271108     3A    -11.256130
       4A    -11.250364     5A    -11.249065     6A    -11.244743
       7A    -11.240076     8A    -11.239569     9A    -11.237890
      10A    -11.231161    11A    -11.207744    12A    -11.205287
      13A     -1.298998    14A     -1.155610    15A     -1.074105
      16A     -1.044624    17A     -1.015190    18A     -0.956013
      19A     -0.933446    20A     -0.836730    21A     -0.826688
      22A     -0.770723    23A     -0.743071    24A     -0.712249
      25A     -0.678645    26A     -0.640382    27A     -0.632591
      28A     -0.620418    29A     -0.600060    30A     -0.585477
      31A     -0.570864    32A     -0.567232    33A     -0.537841
      34A     -0.527073    35A     -0.523818    36A     -0.507439
      37A     -0.495614    38A     -0.481670    39A     -0.357597
      40A     -0.339005    41A     -0.333783    42A     -0.274971

  @DF-RHF Final Energy:  -477.53860984594348

   => Energetics <=

    Nuclear Repulsion Energy =            638.7867382863995545
    One-Electron Energy =               -1912.8816271372893425
    Two-Electron Energy =                 796.5562790049461910
    Total Energy =                       -477.5386098459434834
  Basis Set: (AUG-CC-PVTZ AUX)
    Blend: AUG-CC-PVTZ-RI
    Molecular point group: c1

    Geometry (in Angstrom), charge = 0, multiplicity = 1:

       Center              X                  Y                   Z               Mass
    ------------   -----------------  -----------------  -----------------  -----------------
         N           -1.756410133395     0.677324631582     0.208226562655    14.003074004430
         C           -0.861741133395    -0.330806368418    -0.106067437345    12.000000000000
         C            0.601008766605    -0.263356868418    -0.088527037345    12.000000000000
         C           -1.612808133395    -1.454468368418    -0.444757437345    12.000000000000
         C           -3.039739133395     0.208394631582     0.068726562655    12.000000000000
         C           -2.978315133395    -1.113707368418    -0.338652437345    12.000000000000
         C           -1.424543133395     2.012444631582     0.678830562655    12.000000000000
         C            1.238643866605     0.913069631582    -0.687316437345    12.000000000000
         C            1.375409866605    -1.133839368418     0.593208562655    12.000000000000
         C            2.628269866605     1.029915631582    -0.644990437345    12.000000000000
         C            2.765641866605    -1.026094368418     0.615135562655    12.000000000000
         C            3.396616866605     0.060674631582     0.004313562655    12.000000000000
         H           -1.196382133395    -2.401920368418    -0.764337437345     1.007825032230
         H           -3.885625133395     0.848524631582     0.283668562655     1.007825032230
         H           -3.828610133395    -1.753140368418    -0.537996437345     1.007825032230
         H           -2.224565133395     2.356776631582     1.336915562655     1.007825032230
         H           -0.490321133395     1.977868631582     1.240185562655     1.007825032230
         H           -1.317220133395     2.716942631582    -0.151139437345     1.007825032230
         H            0.650312866605     1.643791631582    -1.238261437345     1.007825032230
         H            0.877957866605    -1.964234368418     1.089604562655     1.007825032230
         H            3.114084866605     1.869771631582    -1.136852437345     1.007825032230
         H            3.357764866605    -1.783846368418     1.123397562655     1.007825032230
         H            4.480030866605     0.149481631582     0.030180562655     1.007825032230

  Basis Set: AUG-CC-PVTZ
    Blend: AUG-CC-PVTZ
  Basis Set: (AUG-CC-PVTZ AUX)
    Blend: AUG-CC-PVTZ-JKFIT
	 Reference Energy          =    -477.5386098459434834 [Eh]
	 Singles Energy            =      -0.0000000000000000 [Eh]
	 Same-Spin Energy          =      -0.5389842773215610 [Eh]
	 Opposite-Spin Energy      =      -1.6834316502469142 [Eh]
	 Correlation Energy        =      -2.2224159275684752 [Eh]
	 Total Energy              =    -479.7610257735119603 [Eh]

	 ================> DF-SCS-MP2 Energies <==================
	-----------------------------------------------------------
	 SCS Same-Spin Scale       =       0.3333333333333333 [-]
	 SCS Opposite-Spin Scale   =       1.2000000000000000 [-]
	 SCS Same-Spin Energy      =      -0.1796614257738536 [Eh]
	 SCS Opposite-Spin Energy  =      -2.0201179802962970 [Eh]
	 SCS Correlation Energy    =      -2.1997794060701508 [Eh]
	 SCS Total Energy          =    -479.7383892520136328 [Eh]
	-----------------------------------------------------------

  Dipole Moment: [D]
     X:     0.4694      Y:     1.8832      Z:     0.6962     Total:     2.0619

*** Psi4 exiting successfully. Buy a developer a beer!
