                               Psi4 1.4a3.dev225

  ==> Input File <==

--------------------------------------------------------------------------
#psi4
#
memory 32 gb

molecule  {
0 1
  N       -1.7531090     0.6487580     0.1985890
  C       -0.8584400    -0.3593730    -0.1157050
  C        0.5958890    -0.1944310    -0.0686340
  C       -1.5987263    -1.4669061    -0.4495335
  C       -3.0364380     0.1798280     0.0590890
  C       -2.9750140    -1.1422740    -0.3482900
  C       -1.4212420     1.9838780     0.6691930
  C        1.2419450     0.8845030    -0.6969540
  C        1.3787110    -1.1624060     0.5835710
  C        2.6315710     1.0013490    -0.6546280
  C        2.7689430    -1.0546610     0.6054980
  C        3.3999180     0.0321080    -0.0053240
  H       -1.1930810    -2.4304870    -0.7739750
  H       -3.8823240     0.8199580     0.2740310
  H       -3.8253090    -1.7817070    -0.5476340
  H       -2.2212640     2.3282100     1.3272780
  H       -0.4870200     1.9493020     1.2305480
  H       -1.3139190     2.6883760    -0.1607770
  H        0.6536140     1.6152250    -1.2478990
  H        0.8812590    -1.9928010     1.0799670
  H        3.1173860     1.8412050    -1.1464900
  H        3.3610660    -1.8124130     1.1137600
  H        4.4833320     0.1209150     0.0205430
units angstrom
no_reorient  #important for SAPT in psi4, default
symmetry c1  #important for SAPT in psi4, default
}

set PROPERTIES_ORIGIN ["COM"]
properties('MP2/aug-cc-pvtz', properties = ['dipole'])
--------------------------------------------------------------------------

    Molecular point group: c1
  Charge       = 0
  Multiplicity = 1
  Basis Set: AUG-CC-PVTZ
    Blend: AUG-CC-PVTZ
  Basis Set: (AUG-CC-PVTZ AUX)
    Blend: AUG-CC-PVTZ-JKFIT

    Orbital Energies [Eh]
    ---------------------

    Doubly Occupied:

       1A    -15.605829     2A    -11.270135     3A    -11.254262
       4A    -11.250065     5A    -11.249167     6A    -11.240701
       7A    -11.239557     8A    -11.239244     9A    -11.237964
      10A    -11.237062    11A    -11.208166    12A    -11.206300
      13A     -1.299241    14A     -1.155090    15A     -1.074067
      16A     -1.044029    17A     -1.016167    18A     -0.957532
      19A     -0.931917    20A     -0.833322    21A     -0.830658
      22A     -0.771115    23A     -0.742594    24A     -0.711922
      25A     -0.677963    26A     -0.639878    27A     -0.631830
      28A     -0.622376    29A     -0.596433    30A     -0.587131
      31A     -0.569334    32A     -0.568474    33A     -0.538195
      34A     -0.526746    35A     -0.522640    36A     -0.502137
      37A     -0.495241    38A     -0.491789    39A     -0.354563
      40A     -0.340141    41A     -0.334277    42A     -0.277532

  @DF-RHF Final Energy:  -477.54632339710093

   => Energetics <=

    Nuclear Repulsion Energy =            639.4250941118064020
    One-Electron Energy =               -1914.1772705605087594
    Two-Electron Energy =                 797.2058530516014798
    Total Energy =                       -477.5463233971008776
  Basis Set: (AUG-CC-PVTZ AUX)
    Blend: AUG-CC-PVTZ-RI
    Molecular point group: c1

    Geometry (in Angstrom), charge = 0, multiplicity = 1:

       Center              X                  Y                   Z               Mass
    ------------   -----------------  -----------------  -----------------  -----------------
         N           -1.756590397914     0.668645121854     0.205599358920    14.003074004430
         C           -0.861921397914    -0.339485878146    -0.108694641080    12.000000000000
         C            0.592407602086    -0.174543878146    -0.061623641080    12.000000000000
         C           -1.602207697914    -1.447018978146    -0.442523141080    12.000000000000
         C           -3.039919397914     0.199715121854     0.066099358920    12.000000000000
         C           -2.978495397914    -1.122386878146    -0.341279641080    12.000000000000
         C           -1.424723397914     2.003765121854     0.676203358920    12.000000000000
         C            1.238463602086     0.904390121854    -0.689943641080    12.000000000000
         C            1.375229602086    -1.142518878146     0.590581358920    12.000000000000
         C            2.628089602086     1.021236121854    -0.647617641080    12.000000000000
         C            2.765461602086    -1.034773878146     0.612508358920    12.000000000000
         C            3.396436602086     0.051995121854     0.001686358920    12.000000000000
         H           -1.196562397914    -2.410599878146    -0.766964641080     1.007825032230
         H           -3.885805397914     0.839845121854     0.281041358920     1.007825032230
         H           -3.828790397914    -1.761819878146    -0.540623641080     1.007825032230
         H           -2.224745397914     2.348097121854     1.334288358920     1.007825032230
         H           -0.490501397914     1.969189121854     1.237558358920     1.007825032230
         H           -1.317400397914     2.708263121854    -0.153766641080     1.007825032230
         H            0.650132602086     1.635112121854    -1.240888641080     1.007825032230
         H            0.877777602086    -1.972913878146     1.086977358920     1.007825032230
         H            3.113904602086     1.861092121854    -1.139479641080     1.007825032230
         H            3.357584602086    -1.792525878146     1.120770358920     1.007825032230
         H            4.479850602086     0.140802121854     0.027553358920     1.007825032230

  Basis Set: AUG-CC-PVTZ
    Blend: AUG-CC-PVTZ
  Basis Set: (AUG-CC-PVTZ AUX)
    Blend: AUG-CC-PVTZ-JKFIT
	 Reference Energy          =    -477.5463233971009345 [Eh]
	 Singles Energy            =      -0.0000000000000000 [Eh]
	 Same-Spin Energy          =      -0.5388433667688389 [Eh]
	 Opposite-Spin Energy      =      -1.6827693547945266 [Eh]
	 Correlation Energy        =      -2.2216127215633654 [Eh]
	 Total Energy              =    -479.7679361186642950 [Eh]

	 ================> DF-SCS-MP2 Energies <==================
	-----------------------------------------------------------
	 SCS Same-Spin Scale       =       0.3333333333333333 [-]
	 SCS Opposite-Spin Scale   =       1.2000000000000000 [-]
	 SCS Same-Spin Energy      =      -0.1796144555896130 [Eh]
	 SCS Opposite-Spin Energy  =      -2.0193232257534319 [Eh]
	 SCS Correlation Energy    =      -2.1989376813430450 [Eh]
	 SCS Total Energy          =    -479.7452610784440026 [Eh]
	-----------------------------------------------------------

  Dipole Moment: [D]
     X:     0.4821      Y:     1.8449      Z:     0.6737     Total:     2.0223

*** Psi4 exiting successfully. Buy a developer a beer!
