                               Psi4 1.3.2 release

  ==> Input File <==

--------------------------------------------------------------------------
#psi4
#
memory 32 gb

molecule  {
0 1
  N       -1.7531090     0.6487580     0.1985890
  C       -0.8584400    -0.3593730    -0.1157050
  C        0.6009885    -0.2431064    -0.0833796
  C       -1.6095070    -1.4830350    -0.4543950
  C       -3.0364380     0.1798280     0.0590890
  C       -2.9750140    -1.1422740    -0.3482900
  C       -1.4212420     1.9838780     0.6691930
  C        1.2419450     0.8845030    -0.6969540
  C        1.3787110    -1.1624060     0.5835710
  C        2.6315710     1.0013490    -0.6546280
  C        2.7689430    -1.0546610     0.6054980
  C        3.3999180     0.0321080    -0.0053240
  H       -1.1930810    -2.4304870    -0.7739750
  H       -3.8823240     0.8199580     0.2740310
  H       -3.8253090    -1.7817070    -0.5476340
  H       -2.2212640     2.3282100     1.3272780
  H       -0.4870200     1.9493020     1.2305480
  H       -1.3139190     2.6883760    -0.1607770
  H        0.6536140     1.6152250    -1.2478990
  H        0.8812590    -1.9928010     1.0799670
  H        3.1173860     1.8412050    -1.1464900
  H        3.3610660    -1.8124130     1.1137600
  H        4.4833320     0.1209150     0.0205430
units angstrom
no_reorient  #important for SAPT in psi4, default
symmetry c1  #important for SAPT in psi4, default
}

set PROPERTIES_ORIGIN ["COM"]
properties('MP2/aug-cc-pvtz', properties = ['dipole'])
--------------------------------------------------------------------------

    Molecular point group: c1
  Charge       = 0
  Multiplicity = 1
  Basis Set: AUG-CC-PVTZ
    Blend: AUG-CC-PVTZ
  Basis Set: (AUG-CC-PVTZ AUX)
    Blend: AUG-CC-PVTZ-JKFIT

    Orbital Energies [Eh]
    ---------------------

    Doubly Occupied:

       1A    -15.608546     2A    -11.270895     3A    -11.256226
       4A    -11.250227     5A    -11.248836     6A    -11.242361
       7A    -11.240112     8A    -11.239464     9A    -11.237806
      10A    -11.234078    11A    -11.208050    12A    -11.206167
      13A     -1.298931    14A     -1.155303    15A     -1.073713
      16A     -1.043955    17A     -1.015940    18A     -0.955980
      19A     -0.933409    20A     -0.834710    21A     -0.829095
      22A     -0.770633    23A     -0.743215    24A     -0.712294
      25A     -0.678064    26A     -0.640230    27A     -0.632330
      28A     -0.621545    29A     -0.598412    30A     -0.586401
      31A     -0.570300    32A     -0.567854    33A     -0.537965
      34A     -0.527160    35A     -0.523799    36A     -0.504483
      37A     -0.495045    38A     -0.488026    39A     -0.354918
      40A     -0.340111    41A     -0.334807    42A     -0.275050

  @DF-RHF Final Energy:  -477.54428189195517

   => Energetics <=

    Nuclear Repulsion Energy =            638.9278867334027154
    One-Electron Energy =               -1913.1714438944113681
    Two-Electron Energy =                 796.6992752690533734
    Total Energy =                       -477.5442818919551655
  Basis Set: (AUG-CC-PVTZ AUX)
    Blend: AUG-CC-PVTZ-RI
    Molecular point group: c1

    Geometry (in Angstrom), charge = 0, multiplicity = 1:

       Center              X                  Y                   Z               Mass
    ------------   -----------------  -----------------  -----------------  -----------------
         N           -1.756156412497     0.673595505780     0.207097140281    14.003074004430
         C           -0.861487412497    -0.334535494220    -0.107196859719    12.000000000000
         C            0.597941087503    -0.218268894220    -0.074871459719    12.000000000000
         C           -1.612554412497    -1.458197494220    -0.445886859719    12.000000000000
         C           -3.039485412497     0.204665505780     0.067597140281    12.000000000000
         C           -2.978061412497    -1.117436494220    -0.339781859719    12.000000000000
         C           -1.424289412497     2.008715505780     0.677701140281    12.000000000000
         C            1.238897587503     0.909340505780    -0.688445859719    12.000000000000
         C            1.375663587503    -1.137568494220     0.592079140281    12.000000000000
         C            2.628523587503     1.026186505780    -0.646119859719    12.000000000000
         C            2.765895587503    -1.029823494220     0.614006140281    12.000000000000
         C            3.396870587503     0.056945505780     0.003184140281    12.000000000000
         H           -1.196128412497    -2.405649494220    -0.765466859719     1.007825032230
         H           -3.885371412497     0.844795505780     0.282539140281     1.007825032230
         H           -3.828356412497    -1.756869494220    -0.539125859719     1.007825032230
         H           -2.224311412497     2.353047505780     1.335786140281     1.007825032230
         H           -0.490067412497     1.974139505780     1.239056140281     1.007825032230
         H           -1.316966412497     2.713213505780    -0.152268859719     1.007825032230
         H            0.650566587503     1.640062505780    -1.239390859719     1.007825032230
         H            0.878211587503    -1.967963494220     1.088475140281     1.007825032230
         H            3.114338587503     1.866042505780    -1.137981859719     1.007825032230
         H            3.358018587503    -1.787575494220     1.122268140281     1.007825032230
         H            4.480284587503     0.145752505780     0.029051140281     1.007825032230

  Basis Set: AUG-CC-PVTZ
    Blend: AUG-CC-PVTZ
  Basis Set: (AUG-CC-PVTZ AUX)
    Blend: AUG-CC-PVTZ-JKFIT
	 Reference Energy          =    -477.5442818919551655 [Eh]
	 Singles Energy            =      -0.0000000000000000 [Eh]
	 Same-Spin Energy          =      -0.5390716995100364 [Eh]
	 Opposite-Spin Energy      =      -1.6831853993995503 [Eh]
	 Correlation Energy        =      -2.2222570989095867 [Eh]
	 Total Energy              =    -479.7665389908647740 [Eh]

	 ================> DF-SCS-MP2 Energies <==================
	-----------------------------------------------------------
	 SCS Same-Spin Scale       =       0.3333333333333333 [-]
	 SCS Opposite-Spin Scale   =       1.2000000000000000 [-]
	 SCS Same-Spin Energy      =      -0.1796905665033455 [Eh]
	 SCS Opposite-Spin Energy  =      -2.0198224792794601 [Eh]
	 SCS Correlation Energy    =      -2.1995130457828056 [Eh]
	 SCS Total Energy          =    -479.7437949377379596 [Eh]
	-----------------------------------------------------------

  Dipole Moment: [D]
     X:     0.4672      Y:     1.8712      Z:     0.6863     Total:     2.0471

*** Psi4 exiting successfully. Buy a developer a beer!
