                               Psi4 1.3.2 release

  ==> Input File <==

--------------------------------------------------------------------------
#psi4
#
memory 32 gb

molecule  {
0 1
  N       -1.7531090     0.6487580     0.1985890
  C       -0.8584400    -0.3593730    -0.1157050
  C        0.5958890    -0.1944310    -0.0686340
  C       -1.6095070    -1.4830350    -0.4543950
  C       -3.0364380     0.1798280     0.0590890
  C       -2.9617312    -1.0973961    -0.3329126
  C       -1.4212420     1.9838780     0.6691930
  C        1.2419450     0.8845030    -0.6969540
  C        1.3787110    -1.1624060     0.5835710
  C        2.6315710     1.0013490    -0.6546280
  C        2.7689430    -1.0546610     0.6054980
  C        3.3999180     0.0321080    -0.0053240
  H       -1.1930810    -2.4304870    -0.7739750
  H       -3.8823240     0.8199580     0.2740310
  H       -3.8253090    -1.7817070    -0.5476340
  H       -2.2212640     2.3282100     1.3272780
  H       -0.4870200     1.9493020     1.2305480
  H       -1.3139190     2.6883760    -0.1607770
  H        0.6536140     1.6152250    -1.2478990
  H        0.8812590    -1.9928010     1.0799670
  H        3.1173860     1.8412050    -1.1464900
  H        3.3610660    -1.8124130     1.1137600
  H        4.4833320     0.1209150     0.0205430
units angstrom
no_reorient  #important for SAPT in psi4, default
symmetry c1  #important for SAPT in psi4, default
}

set PROPERTIES_ORIGIN ["COM"]
properties('MP2/aug-cc-pvtz', properties = ['dipole'])
--------------------------------------------------------------------------

    Molecular point group: c1
  Charge       = 0
  Multiplicity = 1
  Basis Set: AUG-CC-PVTZ
    Blend: AUG-CC-PVTZ
  Basis Set: (AUG-CC-PVTZ AUX)
    Blend: AUG-CC-PVTZ-JKFIT

    Orbital Energies [Eh]
    ---------------------

    Doubly Occupied:

       1A    -15.603590     2A    -11.269322     3A    -11.257477
       4A    -11.250112     5A    -11.242033     6A    -11.240900
       7A    -11.239799     8A    -11.239465     9A    -11.238234
      10A    -11.237371    11A    -11.206118    12A    -11.205021
      13A     -1.300193    14A     -1.155336    15A     -1.075551
      16A     -1.045841    17A     -1.016399    18A     -0.959482
      19A     -0.930589    20A     -0.834812    21A     -0.830669
      22A     -0.768172    23A     -0.743358    24A     -0.710628
      25A     -0.678273    26A     -0.639958    27A     -0.632215
      28A     -0.621994    29A     -0.594641    30A     -0.587353
      31A     -0.569631    32A     -0.566394    33A     -0.540471
      34A     -0.527414    35A     -0.522157    36A     -0.502500
      37A     -0.493542    38A     -0.491443    39A     -0.354662
      40A     -0.340476    41A     -0.335371    42A     -0.279298

  @DF-RHF Final Energy:  -477.54393765066493

   => Energetics <=

    Nuclear Repulsion Energy =            639.9725504200044952
    One-Electron Energy =               -1915.2764482878694707
    Two-Electron Energy =                 797.7599602172001596
    Total Energy =                       -477.5439376506649296
  Basis Set: (AUG-CC-PVTZ AUX)
    Blend: AUG-CC-PVTZ-RI
    Molecular point group: c1

    Geometry (in Angstrom), charge = 0, multiplicity = 1:

       Center              X                  Y                   Z               Mass
    ------------   -----------------  -----------------  -----------------  -----------------
         N           -1.756781532694     0.666448993086     0.204796052005    14.003074004430
         C           -0.862112532694    -0.341682006914    -0.109497947995    12.000000000000
         C            0.592216467306    -0.176740006914    -0.062426947995    12.000000000000
         C           -1.613179532694    -1.465344006914    -0.448187947995    12.000000000000
         C           -3.040110532694     0.197518993086     0.065296052005    12.000000000000
         C           -2.965403732694    -1.079705106914    -0.326705547995    12.000000000000
         C           -1.424914532694     2.001568993086     0.675400052005    12.000000000000
         C            1.238272467306     0.902193993086    -0.690746947995    12.000000000000
         C            1.375038467306    -1.144715006914     0.589778052005    12.000000000000
         C            2.627898467306     1.019039993086    -0.648420947995    12.000000000000
         C            2.765270467306    -1.036970006914     0.611705052005    12.000000000000
         C            3.396245467306     0.049798993086     0.000883052005    12.000000000000
         H           -1.196753532694    -2.412796006914    -0.767767947995     1.007825032230
         H           -3.885996532694     0.837648993086     0.280238052005     1.007825032230
         H           -3.828981532694    -1.764016006914    -0.541426947995     1.007825032230
         H           -2.224936532694     2.345900993086     1.333485052005     1.007825032230
         H           -0.490692532694     1.966992993086     1.236755052005     1.007825032230
         H           -1.317591532694     2.706066993086    -0.154569947995     1.007825032230
         H            0.649941467306     1.632915993086    -1.241691947995     1.007825032230
         H            0.877586467306    -1.975110006914     1.086174052005     1.007825032230
         H            3.113713467306     1.858895993086    -1.140282947995     1.007825032230
         H            3.357393467306    -1.794722006914     1.119967052005     1.007825032230
         H            4.479659467306     0.138605993086     0.026750052005     1.007825032230

  Basis Set: AUG-CC-PVTZ
    Blend: AUG-CC-PVTZ
  Basis Set: (AUG-CC-PVTZ AUX)
    Blend: AUG-CC-PVTZ-JKFIT
	 Reference Energy          =    -477.5439376506649296 [Eh]
	 Singles Energy            =      -0.0000000000000000 [Eh]
	 Same-Spin Energy          =      -0.5387071828312195 [Eh]
	 Opposite-Spin Energy      =      -1.6823456417908067 [Eh]
	 Correlation Energy        =      -2.2210528246220260 [Eh]
	 Total Energy              =    -479.7649904752869361 [Eh]

	 ================> DF-SCS-MP2 Energies <==================
	-----------------------------------------------------------
	 SCS Same-Spin Scale       =       0.3333333333333333 [-]
	 SCS Opposite-Spin Scale   =       1.2000000000000000 [-]
	 SCS Same-Spin Energy      =      -0.1795690609437398 [Eh]
	 SCS Opposite-Spin Energy  =      -2.0188147701489680 [Eh]
	 SCS Correlation Energy    =      -2.1983838310927077 [Eh]
	 SCS Total Energy          =    -479.7423214817576422 [Eh]
	-----------------------------------------------------------

  Dipole Moment: [D]
     X:     0.4605      Y:     1.8362      Z:     0.6671     Total:     2.0072

*** Psi4 exiting successfully. Buy a developer a beer!
