                               Psi4 1.3.2 release

  ==> Input File <==

--------------------------------------------------------------------------
#psi4
#
memory 32 gb

molecule  {
0 1
  N       -1.7531090     0.6487580     0.1985890
  C       -0.8584400    -0.3593730    -0.1157050
  C        0.5958890    -0.1944310    -0.0686340
  C       -1.6542932    -1.6175841    -0.4958117
  C       -3.0364380     0.1798280     0.0590890
  C       -2.9750140    -1.1422740    -0.3482900
  C       -1.4212420     1.9838780     0.6691930
  C        1.2419450     0.8845030    -0.6969540
  C        1.3787110    -1.1624060     0.5835710
  C        2.6315710     1.0013490    -0.6546280
  C        2.7689430    -1.0546610     0.6054980
  C        3.3999180     0.0321080    -0.0053240
  H       -1.1930810    -2.4304870    -0.7739750
  H       -3.8823240     0.8199580     0.2740310
  H       -3.8253090    -1.7817070    -0.5476340
  H       -2.2212640     2.3282100     1.3272780
  H       -0.4870200     1.9493020     1.2305480
  H       -1.3139190     2.6883760    -0.1607770
  H        0.6536140     1.6152250    -1.2478990
  H        0.8812590    -1.9928010     1.0799670
  H        3.1173860     1.8412050    -1.1464900
  H        3.3610660    -1.8124130     1.1137600
  H        4.4833320     0.1209150     0.0205430
units angstrom
no_reorient  #important for SAPT in psi4, default
symmetry c1  #important for SAPT in psi4, default
}

set PROPERTIES_ORIGIN ["COM"]
properties('MP2/aug-cc-pvtz', properties = ['dipole'])
--------------------------------------------------------------------------

    Molecular point group: c1
  Charge       = 0
  Multiplicity = 1
  Basis Set: AUG-CC-PVTZ
    Blend: AUG-CC-PVTZ
  Basis Set: (AUG-CC-PVTZ AUX)
    Blend: AUG-CC-PVTZ-JKFIT

    Orbital Energies [Eh]
    ---------------------

    Doubly Occupied:

       1A    -15.619127     2A    -11.274739     3A    -11.272345
       4A    -11.250555     5A    -11.245424     6A    -11.241009
       7A    -11.239819     8A    -11.239539     9A    -11.238108
      10A    -11.237191    11A    -11.214829    12A    -11.213633
      13A     -1.297148    14A     -1.155260    15A     -1.065950
      16A     -1.043236    17A     -1.016421    18A     -0.948360
      19A     -0.941587    20A     -0.834431    21A     -0.830696
      22A     -0.780929    23A     -0.742186    24A     -0.712525
      25A     -0.677852    26A     -0.643233    27A     -0.635881
      28A     -0.623437    29A     -0.602595    30A     -0.587901
      31A     -0.578502    32A     -0.567654    33A     -0.551689
      34A     -0.524308    35A     -0.516065    36A     -0.502563
      37A     -0.492489    38A     -0.478681    39A     -0.351405
      40A     -0.341374    41A     -0.338029    42A     -0.262112

  @DF-RHF Final Energy:  -477.51317542049588

   => Energetics <=

    Nuclear Repulsion Energy =            636.0935799346218573
    One-Electron Energy =               -1907.3518767494995245
    Two-Electron Energy =                 793.7451213943818402
    Total Energy =                       -477.5131754204958270
  Basis Set: (AUG-CC-PVTZ AUX)
    Blend: AUG-CC-PVTZ-RI
    Molecular point group: c1

    Geometry (in Angstrom), charge = 0, multiplicity = 1:

       Center              X                  Y                   Z               Mass
    ------------   -----------------  -----------------  -----------------  -----------------
         N           -1.752345656615     0.680155375792     0.209134538799    14.003074004430
         C           -0.857676656615    -0.327975624208    -0.105159461201    12.000000000000
         C            0.596652343385    -0.163033624208    -0.058088461201    12.000000000000
         C           -1.653529856615    -1.586186724208    -0.485266161201    12.000000000000
         C           -3.035674656615     0.211225375792     0.069634538799    12.000000000000
         C           -2.974250656615    -1.110876624208    -0.337744461201    12.000000000000
         C           -1.420478656615     2.015275375792     0.679738538799    12.000000000000
         C            1.242708343385     0.915900375792    -0.686408461201    12.000000000000
         C            1.379474343385    -1.131008624208     0.594116538799    12.000000000000
         C            2.632334343385     1.032746375792    -0.644082461201    12.000000000000
         C            2.769706343385    -1.023263624208     0.616043538799    12.000000000000
         C            3.400681343385     0.063505375792     0.005221538799    12.000000000000
         H           -1.192317656615    -2.399089624208    -0.763429461201     1.007825032230
         H           -3.881560656615     0.851355375792     0.284576538799     1.007825032230
         H           -3.824545656615    -1.750309624208    -0.537088461201     1.007825032230
         H           -2.220500656615     2.359607375792     1.337823538799     1.007825032230
         H           -0.486256656615     1.980699375792     1.241093538799     1.007825032230
         H           -1.313155656615     2.719773375792    -0.150231461201     1.007825032230
         H            0.654377343385     1.646622375792    -1.237353461201     1.007825032230
         H            0.882022343385    -1.961403624208     1.090512538799     1.007825032230
         H            3.118149343385     1.872602375792    -1.135944461201     1.007825032230
         H            3.361829343385    -1.781015624208     1.124305538799     1.007825032230
         H            4.484095343385     0.152312375792     0.031088538799     1.007825032230

  Basis Set: AUG-CC-PVTZ
    Blend: AUG-CC-PVTZ
  Basis Set: (AUG-CC-PVTZ AUX)
    Blend: AUG-CC-PVTZ-JKFIT
	 Reference Energy          =    -477.5131754204958838 [Eh]
	 Singles Energy            =      -0.0000000000000000 [Eh]
	 Same-Spin Energy          =      -0.5413576372897937 [Eh]
	 Opposite-Spin Energy      =      -1.6874795921746446 [Eh]
	 Correlation Energy        =      -2.2288372294644381 [Eh]
	 Total Energy              =    -479.7420126499603157 [Eh]

	 ================> DF-SCS-MP2 Energies <==================
	-----------------------------------------------------------
	 SCS Same-Spin Scale       =       0.3333333333333333 [-]
	 SCS Opposite-Spin Scale   =       1.2000000000000000 [-]
	 SCS Same-Spin Energy      =      -0.1804525457632646 [Eh]
	 SCS Opposite-Spin Energy  =      -2.0249755106095733 [Eh]
	 SCS Correlation Energy    =      -2.2054280563728379 [Eh]
	 SCS Total Energy          =    -479.7186034768687364 [Eh]
	-----------------------------------------------------------

  Dipole Moment: [D]
     X:     0.3643      Y:     1.9805      Z:     0.7057     Total:     2.1338

*** Psi4 exiting successfully. Buy a developer a beer!
