                               Psi4 1.3.2 release

  ==> Input File <==

--------------------------------------------------------------------------
#psi4
#
memory 32 gb

molecule  {
0 1
  N       -1.7531090     0.6487580     0.1985890
  C       -0.8584400    -0.3593730    -0.1157050
  C        0.5958890    -0.1944310    -0.0686340
  C       -1.6095070    -1.4830350    -0.4543950
  C       -3.2233185     0.1115416     0.0387748
  C       -2.9750140    -1.1422740    -0.3482900
  C       -1.4212420     1.9838780     0.6691930
  C        1.2419450     0.8845030    -0.6969540
  C        1.3787110    -1.1624060     0.5835710
  C        2.6315710     1.0013490    -0.6546280
  C        2.7689430    -1.0546610     0.6054980
  C        3.3999180     0.0321080    -0.0053240
  H       -1.1930810    -2.4304870    -0.7739750
  H       -3.8823240     0.8199580     0.2740310
  H       -3.8253090    -1.7817070    -0.5476340
  H       -2.2212640     2.3282100     1.3272780
  H       -0.4870200     1.9493020     1.2305480
  H       -1.3139190     2.6883760    -0.1607770
  H        0.6536140     1.6152250    -1.2478990
  H        0.8812590    -1.9928010     1.0799670
  H        3.1173860     1.8412050    -1.1464900
  H        3.3610660    -1.8124130     1.1137600
  H        4.4833320     0.1209150     0.0205430
units angstrom
no_reorient  #important for SAPT in psi4, default
symmetry c1  #important for SAPT in psi4, default
}

set PROPERTIES_ORIGIN ["COM"]
properties('MP2/aug-cc-pvtz', properties = ['dipole'])
--------------------------------------------------------------------------

    Molecular point group: c1
  Charge       = 0
  Multiplicity = 1
  Basis Set: AUG-CC-PVTZ
    Blend: AUG-CC-PVTZ
  Basis Set: (AUG-CC-PVTZ AUX)
    Blend: AUG-CC-PVTZ-JKFIT

    Orbital Energies [Eh]
    ---------------------

    Doubly Occupied:

       1A    -15.590544     2A    -11.270041     3A    -11.260518
       4A    -11.252753     5A    -11.249392     6A    -11.243627
       7A    -11.242552     8A    -11.241842     9A    -11.241266
      10A    -11.240411    11A    -11.218968    12A    -11.202780
      13A     -1.257091    14A     -1.156463    15A     -1.069711
      16A     -1.045597    17A     -1.018754    18A     -0.964599
      19A     -0.913450    20A     -0.841369    21A     -0.832361
      22A     -0.773842    23A     -0.744746    24A     -0.704220
      25A     -0.678143    26A     -0.639475    27A     -0.629845
      28A     -0.615449    29A     -0.599013    30A     -0.588816
      31A     -0.580858    32A     -0.558252    33A     -0.544423
      34A     -0.515715    35A     -0.509968    36A     -0.497491
      37A     -0.492995    38A     -0.483391    39A     -0.357968
      40A     -0.342184    41A     -0.334315    42A     -0.281344

  @DF-RHF Final Energy:  -477.50860486669939

   => Energetics <=

    Nuclear Repulsion Energy =            635.3957128315639693
    One-Electron Energy =               -1906.1555447331293180
    Two-Electron Energy =                 793.2512270348659058
    Total Energy =                       -477.5086048666994429
  Basis Set: (AUG-CC-PVTZ AUX)
    Blend: AUG-CC-PVTZ-RI
    Molecular point group: c1

    Geometry (in Angstrom), charge = 0, multiplicity = 1:

       Center              X                  Y                   Z               Mass
    ------------   -----------------  -----------------  -----------------  -----------------
         N           -1.741491109328     0.675093585062     0.207522524213    14.003074004430
         C           -0.846822109328    -0.333037414938    -0.106771475787    12.000000000000
         C            0.607506890672    -0.168095414938    -0.059700475787    12.000000000000
         C           -1.597889109328    -1.456699414938    -0.445461475787    12.000000000000
         C           -3.211700609328     0.137877185062     0.047708324213    12.000000000000
         C           -2.963396109328    -1.115938414938    -0.339356475787    12.000000000000
         C           -1.409624109328     2.010213585062     0.678126524213    12.000000000000
         C            1.253562890672     0.910838585062    -0.688020475787    12.000000000000
         C            1.390328890672    -1.136070414938     0.592504524213    12.000000000000
         C            2.643188890672     1.027684585062    -0.645694475787    12.000000000000
         C            2.780560890672    -1.028325414938     0.614431524213    12.000000000000
         C            3.411535890672     0.058443585062     0.003609524213    12.000000000000
         H           -1.181463109328    -2.404151414938    -0.765041475787     1.007825032230
         H           -3.870706109328     0.846293585062     0.282964524213     1.007825032230
         H           -3.813691109328    -1.755371414938    -0.538700475787     1.007825032230
         H           -2.209646109328     2.354545585062     1.336211524213     1.007825032230
         H           -0.475402109328     1.975637585062     1.239481524213     1.007825032230
         H           -1.302301109328     2.714711585062    -0.151843475787     1.007825032230
         H            0.665231890672     1.641560585062    -1.238965475787     1.007825032230
         H            0.892876890672    -1.966465414938     1.088900524213     1.007825032230
         H            3.129003890672     1.867540585062    -1.137556475787     1.007825032230
         H            3.372683890672    -1.786077414938     1.122693524213     1.007825032230
         H            4.494949890672     0.147250585062     0.029476524213     1.007825032230

  Basis Set: AUG-CC-PVTZ
    Blend: AUG-CC-PVTZ
  Basis Set: (AUG-CC-PVTZ AUX)
    Blend: AUG-CC-PVTZ-JKFIT
	 Reference Energy          =    -477.5086048666993861 [Eh]
	 Singles Energy            =      -0.0000000000000000 [Eh]
	 Same-Spin Energy          =      -0.5386414413566736 [Eh]
	 Opposite-Spin Energy      =      -1.6855688363027603 [Eh]
	 Correlation Energy        =      -2.2242102776594339 [Eh]
	 Total Energy              =    -479.7328151443588240 [Eh]

	 ================> DF-SCS-MP2 Energies <==================
	-----------------------------------------------------------
	 SCS Same-Spin Scale       =       0.3333333333333333 [-]
	 SCS Opposite-Spin Scale   =       1.2000000000000000 [-]
	 SCS Same-Spin Energy      =      -0.1795471471188912 [Eh]
	 SCS Opposite-Spin Energy  =      -2.0226826035633123 [Eh]
	 SCS Correlation Energy    =      -2.2022297506822035 [Eh]
	 SCS Total Energy          =    -479.7108346173815789 [Eh]
	-----------------------------------------------------------

  Dipole Moment: [D]
     X:     0.4695      Y:     1.6276      Z:     0.6002     Total:     1.7972

*** Psi4 exiting successfully. Buy a developer a beer!
