                               Psi4 1.3.2 release

  ==> Input File <==

--------------------------------------------------------------------------
#psi4
#
memory 32 gb

molecule  {
0 1
  N       -1.7531090     0.6487580     0.1985890
  C       -0.8584400    -0.3593730    -0.1157050
  C        0.3972657    -0.2169578    -0.0750627
  C       -1.6095070    -1.4830350    -0.4543950
  C       -3.0364380     0.1798280     0.0590890
  C       -2.9750140    -1.1422740    -0.3482900
  C       -1.4212420     1.9838780     0.6691930
  C        1.2419450     0.8845030    -0.6969540
  C        1.3787110    -1.1624060     0.5835710
  C        2.6315710     1.0013490    -0.6546280
  C        2.7689430    -1.0546610     0.6054980
  C        3.3999180     0.0321080    -0.0053240
  H       -1.1930810    -2.4304870    -0.7739750
  H       -3.8823240     0.8199580     0.2740310
  H       -3.8253090    -1.7817070    -0.5476340
  H       -2.2212640     2.3282100     1.3272780
  H       -0.4870200     1.9493020     1.2305480
  H       -1.3139190     2.6883760    -0.1607770
  H        0.6536140     1.6152250    -1.2478990
  H        0.8812590    -1.9928010     1.0799670
  H        3.1173860     1.8412050    -1.1464900
  H        3.3610660    -1.8124130     1.1137600
  H        4.4833320     0.1209150     0.0205430
units angstrom
no_reorient  #important for SAPT in psi4, default
symmetry c1  #important for SAPT in psi4, default
}

set PROPERTIES_ORIGIN ["COM"]
properties('MP2/aug-cc-pvtz', properties = ['dipole'])
--------------------------------------------------------------------------

    Molecular point group: c1
  Charge       = 0
  Multiplicity = 1
  Basis Set: AUG-CC-PVTZ
    Blend: AUG-CC-PVTZ
  Basis Set: (AUG-CC-PVTZ AUX)
    Blend: AUG-CC-PVTZ-JKFIT

    Orbital Energies [Eh]
    ---------------------

    Doubly Occupied:

       1A    -15.611672     2A    -11.272202     3A    -11.257898
       4A    -11.254235     5A    -11.248526     6A    -11.245613
       7A    -11.243322     8A    -11.238019     9A    -11.236936
      10A    -11.235859    11A    -11.216593    12A    -11.214042
      13A     -1.308250    14A     -1.140262    15A     -1.084919
      16A     -1.065524    17A     -1.005207    18A     -0.949932
      19A     -0.937602    20A     -0.854933    21A     -0.818016
      22A     -0.777112    23A     -0.744871    24A     -0.717244
      25A     -0.680428    26A     -0.644354    27A     -0.638615
      28A     -0.614261    29A     -0.595249    30A     -0.577076
      31A     -0.574694    32A     -0.572120    33A     -0.547015
      34A     -0.533383    35A     -0.529493    36A     -0.516589
      37A     -0.484244    38A     -0.458566    39A     -0.356242
      40A     -0.341536    41A     -0.334592    42A     -0.259614

  @DF-RHF Final Energy:  -477.47747700997286

   => Energetics <=

    Nuclear Repulsion Energy =            639.6617872924597350
    One-Electron Energy =               -1914.4048002867307332
    Two-Electron Energy =                 797.2655359842980261
    Total Energy =                       -477.4774770099728585
  Basis Set: (AUG-CC-PVTZ AUX)
    Blend: AUG-CC-PVTZ-RI
    Molecular point group: c1

    Geometry (in Angstrom), charge = 0, multiplicity = 1:

       Center              X                  Y                   Z               Mass
    ------------   -----------------  -----------------  -----------------  -----------------
         N           -1.740594079835     0.671598020904     0.206461814415    14.003074004430
         C           -0.845925079835    -0.336532979096    -0.107832185585    12.000000000000
         C            0.409780620165    -0.194117779096    -0.067189885585    12.000000000000
         C           -1.596992079835    -1.460194979096    -0.446522185585    12.000000000000
         C           -3.023923079835     0.202668020904     0.066961814415    12.000000000000
         C           -2.962499079835    -1.119433979096    -0.340417185585    12.000000000000
         C           -1.408727079835     2.006718020904     0.677065814415    12.000000000000
         C            1.254459920165     0.907343020904    -0.689081185585    12.000000000000
         C            1.391225920165    -1.139565979096     0.591443814415    12.000000000000
         C            2.644085920165     1.024189020904    -0.646755185585    12.000000000000
         C            2.781457920165    -1.031820979096     0.613370814415    12.000000000000
         C            3.412432920165     0.054948020904     0.002548814415    12.000000000000
         H           -1.180566079835    -2.407646979096    -0.766102185585     1.007825032230
         H           -3.869809079835     0.842798020904     0.281903814415     1.007825032230
         H           -3.812794079835    -1.758866979096    -0.539761185585     1.007825032230
         H           -2.208749079835     2.351050020904     1.335150814415     1.007825032230
         H           -0.474505079835     1.972142020904     1.238420814415     1.007825032230
         H           -1.301404079835     2.711216020904    -0.152904185585     1.007825032230
         H            0.666128920165     1.638065020904    -1.240026185585     1.007825032230
         H            0.893773920165    -1.969960979096     1.087839814415     1.007825032230
         H            3.129900920165     1.864045020904    -1.138617185585     1.007825032230
         H            3.373580920165    -1.789572979096     1.121632814415     1.007825032230
         H            4.495846920165     0.143755020904     0.028415814415     1.007825032230

  Basis Set: AUG-CC-PVTZ
    Blend: AUG-CC-PVTZ
  Basis Set: (AUG-CC-PVTZ AUX)
    Blend: AUG-CC-PVTZ-JKFIT
	 Reference Energy          =    -477.4774770099728585 [Eh]
	 Singles Energy            =      -0.0000000000000000 [Eh]
	 Same-Spin Energy          =      -0.5450710185170757 [Eh]
	 Opposite-Spin Energy      =      -1.6920796307370096 [Eh]
	 Correlation Energy        =      -2.2371506492540854 [Eh]
	 Total Energy              =    -479.7146276592269487 [Eh]

	 ================> DF-SCS-MP2 Energies <==================
	-----------------------------------------------------------
	 SCS Same-Spin Scale       =       0.3333333333333333 [-]
	 SCS Opposite-Spin Scale   =       1.2000000000000000 [-]
	 SCS Same-Spin Energy      =      -0.1816903395056919 [Eh]
	 SCS Opposite-Spin Energy  =      -2.0304955568844116 [Eh]
	 SCS Correlation Energy    =      -2.2121858963901033 [Eh]
	 SCS Total Energy          =    -479.6896629063629689 [Eh]
	-----------------------------------------------------------

  Dipole Moment: [D]
     X:    -0.2599      Y:     1.8024      Z:     0.6386     Total:     1.9298

*** Psi4 exiting successfully. Buy a developer a beer!
