                               Psi4 1.3.2 release

  ==> Input File <==

--------------------------------------------------------------------------
#psi4
#
memory 32 gb

molecule  {
0 1
  N       -1.8384384     0.6545674     0.2532247
  C       -0.8584400    -0.3593730    -0.1157050
  C        0.5958890    -0.1944310    -0.0686340
  C       -1.6095070    -1.4830350    -0.4543950
  C       -3.0364380     0.1798280     0.0590890
  C       -2.9750140    -1.1422740    -0.3482900
  C       -1.4212420     1.9838780     0.6691930
  C        1.2419450     0.8845030    -0.6969540
  C        1.3787110    -1.1624060     0.5835710
  C        2.6315710     1.0013490    -0.6546280
  C        2.7689430    -1.0546610     0.6054980
  C        3.3999180     0.0321080    -0.0053240
  H       -1.1930810    -2.4304870    -0.7739750
  H       -3.8823240     0.8199580     0.2740310
  H       -3.8253090    -1.7817070    -0.5476340
  H       -2.2212640     2.3282100     1.3272780
  H       -0.4870200     1.9493020     1.2305480
  H       -1.3139190     2.6883760    -0.1607770
  H        0.6536140     1.6152250    -1.2478990
  H        0.8812590    -1.9928010     1.0799670
  H        3.1173860     1.8412050    -1.1464900
  H        3.3610660    -1.8124130     1.1137600
  H        4.4833320     0.1209150     0.0205430
units angstrom
no_reorient  #important for SAPT in psi4, default
symmetry c1  #important for SAPT in psi4, default
}

set PROPERTIES_ORIGIN ["COM"]
properties('MP2/aug-cc-pvtz', properties = ['dipole'])
--------------------------------------------------------------------------

    Molecular point group: c1
  Charge       = 0
  Multiplicity = 1
  Basis Set: AUG-CC-PVTZ
    Blend: AUG-CC-PVTZ
  Basis Set: (AUG-CC-PVTZ AUX)
    Blend: AUG-CC-PVTZ-JKFIT

    Orbital Energies [Eh]
    ---------------------

    Doubly Occupied:

       1A    -15.608381     2A    -11.272033     3A    -11.254356
       4A    -11.250353     5A    -11.250015     6A    -11.239912
       7A    -11.238813     8A    -11.238314     9A    -11.237206
      10A    -11.236295    11A    -11.213567    12A    -11.201557
      13A     -1.302828    14A     -1.154901    15A     -1.074480
      16A     -1.043893    17A     -1.015487    18A     -0.960812
      19A     -0.929714    20A     -0.831868    21A     -0.829577
      22A     -0.771108    23A     -0.743113    24A     -0.712357
      25A     -0.679055    26A     -0.639793    27A     -0.632751
      28A     -0.622502    29A     -0.597382    30A     -0.586775
      31A     -0.584526    32A     -0.554501    33A     -0.536069
      34A     -0.527968    35A     -0.522343    36A     -0.500853
      37A     -0.494778    38A     -0.490823    39A     -0.358639
      40A     -0.339366    41A     -0.334103    42A     -0.271912

  @DF-RHF Final Energy:  -477.53569371844389

   => Energetics <=

    Nuclear Repulsion Energy =            638.2225679733496690
    One-Electron Energy =               -1911.7463634402633943
    Two-Electron Energy =                 795.9881017484698305
    Total Energy =                       -477.5356937184438948
  Basis Set: (AUG-CC-PVTZ AUX)
    Blend: AUG-CC-PVTZ-RI
    Molecular point group: c1

    Geometry (in Angstrom), charge = 0, multiplicity = 1:

       Center              X                  Y                   Z               Mass
    ------------   -----------------  -----------------  -----------------  -----------------
         N           -1.833489920304     0.675168749045     0.255736150159    14.003074004430
         C           -0.853491520304    -0.338771650955    -0.113193549841    12.000000000000
         C            0.600837479696    -0.173829650955    -0.066122549841    12.000000000000
         C           -1.604558520304    -1.462433650955    -0.451883549841    12.000000000000
         C           -3.031489520304     0.200429349045     0.061600450159    12.000000000000
         C           -2.970065520304    -1.121672650955    -0.345778549841    12.000000000000
         C           -1.416293520304     2.004479349045     0.671704450159    12.000000000000
         C            1.246893479696     0.905104349045    -0.694442549841    12.000000000000
         C            1.383659479696    -1.141804650955     0.586082450159    12.000000000000
         C            2.636519479696     1.021950349045    -0.652116549841    12.000000000000
         C            2.773891479696    -1.034059650955     0.608009450159    12.000000000000
         C            3.404866479696     0.052709349045    -0.002812549841    12.000000000000
         H           -1.188132520304    -2.409885650955    -0.771463549841     1.007825032230
         H           -3.877375520304     0.840559349045     0.276542450159     1.007825032230
         H           -3.820360520304    -1.761105650955    -0.545122549841     1.007825032230
         H           -2.216315520304     2.348811349045     1.329789450159     1.007825032230
         H           -0.482071520304     1.969903349045     1.233059450159     1.007825032230
         H           -1.308970520304     2.708977349045    -0.158265549841     1.007825032230
         H            0.658562479696     1.635826349045    -1.245387549841     1.007825032230
         H            0.886207479696    -1.972199650955     1.082478450159     1.007825032230
         H            3.122334479696     1.861806349045    -1.143978549841     1.007825032230
         H            3.366014479696    -1.791811650955     1.116271450159     1.007825032230
         H            4.488280479696     0.141516349045     0.023054450159     1.007825032230

  Basis Set: AUG-CC-PVTZ
    Blend: AUG-CC-PVTZ
  Basis Set: (AUG-CC-PVTZ AUX)
    Blend: AUG-CC-PVTZ-JKFIT
	 Reference Energy          =    -477.5356937184438948 [Eh]
	 Singles Energy            =      -0.0000000000000000 [Eh]
	 Same-Spin Energy          =      -0.5393712906944462 [Eh]
	 Opposite-Spin Energy      =      -1.6835987148854277 [Eh]
	 Correlation Energy        =      -2.2229700055798740 [Eh]
	 Total Energy              =    -479.7586637240237906 [Eh]

	 ================> DF-SCS-MP2 Energies <==================
	-----------------------------------------------------------
	 SCS Same-Spin Scale       =       0.3333333333333333 [-]
	 SCS Opposite-Spin Scale   =       1.2000000000000000 [-]
	 SCS Same-Spin Energy      =      -0.1797904302314821 [Eh]
	 SCS Opposite-Spin Energy  =      -2.0203184578625133 [Eh]
	 SCS Correlation Energy    =      -2.2001088880939954 [Eh]
	 SCS Total Energy          =    -479.7358026065379022 [Eh]
	-----------------------------------------------------------

  Dipole Moment: [D]
     X:     0.5572      Y:     1.8877      Z:     0.6598     Total:     2.0758

*** Psi4 exiting successfully. Buy a developer a beer!
