                               Psi4 1.4a3.dev225

  ==> Input File <==

--------------------------------------------------------------------------
#psi4
#
memory 32 gb

molecule  {
0 1
  N       -1.7531090     0.6487580     0.1985890
  C       -0.8584400    -0.3593730    -0.1157050
  C        0.5958890    -0.1944310    -0.0686340
  C       -1.6364588    -1.5233573    -0.4665488
  C       -3.0364380     0.1798280     0.0590890
  C       -2.9750140    -1.1422740    -0.3482900
  C       -1.4212420     1.9838780     0.6691930
  C        1.2419450     0.8845030    -0.6969540
  C        1.3787110    -1.1624060     0.5835710
  C        2.6315710     1.0013490    -0.6546280
  C        2.7689430    -1.0546610     0.6054980
  C        3.3999180     0.0321080    -0.0053240
  H       -1.1930810    -2.4304870    -0.7739750
  H       -3.8823240     0.8199580     0.2740310
  H       -3.8253090    -1.7817070    -0.5476340
  H       -2.2212640     2.3282100     1.3272780
  H       -0.4870200     1.9493020     1.2305480
  H       -1.3139190     2.6883760    -0.1607770
  H        0.6536140     1.6152250    -1.2478990
  H        0.8812590    -1.9928010     1.0799670
  H        3.1173860     1.8412050    -1.1464900
  H        3.3610660    -1.8124130     1.1137600
  H        4.4833320     0.1209150     0.0205430
units angstrom
no_reorient  #important for SAPT in psi4, default
symmetry c1  #important for SAPT in psi4, default
}

set PROPERTIES_ORIGIN ["COM"]
properties('MP2/aug-cc-pvtz', properties = ['dipole'])
--------------------------------------------------------------------------

    Molecular point group: c1
  Charge       = 0
  Multiplicity = 1
  Basis Set: AUG-CC-PVTZ
    Blend: AUG-CC-PVTZ
  Basis Set: (AUG-CC-PVTZ AUX)
    Blend: AUG-CC-PVTZ-JKFIT

    Orbital Energies [Eh]
    ---------------------

    Doubly Occupied:

       1A    -15.612025     2A    -11.272003     3A    -11.261595
       4A    -11.250418     5A    -11.247018     6A    -11.240780
       7A    -11.239604     8A    -11.239312     9A    -11.237950
      10A    -11.237044    11A    -11.209559    12A    -11.208237
      13A     -1.298235    14A     -1.155064    15A     -1.072075
      16A     -1.043653    17A     -1.016233    18A     -0.952422
      19A     -0.936934    20A     -0.833389    21A     -0.830494
      22A     -0.770997    23A     -0.743801    24A     -0.712811
      25A     -0.677810    26A     -0.640506    27A     -0.632899
      28A     -0.622776    29A     -0.597652    30A     -0.587334
      31A     -0.572813    32A     -0.566474    33A     -0.542640
      34A     -0.527069    35A     -0.522176    36A     -0.502313
      37A     -0.493236    38A     -0.490904    39A     -0.352756
      40A     -0.340939    41A     -0.337678    42A     -0.269359

  @DF-RHF Final Energy:  -477.54094676859285

   => Energetics <=

    Nuclear Repulsion Energy =            638.1152932787349528
    One-Electron Energy =               -1911.5145061014534349
    Two-Electron Energy =                 795.8582660541256928
    Total Energy =                       -477.5409467685927893
  Basis Set: (AUG-CC-PVTZ AUX)
    Blend: AUG-CC-PVTZ-RI
    Molecular point group: c1

    Geometry (in Angstrom), charge = 0, multiplicity = 1:

       Center              X                  Y                   Z               Mass
    ------------   -----------------  -----------------  -----------------  -----------------
         N           -1.753708021876     0.672957414605     0.206899153341    14.003074004430
         C           -0.859039021876    -0.335173585395    -0.107394846659    12.000000000000
         C            0.595289978124    -0.170231585395    -0.060323846659    12.000000000000
         C           -1.637057821876    -1.499157885395    -0.458238646659    12.000000000000
         C           -3.037037021876     0.204027414605     0.067399153341    12.000000000000
         C           -2.975613021876    -1.118074585395    -0.339979846659    12.000000000000
         C           -1.421841021876     2.008077414605     0.677503153341    12.000000000000
         C            1.241345978124     0.908702414605    -0.688643846659    12.000000000000
         C            1.378111978124    -1.138206585395     0.591881153341    12.000000000000
         C            2.630971978124     1.025548414605    -0.646317846659    12.000000000000
         C            2.768343978124    -1.030461585395     0.613808153341    12.000000000000
         C            3.399318978124     0.056307414605     0.002986153341    12.000000000000
         H           -1.193680021876    -2.406287585395    -0.765664846659     1.007825032230
         H           -3.882923021876     0.844157414605     0.282341153341     1.007825032230
         H           -3.825908021876    -1.757507585395    -0.539323846659     1.007825032230
         H           -2.221863021876     2.352409414605     1.335588153341     1.007825032230
         H           -0.487619021876     1.973501414605     1.238858153341     1.007825032230
         H           -1.314518021876     2.712575414605    -0.152466846659     1.007825032230
         H            0.653014978124     1.639424414605    -1.239588846659     1.007825032230
         H            0.880659978124    -1.968601585395     1.088277153341     1.007825032230
         H            3.116786978124     1.865404414605    -1.138179846659     1.007825032230
         H            3.360466978124    -1.788213585395     1.122070153341     1.007825032230
         H            4.482732978124     0.145114414605     0.028853153341     1.007825032230

  Basis Set: AUG-CC-PVTZ
    Blend: AUG-CC-PVTZ
  Basis Set: (AUG-CC-PVTZ AUX)
    Blend: AUG-CC-PVTZ-JKFIT
	 Reference Energy          =    -477.5409467685928462 [Eh]
	 Singles Energy            =      -0.0000000000000000 [Eh]
	 Same-Spin Energy          =      -0.5400322548861078 [Eh]
	 Opposite-Spin Energy      =      -1.6845108577654335 [Eh]
	 Correlation Energy        =      -2.2245431126515411 [Eh]
	 Total Energy              =    -479.7654898812443776 [Eh]

	 ================> DF-SCS-MP2 Energies <==================
	-----------------------------------------------------------
	 SCS Same-Spin Scale       =       0.3333333333333333 [-]
	 SCS Opposite-Spin Scale   =       1.2000000000000000 [-]
	 SCS Same-Spin Energy      =      -0.1800107516287026 [Eh]
	 SCS Opposite-Spin Energy  =      -2.0214130293185200 [Eh]
	 SCS Correlation Energy    =      -2.2014237809472226 [Eh]
	 SCS Total Energy          =    -479.7423705495400554 [Eh]
	-----------------------------------------------------------

  Dipole Moment: [D]
     X:     0.4365      Y:     1.8918      Z:     0.6838     Total:     2.0584

*** Psi4 exiting successfully. Buy a developer a beer!
