                               Psi4 1.3.2 release

  ==> Input File <==

--------------------------------------------------------------------------
#psi4
#
memory 32 gb

molecule  {
0 1
  N       -1.7531090     0.6487580     0.1985890
  C       -0.8622431    -0.2308174    -0.1990988
  C        0.5958890    -0.1944310    -0.0686340
  C       -1.6095070    -1.4830350    -0.4543950
  C       -3.0364380     0.1798280     0.0590890
  C       -2.9750140    -1.1422740    -0.3482900
  C       -1.4212420     1.9838780     0.6691930
  C        1.2419450     0.8845030    -0.6969540
  C        1.3787110    -1.1624060     0.5835710
  C        2.6315710     1.0013490    -0.6546280
  C        2.7689430    -1.0546610     0.6054980
  C        3.3999180     0.0321080    -0.0053240
  H       -1.1930810    -2.4304870    -0.7739750
  H       -3.8823240     0.8199580     0.2740310
  H       -3.8253090    -1.7817070    -0.5476340
  H       -2.2212640     2.3282100     1.3272780
  H       -0.4870200     1.9493020     1.2305480
  H       -1.3139190     2.6883760    -0.1607770
  H        0.6536140     1.6152250    -1.2478990
  H        0.8812590    -1.9928010     1.0799670
  H        3.1173860     1.8412050    -1.1464900
  H        3.3610660    -1.8124130     1.1137600
  H        4.4833320     0.1209150     0.0205430
units angstrom
no_reorient  #important for SAPT in psi4, default
symmetry c1  #important for SAPT in psi4, default
}

set PROPERTIES_ORIGIN ["COM"]
properties('MP2/aug-cc-pvtz', properties = ['dipole'])
--------------------------------------------------------------------------

    Molecular point group: c1
  Charge       = 0
  Multiplicity = 1
  Basis Set: AUG-CC-PVTZ
    Blend: AUG-CC-PVTZ
  Basis Set: (AUG-CC-PVTZ AUX)
    Blend: AUG-CC-PVTZ-JKFIT

    Orbital Energies [Eh]
    ---------------------

    Doubly Occupied:

       1A    -15.617565     2A    -11.273818     3A    -11.259982
       4A    -11.251140     5A    -11.243083     6A    -11.240777
       7A    -11.239877     8A    -11.239406     9A    -11.238298
      10A    -11.237594    11A    -11.211182    12A    -11.209040
      13A     -1.319143    14A     -1.155473    15A     -1.068509
      16A     -1.045574    17A     -1.016418    18A     -0.961025
      19A     -0.934072    20A     -0.835184    21A     -0.830206
      22A     -0.773089    23A     -0.741888    24A     -0.714523
      25A     -0.678084    26A     -0.647592    27A     -0.634706
      28A     -0.623201    29A     -0.600262    30A     -0.588248
      31A     -0.579994    32A     -0.562343    33A     -0.533921
      34A     -0.527080    35A     -0.525128    36A     -0.504443
      37A     -0.495336    38A     -0.480872    39A     -0.352265
      40A     -0.340843    41A     -0.336497    42A     -0.266960

  @DF-RHF Final Energy:  -477.52846407524987

   => Energetics <=

    Nuclear Repulsion Energy =            639.3991332571044950
    One-Electron Energy =               -1913.9859052614867778
    Two-Electron Energy =                 797.0583079291324111
    Total Energy =                       -477.5284640752498717
  Basis Set: (AUG-CC-PVTZ AUX)
    Blend: AUG-CC-PVTZ-RI
    Molecular point group: c1

    Geometry (in Angstrom), charge = 0, multiplicity = 1:

       Center              X                  Y                   Z               Mass
    ------------   -----------------  -----------------  -----------------  -----------------
         N           -1.755476345157     0.660056874954     0.212341158747    14.003074004430
         C           -0.864610445157    -0.219518525046    -0.185346641253    12.000000000000
         C            0.593521654843    -0.183132125046    -0.054881841253    12.000000000000
         C           -1.611874345157    -1.471736125046    -0.440642841253    12.000000000000
         C           -3.038805345157     0.191126874954     0.072841158747    12.000000000000
         C           -2.977381345157    -1.130975125046    -0.334537841253    12.000000000000
         C           -1.423609345157     1.995176874954     0.682945158747    12.000000000000
         C            1.239577654843     0.895801874954    -0.683201841253    12.000000000000
         C            1.376343654843    -1.151107125046     0.597323158747    12.000000000000
         C            2.629203654843     1.012647874954    -0.640875841253    12.000000000000
         C            2.766575654843    -1.043362125046     0.619250158747    12.000000000000
         C            3.397550654843     0.043406874954     0.008428158747    12.000000000000
         H           -1.195448345157    -2.419188125046    -0.760222841253     1.007825032230
         H           -3.884691345157     0.831256874954     0.287783158747     1.007825032230
         H           -3.827676345157    -1.770408125046    -0.533881841253     1.007825032230
         H           -2.223631345157     2.339508874954     1.341030158747     1.007825032230
         H           -0.489387345157     1.960600874954     1.244300158747     1.007825032230
         H           -1.316286345157     2.699674874954    -0.147024841253     1.007825032230
         H            0.651246654843     1.626523874954    -1.234146841253     1.007825032230
         H            0.878891654843    -1.981502125046     1.093719158747     1.007825032230
         H            3.115018654843     1.852503874954    -1.132737841253     1.007825032230
         H            3.358698654843    -1.801114125046     1.127512158747     1.007825032230
         H            4.480964654843     0.132213874954     0.034295158747     1.007825032230

  Basis Set: AUG-CC-PVTZ
    Blend: AUG-CC-PVTZ
  Basis Set: (AUG-CC-PVTZ AUX)
    Blend: AUG-CC-PVTZ-JKFIT
	 Reference Energy          =    -477.5284640752498717 [Eh]
	 Singles Energy            =      -0.0000000000000000 [Eh]
	 Same-Spin Energy          =      -0.5407679128763535 [Eh]
	 Opposite-Spin Energy      =      -1.6852636761307509 [Eh]
	 Correlation Energy        =      -2.2260315890071043 [Eh]
	 Total Energy              =    -479.7544956642569787 [Eh]

	 ================> DF-SCS-MP2 Energies <==================
	-----------------------------------------------------------
	 SCS Same-Spin Scale       =       0.3333333333333333 [-]
	 SCS Opposite-Spin Scale   =       1.2000000000000000 [-]
	 SCS Same-Spin Energy      =      -0.1802559709587845 [Eh]
	 SCS Opposite-Spin Energy  =      -2.0223164113569010 [Eh]
	 SCS Correlation Energy    =      -2.2025723823156853 [Eh]
	 SCS Total Energy          =    -479.7310364575655512 [Eh]
	-----------------------------------------------------------

  Dipole Moment: [D]
     X:     0.3815      Y:     1.9747      Z:     0.7730     Total:     2.1547

*** Psi4 exiting successfully. Buy a developer a beer!
