                               Psi4 1.3.2 release

  ==> Input File <==

--------------------------------------------------------------------------
#psi4
#
memory 32 gb

molecule  {
0 1
  N       -1.7531090     0.6487580     0.1985890
  C       -0.9851465    -0.2919487    -0.0898181
  C        0.5958890    -0.1944310    -0.0686340
  C       -1.6095070    -1.4830350    -0.4543950
  C       -3.0364380     0.1798280     0.0590890
  C       -2.9750140    -1.1422740    -0.3482900
  C       -1.4212420     1.9838780     0.6691930
  C        1.2419450     0.8845030    -0.6969540
  C        1.3787110    -1.1624060     0.5835710
  C        2.6315710     1.0013490    -0.6546280
  C        2.7689430    -1.0546610     0.6054980
  C        3.3999180     0.0321080    -0.0053240
  H       -1.1930810    -2.4304870    -0.7739750
  H       -3.8823240     0.8199580     0.2740310
  H       -3.8253090    -1.7817070    -0.5476340
  H       -2.2212640     2.3282100     1.3272780
  H       -0.4870200     1.9493020     1.2305480
  H       -1.3139190     2.6883760    -0.1607770
  H        0.6536140     1.6152250    -1.2478990
  H        0.8812590    -1.9928010     1.0799670
  H        3.1173860     1.8412050    -1.1464900
  H        3.3610660    -1.8124130     1.1137600
  H        4.4833320     0.1209150     0.0205430
units angstrom
no_reorient  #important for SAPT in psi4, default
symmetry c1  #important for SAPT in psi4, default
}

set PROPERTIES_ORIGIN ["COM"]
properties('MP2/aug-cc-pvtz', properties = ['dipole'])
--------------------------------------------------------------------------

    Molecular point group: c1
  Charge       = 0
  Multiplicity = 1
  Basis Set: AUG-CC-PVTZ
    Blend: AUG-CC-PVTZ
  Basis Set: (AUG-CC-PVTZ AUX)
    Blend: AUG-CC-PVTZ-JKFIT

    Orbital Energies [Eh]
    ---------------------

    Doubly Occupied:

       1A    -15.613124     2A    -11.279454     3A    -11.257238
       4A    -11.255458     5A    -11.239878     6A    -11.239224
       7A    -11.238081     8A    -11.237170     9A    -11.236798
      10A    -11.236499    11A    -11.209789    12A    -11.196875
      13A     -1.344584    14A     -1.151278    15A     -1.080477
      16A     -1.032129    17A     -1.015231    18A     -0.968978
      19A     -0.942762    20A     -0.828617    21A     -0.822981
      22A     -0.784003    23A     -0.737813    24A     -0.717883
      25A     -0.676504    26A     -0.653711    27A     -0.630422
      28A     -0.621633    29A     -0.599242    30A     -0.592870
      31A     -0.586150    32A     -0.558841    33A     -0.540754
      34A     -0.534984    35A     -0.526904    36A     -0.502465
      37A     -0.492462    38A     -0.471809    39A     -0.346530
      40A     -0.343309    41A     -0.338644    42A     -0.275704

  @DF-RHF Final Energy:  -477.52290902559122

   => Energetics <=

    Nuclear Repulsion Energy =            639.9830710392615174
    One-Electron Energy =               -1915.0934357225535223
    Two-Electron Energy =                 797.5874556577008434
    Total Energy =                       -477.5229090255912752
  Basis Set: (AUG-CC-PVTZ AUX)
    Blend: AUG-CC-PVTZ-RI
    Molecular point group: c1

    Geometry (in Angstrom), charge = 0, multiplicity = 1:

       Center              X                  Y                   Z               Mass
    ------------   -----------------  -----------------  -----------------  -----------------
         N           -1.746087785820     0.664726679348     0.203993233984    14.003074004430
         C           -0.978125285820    -0.275980020652    -0.084413866016    12.000000000000
         C            0.602910214180    -0.178462320652    -0.063229766016    12.000000000000
         C           -1.602485785820    -1.467066320652    -0.448990766016    12.000000000000
         C           -3.029416785820     0.195796679348     0.064493233984    12.000000000000
         C           -2.967992785820    -1.126305320652    -0.342885766016    12.000000000000
         C           -1.414220785820     1.999846679348     0.674597233984    12.000000000000
         C            1.248966214180     0.900471679348    -0.691549766016    12.000000000000
         C            1.385732214180    -1.146437320652     0.588975233984    12.000000000000
         C            2.638592214180     1.017317679348    -0.649223766016    12.000000000000
         C            2.775964214180    -1.038692320652     0.610902233984    12.000000000000
         C            3.406939214180     0.048076679348     0.000080233984    12.000000000000
         H           -1.186059785820    -2.414518320652    -0.768570766016     1.007825032230
         H           -3.875302785820     0.835926679348     0.279435233984     1.007825032230
         H           -3.818287785820    -1.765738320652    -0.542229766016     1.007825032230
         H           -2.214242785820     2.344178679348     1.332682233984     1.007825032230
         H           -0.479998785820     1.965270679348     1.235952233984     1.007825032230
         H           -1.306897785820     2.704344679348    -0.155372766016     1.007825032230
         H            0.660635214180     1.631193679348    -1.242494766016     1.007825032230
         H            0.888280214180    -1.976832320652     1.085371233984     1.007825032230
         H            3.124407214180     1.857173679348    -1.141085766016     1.007825032230
         H            3.368087214180    -1.796444320652     1.119164233984     1.007825032230
         H            4.490353214180     0.136883679348     0.025947233984     1.007825032230

  Basis Set: AUG-CC-PVTZ
    Blend: AUG-CC-PVTZ
  Basis Set: (AUG-CC-PVTZ AUX)
    Blend: AUG-CC-PVTZ-JKFIT
	 Reference Energy          =    -477.5229090255912183 [Eh]
	 Singles Energy            =      -0.0000000000000000 [Eh]
	 Same-Spin Energy          =      -0.5379169930684242 [Eh]
	 Opposite-Spin Energy      =      -1.6804464586723968 [Eh]
	 Correlation Energy        =      -2.2183634517408208 [Eh]
	 Total Energy              =    -479.7412724773320178 [Eh]

	 ================> DF-SCS-MP2 Energies <==================
	-----------------------------------------------------------
	 SCS Same-Spin Scale       =       0.3333333333333333 [-]
	 SCS Opposite-Spin Scale   =       1.2000000000000000 [-]
	 SCS Same-Spin Energy      =      -0.1793056643561414 [Eh]
	 SCS Opposite-Spin Energy  =      -2.0165357504068759 [Eh]
	 SCS Correlation Energy    =      -2.1958414147630174 [Eh]
	 SCS Total Energy          =    -479.7187504403542562 [Eh]
	-----------------------------------------------------------

  Dipole Moment: [D]
     X:     0.4822      Y:     2.0671      Z:     0.7614     Total:     2.2550

*** Psi4 exiting successfully. Buy a developer a beer!
