                               Psi4 1.3.2 release

  ==> Input File <==

--------------------------------------------------------------------------
#psi4
#
memory 32 gb

molecule  {
0 1
  N       -1.7157119     0.6780711     0.2073061
  C       -0.8584400    -0.3593730    -0.1157050
  C        0.5958890    -0.1944310    -0.0686340
  C       -1.6095070    -1.4830350    -0.4543950
  C       -3.0364380     0.1798280     0.0590890
  C       -2.9750140    -1.1422740    -0.3482900
  C       -1.4212420     1.9838780     0.6691930
  C        1.2419450     0.8845030    -0.6969540
  C        1.3787110    -1.1624060     0.5835710
  C        2.6315710     1.0013490    -0.6546280
  C        2.7689430    -1.0546610     0.6054980
  C        3.3999180     0.0321080    -0.0053240
  H       -1.1930810    -2.4304870    -0.7739750
  H       -3.8823240     0.8199580     0.2740310
  H       -3.8253090    -1.7817070    -0.5476340
  H       -2.2212640     2.3282100     1.3272780
  H       -0.4870200     1.9493020     1.2305480
  H       -1.3139190     2.6883760    -0.1607770
  H        0.6536140     1.6152250    -1.2478990
  H        0.8812590    -1.9928010     1.0799670
  H        3.1173860     1.8412050    -1.1464900
  H        3.3610660    -1.8124130     1.1137600
  H        4.4833320     0.1209150     0.0205430
units angstrom
no_reorient  #important for SAPT in psi4, default
symmetry c1  #important for SAPT in psi4, default
}

set PROPERTIES_ORIGIN ["COM"]
properties('MP2/aug-cc-pvtz', properties = ['dipole'])
--------------------------------------------------------------------------

    Molecular point group: c1
  Charge       = 0
  Multiplicity = 1
  Basis Set: AUG-CC-PVTZ
    Blend: AUG-CC-PVTZ
  Basis Set: (AUG-CC-PVTZ AUX)
    Blend: AUG-CC-PVTZ-JKFIT

    Orbital Energies [Eh]
    ---------------------

    Doubly Occupied:

       1A    -15.605735     2A    -11.266435     3A    -11.260790
       4A    -11.251435     5A    -11.249517     6A    -11.240888
       7A    -11.239773     8A    -11.239413     9A    -11.238171
      10A    -11.237220    11A    -11.213036    12A    -11.207957
      13A     -1.293577    14A     -1.155004    15A     -1.080343
      16A     -1.042971    17A     -1.016358    18A     -0.954050
      19A     -0.930869    20A     -0.833343    21A     -0.830702
      22A     -0.769368    23A     -0.744888    24A     -0.712940
      25A     -0.676737    26A     -0.640840    27A     -0.631333
      28A     -0.623240    29A     -0.597845    30A     -0.587297
      31A     -0.581303    32A     -0.562407    33A     -0.537924
      34A     -0.525112    35A     -0.519181    36A     -0.500424
      37A     -0.494998    38A     -0.490508    39A     -0.352987
      40A     -0.340743    41A     -0.336740    42A     -0.275637

  @DF-RHF Final Energy:  -477.54205738938464

   => Energetics <=

    Nuclear Repulsion Energy =            638.9551088131968299
    One-Electron Energy =               -1913.2142543378597566
    Two-Electron Energy =                 796.7170881352782317
    Total Energy =                       -477.5420573893846949
  Basis Set: (AUG-CC-PVTZ AUX)
    Blend: AUG-CC-PVTZ-RI
    Molecular point group: c1

    Geometry (in Angstrom), charge = 0, multiplicity = 1:

       Center              X                  Y                   Z               Mass
    ------------   -----------------  -----------------  -----------------  -----------------
         N           -1.721703375539     0.696577307198     0.213910777199    14.003074004430
         C           -0.864431475539    -0.340866792802    -0.109100322801    12.000000000000
         C            0.589897524461    -0.175924792802    -0.062029322801    12.000000000000
         C           -1.615498475539    -1.464528792802    -0.447790322801    12.000000000000
         C           -3.042429475539     0.198334207198     0.065693677199    12.000000000000
         C           -2.981005475539    -1.123767792802    -0.341685322801    12.000000000000
         C           -1.427233475539     2.002384207198     0.675797677199    12.000000000000
         C            1.235953524461     0.903009207198    -0.690349322801    12.000000000000
         C            1.372719524461    -1.143899792802     0.590175677199    12.000000000000
         C            2.625579524461     1.019855207198    -0.648023322801    12.000000000000
         C            2.762951524461    -1.036154792802     0.612102677199    12.000000000000
         C            3.393926524461     0.050614207198     0.001280677199    12.000000000000
         H           -1.199072475539    -2.411980792802    -0.767370322801     1.007825032230
         H           -3.888315475539     0.838464207198     0.280635677199     1.007825032230
         H           -3.831300475539    -1.763200792802    -0.541029322801     1.007825032230
         H           -2.227255475539     2.346716207198     1.333882677199     1.007825032230
         H           -0.493011475539     1.967808207198     1.237152677199     1.007825032230
         H           -1.319910475539     2.706882207198    -0.154172322801     1.007825032230
         H            0.647622524461     1.633731207198    -1.241294322801     1.007825032230
         H            0.875267524461    -1.974294792802     1.086571677199     1.007825032230
         H            3.111394524461     1.859711207198    -1.139885322801     1.007825032230
         H            3.355074524461    -1.793906792802     1.120364677199     1.007825032230
         H            4.477340524461     0.139421207198     0.027147677199     1.007825032230

  Basis Set: AUG-CC-PVTZ
    Blend: AUG-CC-PVTZ
  Basis Set: (AUG-CC-PVTZ AUX)
    Blend: AUG-CC-PVTZ-JKFIT
	 Reference Energy          =    -477.5420573893846381 [Eh]
	 Singles Energy            =      -0.0000000000000000 [Eh]
	 Same-Spin Energy          =      -0.5392327229323142 [Eh]
	 Opposite-Spin Energy      =      -1.6838605466323040 [Eh]
	 Correlation Energy        =      -2.2230932695646182 [Eh]
	 Total Energy              =    -479.7651506589492669 [Eh]

	 ================> DF-SCS-MP2 Energies <==================
	-----------------------------------------------------------
	 SCS Same-Spin Scale       =       0.3333333333333333 [-]
	 SCS Opposite-Spin Scale   =       1.2000000000000000 [-]
	 SCS Same-Spin Energy      =      -0.1797442409774380 [Eh]
	 SCS Opposite-Spin Energy  =      -2.0206326559587646 [Eh]
	 SCS Correlation Energy    =      -2.2003768969362025 [Eh]
	 SCS Total Energy          =    -479.7424342863208153 [Eh]
	-----------------------------------------------------------

  Dipole Moment: [D]
     X:     0.4179      Y:     1.7143      Z:     0.6336     Total:     1.8748

*** Psi4 exiting successfully. Buy a developer a beer!
