                               Psi4 1.4a3.dev225

  ==> Input File <==

--------------------------------------------------------------------------
#psi4
#
memory 32 gb

molecule  {
0 1
  N       -1.7531090     0.6487580     0.1985890
  C       -0.8584400    -0.3593730    -0.1157050
  C        0.5958890    -0.1944310    -0.0686340
  C       -1.6095070    -1.4830350    -0.4543950
  C       -3.0364380     0.1798280     0.0590890
  C       -2.9750140    -1.1422740    -0.3482900
  C       -1.4212420     1.9838780     0.6691930
  C        1.2419450     0.8845030    -0.6969540
  C        1.3787110    -1.1624060     0.5835710
  C        2.6315710     1.0013490    -0.6546280
  C        2.7689430    -1.0546610     0.6054980
  C        3.3999180     0.0321080    -0.0053240
  H       -1.2007702    -2.4129926    -0.7680740
  H       -3.8823240     0.8199580     0.2740310
  H       -3.8253090    -1.7817070    -0.5476340
  H       -2.2212640     2.3282100     1.3272780
  H       -0.4870200     1.9493020     1.2305480
  H       -1.3139190     2.6883760    -0.1607770
  H        0.6536140     1.6152250    -1.2478990
  H        0.8812590    -1.9928010     1.0799670
  H        3.1173860     1.8412050    -1.1464900
  H        3.3610660    -1.8124130     1.1137600
  H        4.4833320     0.1209150     0.0205430
units angstrom
no_reorient  #important for SAPT in psi4, default
symmetry c1  #important for SAPT in psi4, default
}

set PROPERTIES_ORIGIN ["COM"]
properties('MP2/aug-cc-pvtz', properties = ['dipole'])
--------------------------------------------------------------------------

    Molecular point group: c1
  Charge       = 0
  Multiplicity = 1
  Basis Set: AUG-CC-PVTZ
    Blend: AUG-CC-PVTZ
  Basis Set: (AUG-CC-PVTZ AUX)
    Blend: AUG-CC-PVTZ-JKFIT

    Orbital Energies [Eh]
    ---------------------

    Doubly Occupied:

       1A    -15.607490     2A    -11.270601     3A    -11.256312
       4A    -11.250177     5A    -11.248419     6A    -11.240732
       7A    -11.239580     8A    -11.239273     9A    -11.237969
      10A    -11.237076    11A    -11.208015    12A    -11.204802
      13A     -1.298758    14A     -1.155090    15A     -1.073522
      16A     -1.043910    17A     -1.016198    18A     -0.956039
      19A     -0.933796    20A     -0.833421    21A     -0.830646
      22A     -0.771901    23A     -0.743402    24A     -0.713148
      25A     -0.677979    26A     -0.640051    27A     -0.632157
      28A     -0.622587    29A     -0.597121    30A     -0.587210
      31A     -0.570395    32A     -0.568574    33A     -0.538206
      34A     -0.528532    35A     -0.523810    36A     -0.502201
      37A     -0.494849    38A     -0.491823    39A     -0.353942
      40A     -0.340287    41A     -0.335215    42A     -0.275057

  @DF-RHF Final Energy:  -477.54611145163909

   => Energetics <=

    Nuclear Repulsion Energy =            639.1476584503985805
    One-Electron Energy =               -1913.6069992190607536
    Two-Electron Energy =                 796.9132293170230241
    Total Energy =                       -477.5461114516390353
  Basis Set: (AUG-CC-PVTZ AUX)
    Blend: AUG-CC-PVTZ-RI
    Molecular point group: c1

    Geometry (in Angstrom), charge = 0, multiplicity = 1:

       Center              X                  Y                   Z               Mass
    ------------   -----------------  -----------------  -----------------  -----------------
         N           -1.755717531973     0.669764966900     0.205932869062    14.003074004430
         C           -0.861048531973    -0.338366033100    -0.108361130938    12.000000000000
         C            0.593280468027    -0.173424033100    -0.061290130938    12.000000000000
         C           -1.612115531973    -1.462028033100    -0.447051130938    12.000000000000
         C           -3.039046531973     0.200834966900     0.066432869062    12.000000000000
         C           -2.977622531973    -1.121267033100    -0.340946130938    12.000000000000
         C           -1.423850531973     2.004884966900     0.676536869062    12.000000000000
         C            1.239336468027     0.905509966900    -0.689610130938    12.000000000000
         C            1.376102468027    -1.141399033100     0.590914869062    12.000000000000
         C            2.628962468027     1.022355966900    -0.647284130938    12.000000000000
         C            2.766334468027    -1.033654033100     0.612841869062    12.000000000000
         C            3.397309468027     0.053114966900     0.002019869062    12.000000000000
         H           -1.203378731973    -2.391985633100    -0.760730130938     1.007825032230
         H           -3.884932531973     0.840964966900     0.281374869062     1.007825032230
         H           -3.827917531973    -1.760700033100    -0.540290130938     1.007825032230
         H           -2.223872531973     2.349216966900     1.334621869062     1.007825032230
         H           -0.489628531973     1.970308966900     1.237891869062     1.007825032230
         H           -1.316527531973     2.709382966900    -0.153433130938     1.007825032230
         H            0.651005468027     1.636231966900    -1.240555130938     1.007825032230
         H            0.878650468027    -1.971794033100     1.087310869062     1.007825032230
         H            3.114777468027     1.862211966900    -1.139146130938     1.007825032230
         H            3.358457468027    -1.791406033100     1.121103869062     1.007825032230
         H            4.480723468027     0.141921966900     0.027886869062     1.007825032230

  Basis Set: AUG-CC-PVTZ
    Blend: AUG-CC-PVTZ
  Basis Set: (AUG-CC-PVTZ AUX)
    Blend: AUG-CC-PVTZ-JKFIT
	 Reference Energy          =    -477.5461114516390921 [Eh]
	 Singles Energy            =      -0.0000000000000000 [Eh]
	 Same-Spin Energy          =      -0.5391365960440692 [Eh]
	 Opposite-Spin Energy      =      -1.6830738604397555 [Eh]
	 Correlation Energy        =      -2.2222104564838245 [Eh]
	 Total Energy              =    -479.7683219081229140 [Eh]

	 ================> DF-SCS-MP2 Energies <==================
	-----------------------------------------------------------
	 SCS Same-Spin Scale       =       0.3333333333333333 [-]
	 SCS Opposite-Spin Scale   =       1.2000000000000000 [-]
	 SCS Same-Spin Energy      =      -0.1797121986813564 [Eh]
	 SCS Opposite-Spin Energy  =      -2.0196886325277066 [Eh]
	 SCS Correlation Energy    =      -2.1994008312090632 [Eh]
	 SCS Total Energy          =    -479.7455122828481535 [Eh]
	-----------------------------------------------------------

  Dipole Moment: [D]
     X:     0.4731      Y:     1.8562      Z:     0.6758     Total:     2.0312

*** Psi4 exiting successfully. Buy a developer a beer!
