                               Psi4 1.3.2 release

  ==> Input File <==

--------------------------------------------------------------------------
#psi4
#
memory 32 gb

molecule  {
0 1
  N       -1.7714021     0.6336736     0.1939724
  C       -0.8584400    -0.3593730    -0.1157050
  C        0.5958890    -0.1944310    -0.0686340
  C       -1.6095070    -1.4830350    -0.4543950
  C       -3.0364380     0.1798280     0.0590890
  C       -2.9750140    -1.1422740    -0.3482900
  C       -1.4212420     1.9838780     0.6691930
  C        1.2419450     0.8845030    -0.6969540
  C        1.3787110    -1.1624060     0.5835710
  C        2.6315710     1.0013490    -0.6546280
  C        2.7689430    -1.0546610     0.6054980
  C        3.3999180     0.0321080    -0.0053240
  H       -1.1930810    -2.4304870    -0.7739750
  H       -3.8823240     0.8199580     0.2740310
  H       -3.8253090    -1.7817070    -0.5476340
  H       -2.2212640     2.3282100     1.3272780
  H       -0.4870200     1.9493020     1.2305480
  H       -1.3139190     2.6883760    -0.1607770
  H        0.6536140     1.6152250    -1.2478990
  H        0.8812590    -1.9928010     1.0799670
  H        3.1173860     1.8412050    -1.1464900
  H        3.3610660    -1.8124130     1.1137600
  H        4.4833320     0.1209150     0.0205430
units angstrom
no_reorient  #important for SAPT in psi4, default
symmetry c1  #important for SAPT in psi4, default
}

set PROPERTIES_ORIGIN ["COM"]
properties('MP2/aug-cc-pvtz', properties = ['dipole'])
--------------------------------------------------------------------------

    Molecular point group: c1
  Charge       = 0
  Multiplicity = 1
  Basis Set: AUG-CC-PVTZ
    Blend: AUG-CC-PVTZ
  Basis Set: (AUG-CC-PVTZ AUX)
    Blend: AUG-CC-PVTZ-JKFIT

    Orbital Energies [Eh]
    ---------------------

    Doubly Occupied:

       1A    -15.608510     2A    -11.272828     3A    -11.254383
       4A    -11.250488     5A    -11.247062     6A    -11.240623
       7A    -11.239456     8A    -11.239150     9A    -11.237824
      10A    -11.236944    11A    -11.207085    12A    -11.205444
      13A     -1.302413    14A     -1.155121    15A     -1.069959
      16A     -1.044472    17A     -1.016075    18A     -0.957654
      19A     -0.934067    20A     -0.833328    21A     -0.830516
      22A     -0.771600    23A     -0.742188    24A     -0.711823
      25A     -0.678590    26A     -0.639803    27A     -0.632605
      28A     -0.622188    29A     -0.596276    30A     -0.587125
      31A     -0.571717    32A     -0.563681    33A     -0.537885
      34A     -0.528003    35A     -0.526138    36A     -0.502805
      37A     -0.494820    38A     -0.492044    39A     -0.354596
      40A     -0.340100    41A     -0.334440    42A     -0.274762

  @DF-RHF Final Energy:  -477.54549468560322

   => Energetics <=

    Nuclear Repulsion Energy =            639.1125501946587519
    One-Electron Energy =               -1913.5429080672940927
    Two-Electron Energy =                 796.8848631870321242
    Total Energy =                       -477.5454946856032166
  Basis Set: (AUG-CC-PVTZ AUX)
    Blend: AUG-CC-PVTZ-RI
    Molecular point group: c1

    Geometry (in Angstrom), charge = 0, multiplicity = 1:

       Center              X                  Y                   Z               Mass
    ------------   -----------------  -----------------  -----------------  -----------------
         N           -1.772429298916     0.656137441959     0.201765655714    14.003074004430
         C           -0.859467198916    -0.336909158041    -0.107911744286    12.000000000000
         C            0.594861801084    -0.171967158041    -0.060840744286    12.000000000000
         C           -1.610534198916    -1.460571158041    -0.446601744286    12.000000000000
         C           -3.037465198916     0.202291841959     0.066882255714    12.000000000000
         C           -2.976041198916    -1.119810158041    -0.340496744286    12.000000000000
         C           -1.422269198916     2.006341841959     0.676986255714    12.000000000000
         C            1.240917801084     0.906966841959    -0.689160744286    12.000000000000
         C            1.377683801084    -1.139942158041     0.591364255714    12.000000000000
         C            2.630543801084     1.023812841959    -0.646834744286    12.000000000000
         C            2.767915801084    -1.032197158041     0.613291255714    12.000000000000
         C            3.398890801084     0.054571841959     0.002469255714    12.000000000000
         H           -1.194108198916    -2.408023158041    -0.766181744286     1.007825032230
         H           -3.883351198916     0.842421841959     0.281824255714     1.007825032230
         H           -3.826336198916    -1.759243158041    -0.539840744286     1.007825032230
         H           -2.222291198916     2.350673841959     1.335071255714     1.007825032230
         H           -0.488047198916     1.971765841959     1.238341255714     1.007825032230
         H           -1.314946198916     2.710839841959    -0.152983744286     1.007825032230
         H            0.652586801084     1.637688841959    -1.240105744286     1.007825032230
         H            0.880231801084    -1.970337158041     1.087760255714     1.007825032230
         H            3.116358801084     1.863668841959    -1.138696744286     1.007825032230
         H            3.360038801084    -1.789949158041     1.121553255714     1.007825032230
         H            4.482304801084     0.143378841959     0.028336255714     1.007825032230

  Basis Set: AUG-CC-PVTZ
    Blend: AUG-CC-PVTZ
  Basis Set: (AUG-CC-PVTZ AUX)
    Blend: AUG-CC-PVTZ-JKFIT
	 Reference Energy          =    -477.5454946856032166 [Eh]
	 Singles Energy            =      -0.0000000000000000 [Eh]
	 Same-Spin Energy          =      -0.5392044552763453 [Eh]
	 Opposite-Spin Energy      =      -1.6830365727836591 [Eh]
	 Correlation Energy        =      -2.2222410280600045 [Eh]
	 Total Energy              =    -479.7677357136632281 [Eh]

	 ================> DF-SCS-MP2 Energies <==================
	-----------------------------------------------------------
	 SCS Same-Spin Scale       =       0.3333333333333333 [-]
	 SCS Opposite-Spin Scale   =       1.2000000000000000 [-]
	 SCS Same-Spin Energy      =      -0.1797348184254484 [Eh]
	 SCS Opposite-Spin Energy  =      -2.0196438873403908 [Eh]
	 SCS Correlation Energy    =      -2.1993787057658394 [Eh]
	 SCS Total Energy          =    -479.7448733913690830 [Eh]
	-----------------------------------------------------------

  Dipole Moment: [D]
     X:     0.4930      Y:     1.9320      Z:     0.6988     Total:     2.1128

*** Psi4 exiting successfully. Buy a developer a beer!
