                               Psi4 1.3.2 release

  ==> Input File <==

--------------------------------------------------------------------------
#psi4
#
memory 32 gb

molecule  {
0 1
  N       -1.7531090     0.6487580     0.1985890
  C       -0.8584400    -0.3593730    -0.1157050
  C        0.5958890    -0.1944310    -0.0686340
  C       -1.6159437    -1.5057595    -0.4613910
  C       -3.0364380     0.1798280     0.0590890
  C       -2.9750140    -1.1422740    -0.3482900
  C       -1.4212420     1.9838780     0.6691930
  C        1.2419450     0.8845030    -0.6969540
  C        1.3787110    -1.1624060     0.5835710
  C        2.6315710     1.0013490    -0.6546280
  C        2.7689430    -1.0546610     0.6054980
  C        3.3999180     0.0321080    -0.0053240
  H       -1.1930810    -2.4304870    -0.7739750
  H       -3.8823240     0.8199580     0.2740310
  H       -3.8253090    -1.7817070    -0.5476340
  H       -2.2212640     2.3282100     1.3272780
  H       -0.4870200     1.9493020     1.2305480
  H       -1.3139190     2.6883760    -0.1607770
  H        0.6536140     1.6152250    -1.2478990
  H        0.8812590    -1.9928010     1.0799670
  H        3.1173860     1.8412050    -1.1464900
  H        3.3610660    -1.8124130     1.1137600
  H        4.4833320     0.1209150     0.0205430
units angstrom
no_reorient  #important for SAPT in psi4, default
symmetry c1  #important for SAPT in psi4, default
}

set PROPERTIES_ORIGIN ["COM"]
properties('MP2/aug-cc-pvtz', properties = ['dipole'])
--------------------------------------------------------------------------

    Molecular point group: c1
  Charge       = 0
  Multiplicity = 1
  Basis Set: AUG-CC-PVTZ
    Blend: AUG-CC-PVTZ
  Basis Set: (AUG-CC-PVTZ AUX)
    Blend: AUG-CC-PVTZ-JKFIT

    Orbital Energies [Eh]
    ---------------------

    Doubly Occupied:

       1A    -15.609522     2A    -11.271354     3A    -11.259397
       4A    -11.250192     5A    -11.248004     6A    -11.240732
       7A    -11.239569     8A    -11.239268     9A    -11.237942
      10A    -11.237033    11A    -11.209272    12A    -11.208001
      13A     -1.298300    14A     -1.155065    15A     -1.071885
      16A     -1.043745    17A     -1.016188    18A     -0.954334
      19A     -0.934736    20A     -0.833315    21A     -0.830562
      22A     -0.771352    23A     -0.743327    24A     -0.712652
      25A     -0.677763    26A     -0.640226    27A     -0.632374
      28A     -0.622685    29A     -0.597429    30A     -0.587251
      31A     -0.571289    32A     -0.567600    33A     -0.538653
      34A     -0.528769    35A     -0.523047    36A     -0.502244
      37A     -0.493741    38A     -0.491605    39A     -0.353366
      40A     -0.340381    41A     -0.335745    42A     -0.272827

  @DF-RHF Final Energy:  -477.54429068196248

   => Energetics <=

    Nuclear Repulsion Energy =            638.5312580763917367
    One-Electron Energy =               -1912.3656174032767012
    Two-Electron Energy =                 796.2900686449225987
    Total Energy =                       -477.5442906819624795
  Basis Set: (AUG-CC-PVTZ AUX)
    Blend: AUG-CC-PVTZ-RI
    Molecular point group: c1

    Geometry (in Angstrom), charge = 0, multiplicity = 1:

       Center              X                  Y                   Z               Mass
    ------------   -----------------  -----------------  -----------------  -----------------
         N           -1.755275165125     0.671613123157     0.206505150317    14.003074004430
         C           -0.860606165125    -0.336517876843    -0.107788849683    12.000000000000
         C            0.593722834875    -0.171575876843    -0.060717849683    12.000000000000
         C           -1.618109865125    -1.482904376843    -0.453474849683    12.000000000000
         C           -3.038604165125     0.202683123157     0.067005150317    12.000000000000
         C           -2.977180165125    -1.119418876843    -0.340373849683    12.000000000000
         C           -1.423408165125     2.006733123157     0.677109150317    12.000000000000
         C            1.239778834875     0.907358123157    -0.689037849683    12.000000000000
         C            1.376544834875    -1.139550876843     0.591487150317    12.000000000000
         C            2.629404834875     1.024204123157    -0.646711849683    12.000000000000
         C            2.766776834875    -1.031805876843     0.613414150317    12.000000000000
         C            3.397751834875     0.054963123157     0.002592150317    12.000000000000
         H           -1.195247165125    -2.407631876843    -0.766058849683     1.007825032230
         H           -3.884490165125     0.842813123157     0.281947150317     1.007825032230
         H           -3.827475165125    -1.758851876843    -0.539717849683     1.007825032230
         H           -2.223430165125     2.351065123157     1.335194150317     1.007825032230
         H           -0.489186165125     1.972157123157     1.238464150317     1.007825032230
         H           -1.316085165125     2.711231123157    -0.152860849683     1.007825032230
         H            0.651447834875     1.638080123157    -1.239982849683     1.007825032230
         H            0.879092834875    -1.969945876843     1.087883150317     1.007825032230
         H            3.115219834875     1.864060123157    -1.138573849683     1.007825032230
         H            3.358899834875    -1.789557876843     1.121676150317     1.007825032230
         H            4.481165834875     0.143770123157     0.028459150317     1.007825032230

  Basis Set: AUG-CC-PVTZ
    Blend: AUG-CC-PVTZ
  Basis Set: (AUG-CC-PVTZ AUX)
    Blend: AUG-CC-PVTZ-JKFIT
	 Reference Energy          =    -477.5442906819624795 [Eh]
	 Singles Energy            =      -0.0000000000000000 [Eh]
	 Same-Spin Energy          =      -0.5394813411460702 [Eh]
	 Opposite-Spin Energy      =      -1.6837459112906072 [Eh]
	 Correlation Energy        =      -2.2232272524366774 [Eh]
	 Total Energy              =    -479.7675179343991658 [Eh]

	 ================> DF-SCS-MP2 Energies <==================
	-----------------------------------------------------------
	 SCS Same-Spin Scale       =       0.3333333333333333 [-]
	 SCS Opposite-Spin Scale   =       1.2000000000000000 [-]
	 SCS Same-Spin Energy      =      -0.1798271137153567 [Eh]
	 SCS Opposite-Spin Energy  =      -2.0204950935487287 [Eh]
	 SCS Correlation Energy    =      -2.2003222072640853 [Eh]
	 SCS Total Energy          =    -479.7446128892265733 [Eh]
	-----------------------------------------------------------

  Dipole Moment: [D]
     X:     0.4555      Y:     1.8774      Z:     0.6810     Total:     2.0484

*** Psi4 exiting successfully. Buy a developer a beer!
