                               Psi4 1.3.2 release

  ==> Input File <==

--------------------------------------------------------------------------
#psi4
#
memory 32 gb

molecule  {
0 1
  N       -1.7531090     0.6487580     0.1985890
  C       -0.9421352    -0.3120156    -0.1011850
  C        0.5958890    -0.1944310    -0.0686340
  C       -1.6095070    -1.4830350    -0.4543950
  C       -3.0364380     0.1798280     0.0590890
  C       -2.9750140    -1.1422740    -0.3482900
  C       -1.4212420     1.9838780     0.6691930
  C        1.2419450     0.8845030    -0.6969540
  C        1.3787110    -1.1624060     0.5835710
  C        2.6315710     1.0013490    -0.6546280
  C        2.7689430    -1.0546610     0.6054980
  C        3.3999180     0.0321080    -0.0053240
  H       -1.1930810    -2.4304870    -0.7739750
  H       -3.8823240     0.8199580     0.2740310
  H       -3.8253090    -1.7817070    -0.5476340
  H       -2.2212640     2.3282100     1.3272780
  H       -0.4870200     1.9493020     1.2305480
  H       -1.3139190     2.6883760    -0.1607770
  H        0.6536140     1.6152250    -1.2478990
  H        0.8812590    -1.9928010     1.0799670
  H        3.1173860     1.8412050    -1.1464900
  H        3.3610660    -1.8124130     1.1137600
  H        4.4833320     0.1209150     0.0205430
units angstrom
no_reorient  #important for SAPT in psi4, default
symmetry c1  #important for SAPT in psi4, default
}

set PROPERTIES_ORIGIN ["COM"]
properties('MP2/aug-cc-pvtz', properties = ['dipole'])
--------------------------------------------------------------------------

    Molecular point group: c1
  Charge       = 0
  Multiplicity = 1
  Basis Set: AUG-CC-PVTZ
    Blend: AUG-CC-PVTZ
  Basis Set: (AUG-CC-PVTZ AUX)
    Blend: AUG-CC-PVTZ-JKFIT

    Orbital Energies [Eh]
    ---------------------

    Doubly Occupied:

       1A    -15.611604     2A    -11.276356     3A    -11.256679
       4A    -11.254099     5A    -11.240444     6A    -11.240168
       7A    -11.239376     8A    -11.238522     9A    -11.237493
      10A    -11.237013    11A    -11.209104    12A    -11.200067
      13A     -1.327618    14A     -1.152449    15A     -1.077550
      16A     -1.035904    17A     -1.015604    18A     -0.962673
      19A     -0.940910    20A     -0.829301    21A     -0.826178
      22A     -0.779614    23A     -0.738875    24A     -0.716532
      25A     -0.677038    26A     -0.647946    27A     -0.630878
      28A     -0.622227    29A     -0.597808    30A     -0.587852
      31A     -0.584158    32A     -0.561701    33A     -0.536389
      34A     -0.533321    35A     -0.527993    36A     -0.502639
      37A     -0.492524    38A     -0.481502    39A     -0.348406
      40A     -0.341478    41A     -0.338351    42A     -0.276061

  @DF-RHF Final Energy:  -477.53771370427535

   => Energetics <=

    Nuclear Repulsion Energy =            639.6264432816527687
    One-Electron Energy =               -1914.4634988409186462
    Two-Electron Energy =                 797.2993418549906437
    Total Energy =                       -477.5377137042753475
  Basis Set: (AUG-CC-PVTZ AUX)
    Blend: AUG-CC-PVTZ-RI
    Molecular point group: c1

    Geometry (in Angstrom), charge = 0, multiplicity = 1:

       Center              X                  Y                   Z               Mass
    ------------   -----------------  -----------------  -----------------  -----------------
         N           -1.749373408042     0.666259584714     0.204861548572    14.003074004430
         C           -0.938399608042    -0.294514015286    -0.094912451428    12.000000000000
         C            0.599624591958    -0.176929415286    -0.062361451428    12.000000000000
         C           -1.605771408042    -1.465533415286    -0.448122451428    12.000000000000
         C           -3.032702408042     0.197329584714     0.065361548572    12.000000000000
         C           -2.971278408042    -1.124772415286    -0.342017451428    12.000000000000
         C           -1.417506408042     2.001379584714     0.675465548572    12.000000000000
         C            1.245680591958     0.902004584714    -0.690681451428    12.000000000000
         C            1.382446591958    -1.144904415286     0.589843548572    12.000000000000
         C            2.635306591958     1.018850584714    -0.648355451428    12.000000000000
         C            2.772678591958    -1.037159415286     0.611770548572    12.000000000000
         C            3.403653591958     0.049609584714     0.000948548572    12.000000000000
         H           -1.189345408042    -2.412985415286    -0.767702451428     1.007825032230
         H           -3.878588408042     0.837459584714     0.280303548572     1.007825032230
         H           -3.821573408042    -1.764205415286    -0.541361451428     1.007825032230
         H           -2.217528408042     2.345711584714     1.333550548572     1.007825032230
         H           -0.483284408042     1.966803584714     1.236820548572     1.007825032230
         H           -1.310183408042     2.705877584714    -0.154504451428     1.007825032230
         H            0.657349591958     1.632726584714    -1.241626451428     1.007825032230
         H            0.884994591958    -1.975299415286     1.086239548572     1.007825032230
         H            3.121121591958     1.858706584714    -1.140217451428     1.007825032230
         H            3.364801591958    -1.794911415286     1.120032548572     1.007825032230
         H            4.487067591958     0.138416584714     0.026815548572     1.007825032230

  Basis Set: AUG-CC-PVTZ
    Blend: AUG-CC-PVTZ
  Basis Set: (AUG-CC-PVTZ AUX)
    Blend: AUG-CC-PVTZ-JKFIT
	 Reference Energy          =    -477.5377137042753475 [Eh]
	 Singles Energy            =      -0.0000000000000000 [Eh]
	 Same-Spin Energy          =      -0.5382030678216386 [Eh]
	 Opposite-Spin Energy      =      -1.6810941578024272 [Eh]
	 Correlation Energy        =      -2.2192972256240657 [Eh]
	 Total Energy              =    -479.7570109298994225 [Eh]

	 ================> DF-SCS-MP2 Energies <==================
	-----------------------------------------------------------
	 SCS Same-Spin Scale       =       0.3333333333333333 [-]
	 SCS Opposite-Spin Scale   =       1.2000000000000000 [-]
	 SCS Same-Spin Energy      =      -0.1794010226072129 [Eh]
	 SCS Opposite-Spin Energy  =      -2.0173129893629125 [Eh]
	 SCS Correlation Energy    =      -2.1967140119701254 [Eh]
	 SCS Total Energy          =    -479.7344277162454773 [Eh]
	-----------------------------------------------------------

  Dipole Moment: [D]
     X:     0.4731      Y:     1.9923      Z:     0.7328     Total:     2.1749

*** Psi4 exiting successfully. Buy a developer a beer!
