                               Psi4 1.3.2 release

  ==> Input File <==

--------------------------------------------------------------------------
#psi4
#
memory 32 gb

molecule  {
0 1
  N       -1.7531090     0.6487580     0.1985890
  C       -0.8584400    -0.3593730    -0.1157050
  C        0.5958890    -0.1944310    -0.0686340
  C       -1.6159437    -1.5057350    -0.4614701
  C       -3.0364380     0.1798280     0.0590890
  C       -2.9750140    -1.1422740    -0.3482900
  C       -1.4212420     1.9838780     0.6691930
  C        1.2419450     0.8845030    -0.6969540
  C        1.3787110    -1.1624060     0.5835710
  C        2.6315710     1.0013490    -0.6546280
  C        2.7689430    -1.0546610     0.6054980
  C        3.3999180     0.0321080    -0.0053240
  H       -1.1930810    -2.4304870    -0.7739750
  H       -3.8823240     0.8199580     0.2740310
  H       -3.8253090    -1.7817070    -0.5476340
  H       -2.2212640     2.3282100     1.3272780
  H       -0.4870200     1.9493020     1.2305480
  H       -1.3139190     2.6883760    -0.1607770
  H        0.6536140     1.6152250    -1.2478990
  H        0.8812590    -1.9928010     1.0799670
  H        3.1173860     1.8412050    -1.1464900
  H        3.3610660    -1.8124130     1.1137600
  H        4.4833320     0.1209150     0.0205430
units angstrom
no_reorient  #important for SAPT in psi4, default
symmetry c1  #important for SAPT in psi4, default
}

set PROPERTIES_ORIGIN ["COM"]
properties('MP2/aug-cc-pvtz', properties = ['dipole'])
--------------------------------------------------------------------------

    Molecular point group: c1
  Charge       = 0
  Multiplicity = 1
  Basis Set: AUG-CC-PVTZ
    Blend: AUG-CC-PVTZ
  Basis Set: (AUG-CC-PVTZ AUX)
    Blend: AUG-CC-PVTZ-JKFIT

    Orbital Energies [Eh]
    ---------------------

    Doubly Occupied:

       1A    -15.609521     2A    -11.271354     3A    -11.259396
       4A    -11.250192     5A    -11.248004     6A    -11.240732
       7A    -11.239569     8A    -11.239268     9A    -11.237942
      10A    -11.237034    11A    -11.209272    12A    -11.208001
      13A     -1.298300    14A     -1.155065    15A     -1.071885
      16A     -1.043745    17A     -1.016188    18A     -0.954334
      19A     -0.934736    20A     -0.833315    21A     -0.830562
      22A     -0.771352    23A     -0.743327    24A     -0.712652
      25A     -0.677763    26A     -0.640226    27A     -0.632374
      28A     -0.622685    29A     -0.597430    30A     -0.587251
      31A     -0.571289    32A     -0.567601    33A     -0.538652
      34A     -0.528769    35A     -0.523047    36A     -0.502244
      37A     -0.493741    38A     -0.491605    39A     -0.353365
      40A     -0.340381    41A     -0.335744    42A     -0.272828

  @DF-RHF Final Energy:  -477.54429075330756

   => Energetics <=

    Nuclear Repulsion Energy =            638.5312404407554823
    One-Electron Energy =               -1912.3655838846375445
    Two-Electron Energy =                 796.2900526905744982
    Total Energy =                       -477.5442907533075640
  Basis Set: (AUG-CC-PVTZ AUX)
    Blend: AUG-CC-PVTZ-RI
    Molecular point group: c1

    Geometry (in Angstrom), charge = 0, multiplicity = 1:

       Center              X                  Y                   Z               Mass
    ------------   -----------------  -----------------  -----------------  -----------------
         N           -1.755275165125     0.671611251608     0.206511192745    14.003074004430
         C           -0.860606165125    -0.336519748392    -0.107782807255    12.000000000000
         C            0.593722834875    -0.171577748392    -0.060711807255    12.000000000000
         C           -1.618109865125    -1.482881748392    -0.453547907255    12.000000000000
         C           -3.038604165125     0.202681251608     0.067011192745    12.000000000000
         C           -2.977180165125    -1.119420748392    -0.340367807255    12.000000000000
         C           -1.423408165125     2.006731251608     0.677115192745    12.000000000000
         C            1.239778834875     0.907356251608    -0.689031807255    12.000000000000
         C            1.376544834875    -1.139552748392     0.591493192745    12.000000000000
         C            2.629404834875     1.024202251608    -0.646705807255    12.000000000000
         C            2.766776834875    -1.031807748392     0.613420192745    12.000000000000
         C            3.397751834875     0.054961251608     0.002598192745    12.000000000000
         H           -1.195247165125    -2.407633748392    -0.766052807255     1.007825032230
         H           -3.884490165125     0.842811251608     0.281953192745     1.007825032230
         H           -3.827475165125    -1.758853748392    -0.539711807255     1.007825032230
         H           -2.223430165125     2.351063251608     1.335200192745     1.007825032230
         H           -0.489186165125     1.972155251608     1.238470192745     1.007825032230
         H           -1.316085165125     2.711229251608    -0.152854807255     1.007825032230
         H            0.651447834875     1.638078251608    -1.239976807255     1.007825032230
         H            0.879092834875    -1.969947748392     1.087889192745     1.007825032230
         H            3.115219834875     1.864058251608    -1.138567807255     1.007825032230
         H            3.358899834875    -1.789559748392     1.121682192745     1.007825032230
         H            4.481165834875     0.143768251608     0.028465192745     1.007825032230

  Basis Set: AUG-CC-PVTZ
    Blend: AUG-CC-PVTZ
  Basis Set: (AUG-CC-PVTZ AUX)
    Blend: AUG-CC-PVTZ-JKFIT
	 Reference Energy          =    -477.5442907533075640 [Eh]
	 Singles Energy            =      -0.0000000000000000 [Eh]
	 Same-Spin Energy          =      -0.5394812661315911 [Eh]
	 Opposite-Spin Energy      =      -1.6837458550607503 [Eh]
	 Correlation Energy        =      -2.2232271211923411 [Eh]
	 Total Energy              =    -479.7675178744999016 [Eh]

	 ================> DF-SCS-MP2 Energies <==================
	-----------------------------------------------------------
	 SCS Same-Spin Scale       =       0.3333333333333333 [-]
	 SCS Opposite-Spin Scale   =       1.2000000000000000 [-]
	 SCS Same-Spin Energy      =      -0.1798270887105304 [Eh]
	 SCS Opposite-Spin Energy  =      -2.0204950260729002 [Eh]
	 SCS Correlation Energy    =      -2.2003221147834306 [Eh]
	 SCS Total Energy          =    -479.7446128680909965 [Eh]
	-----------------------------------------------------------

  Dipole Moment: [D]
     X:     0.4556      Y:     1.8774      Z:     0.6811     Total:     2.0484

*** Psi4 exiting successfully. Buy a developer a beer!
