                               Psi4 1.3.2 release

  ==> Input File <==

--------------------------------------------------------------------------
#psi4
#
memory 32 gb

molecule  {
0 1
  N       -1.8245890     0.5864843     0.1800171
  C       -0.8584400    -0.3593730    -0.1157050
  C        0.5958890    -0.1944310    -0.0686340
  C       -1.6095070    -1.4830350    -0.4543950
  C       -3.0364380     0.1798280     0.0590890
  C       -2.9750140    -1.1422740    -0.3482900
  C       -1.4212420     1.9838780     0.6691930
  C        1.2419450     0.8845030    -0.6969540
  C        1.3787110    -1.1624060     0.5835710
  C        2.6315710     1.0013490    -0.6546280
  C        2.7689430    -1.0546610     0.6054980
  C        3.3999180     0.0321080    -0.0053240
  H       -1.1930810    -2.4304870    -0.7739750
  H       -3.8823240     0.8199580     0.2740310
  H       -3.8253090    -1.7817070    -0.5476340
  H       -2.2212640     2.3282100     1.3272780
  H       -0.4870200     1.9493020     1.2305480
  H       -1.3139190     2.6883760    -0.1607770
  H        0.6536140     1.6152250    -1.2478990
  H        0.8812590    -1.9928010     1.0799670
  H        3.1173860     1.8412050    -1.1464900
  H        3.3610660    -1.8124130     1.1137600
  H        4.4833320     0.1209150     0.0205430
units angstrom
no_reorient  #important for SAPT in psi4, default
symmetry c1  #important for SAPT in psi4, default
}

set PROPERTIES_ORIGIN ["COM"]
properties('MP2/aug-cc-pvtz', properties = ['dipole'])
--------------------------------------------------------------------------

    Molecular point group: c1
  Charge       = 0
  Multiplicity = 1
  Basis Set: AUG-CC-PVTZ
    Blend: AUG-CC-PVTZ
  Basis Set: (AUG-CC-PVTZ AUX)
    Blend: AUG-CC-PVTZ-JKFIT

    Orbital Energies [Eh]
    ---------------------

    Doubly Occupied:

       1A    -15.611049     2A    -11.279225     3A    -11.251589
       4A    -11.248296     5A    -11.242474     6A    -11.240309
       7A    -11.239149     8A    -11.238699     9A    -11.237371
      10A    -11.236563    11A    -11.205901    12A    -11.198323
      13A     -1.316571    14A     -1.155283    15A     -1.060996
      16A     -1.045724    17A     -1.015702    18A     -0.964957
      19A     -0.934387    20A     -0.833619    21A     -0.830129
      22A     -0.774340    23A     -0.739835    24A     -0.709873
      25A     -0.681255    26A     -0.640191    27A     -0.634984
      28A     -0.621568    29A     -0.595213    30A     -0.587207
      31A     -0.581931    32A     -0.547283    33A     -0.539534
      34A     -0.530093    35A     -0.528068    36A     -0.503846
      37A     -0.494985    38A     -0.491174    39A     -0.356904
      40A     -0.339703    41A     -0.331668    42A     -0.273082

  @DF-RHF Final Energy:  -477.53333126003588

   => Energetics <=

    Nuclear Repulsion Energy =            639.4155917662037609
    One-Electron Energy =               -1914.1197483054074837
    Two-Electron Energy =                 797.1708252791678433
    Total Energy =                       -477.5333312600358795
  Basis Set: (AUG-CC-PVTZ AUX)
    Blend: AUG-CC-PVTZ-RI
    Molecular point group: c1

    Geometry (in Angstrom), charge = 0, multiplicity = 1:

       Center              X                  Y                   Z               Mass
    ------------   -----------------  -----------------  -----------------  -----------------
         N           -1.820875068800     0.613154640389     0.189054344236    14.003074004430
         C           -0.854726068800    -0.332702659611    -0.106667755764    12.000000000000
         C            0.599602931200    -0.167760659611    -0.059596755764    12.000000000000
         C           -1.605793068800    -1.456364659611    -0.445357755764    12.000000000000
         C           -3.032724068800     0.206498340389     0.068126244236    12.000000000000
         C           -2.971300068800    -1.115603659611    -0.339252755764    12.000000000000
         C           -1.417528068800     2.010548340389     0.678230244236    12.000000000000
         C            1.245658931200     0.911173340389    -0.687916755764    12.000000000000
         C            1.382424931200    -1.135735659611     0.592608244236    12.000000000000
         C            2.635284931200     1.028019340389    -0.645590755764    12.000000000000
         C            2.772656931200    -1.027990659611     0.614535244236    12.000000000000
         C            3.403631931200     0.058778340389     0.003713244236    12.000000000000
         H           -1.189367068800    -2.403816659611    -0.764937755764     1.007825032230
         H           -3.878610068800     0.846628340389     0.283068244236     1.007825032230
         H           -3.821595068800    -1.755036659611    -0.538596755764     1.007825032230
         H           -2.217550068800     2.354880340389     1.336315244236     1.007825032230
         H           -0.483306068800     1.975972340389     1.239585244236     1.007825032230
         H           -1.310205068800     2.715046340389    -0.151739755764     1.007825032230
         H            0.657327931200     1.641895340389    -1.238861755764     1.007825032230
         H            0.884972931200    -1.966130659611     1.089004244236     1.007825032230
         H            3.121099931200     1.867875340389    -1.137452755764     1.007825032230
         H            3.364779931200    -1.785742659611     1.122797244236     1.007825032230
         H            4.487045931200     0.147585340389     0.029580244236     1.007825032230

  Basis Set: AUG-CC-PVTZ
    Blend: AUG-CC-PVTZ
  Basis Set: (AUG-CC-PVTZ AUX)
    Blend: AUG-CC-PVTZ-JKFIT
	 Reference Energy          =    -477.5333312600358795 [Eh]
	 Singles Energy            =      -0.0000000000000000 [Eh]
	 Same-Spin Energy          =      -0.5395254033075689 [Eh]
	 Opposite-Spin Energy      =      -1.6830165506248624 [Eh]
	 Correlation Energy        =      -2.2225419539324314 [Eh]
	 Total Energy              =    -479.7558732139683002 [Eh]

	 ================> DF-SCS-MP2 Energies <==================
	-----------------------------------------------------------
	 SCS Same-Spin Scale       =       0.3333333333333333 [-]
	 SCS Opposite-Spin Scale   =       1.2000000000000000 [-]
	 SCS Same-Spin Energy      =      -0.1798418011025230 [Eh]
	 SCS Opposite-Spin Energy  =      -2.0196198607498350 [Eh]
	 SCS Correlation Energy    =      -2.1994616618523581 [Eh]
	 SCS Total Energy          =    -479.7327929218882332 [Eh]
	-----------------------------------------------------------

  Dipole Moment: [D]
     X:     0.5477      Y:     2.1502      Z:     0.7647     Total:     2.3469

*** Psi4 exiting successfully. Buy a developer a beer!
