                               Psi4 1.3.2 release

  ==> Input File <==

--------------------------------------------------------------------------
#psi4
#
memory 32 gb

molecule  {
0 1
  N       -1.7531090     0.6487580     0.1985890
  C       -0.8221679    -0.3296182    -0.1041819
  C        0.5958890    -0.1944310    -0.0686340
  C       -1.6095070    -1.4830350    -0.4543950
  C       -3.0364380     0.1798280     0.0590890
  C       -2.9750140    -1.1422740    -0.3482900
  C       -1.4212420     1.9838780     0.6691930
  C        1.2419450     0.8845030    -0.6969540
  C        1.3787110    -1.1624060     0.5835710
  C        2.6315710     1.0013490    -0.6546280
  C        2.7689430    -1.0546610     0.6054980
  C        3.3999180     0.0321080    -0.0053240
  H       -1.1930810    -2.4304870    -0.7739750
  H       -3.8823240     0.8199580     0.2740310
  H       -3.8253090    -1.7817070    -0.5476340
  H       -2.2212640     2.3282100     1.3272780
  H       -0.4870200     1.9493020     1.2305480
  H       -1.3139190     2.6883760    -0.1607770
  H        0.6536140     1.6152250    -1.2478990
  H        0.8812590    -1.9928010     1.0799670
  H        3.1173860     1.8412050    -1.1464900
  H        3.3610660    -1.8124130     1.1137600
  H        4.4833320     0.1209150     0.0205430
units angstrom
no_reorient  #important for SAPT in psi4, default
symmetry c1  #important for SAPT in psi4, default
}

set PROPERTIES_ORIGIN ["COM"]
properties('MP2/aug-cc-pvtz', properties = ['dipole'])
--------------------------------------------------------------------------

    Molecular point group: c1
  Charge       = 0
  Multiplicity = 1
  Basis Set: AUG-CC-PVTZ
    Blend: AUG-CC-PVTZ
  Basis Set: (AUG-CC-PVTZ AUX)
    Blend: AUG-CC-PVTZ-JKFIT

    Orbital Energies [Eh]
    ---------------------

    Doubly Occupied:

       1A    -15.611144     2A    -11.270137     3A    -11.258390
       4A    -11.249028     5A    -11.248134     6A    -11.240772
       7A    -11.239777     8A    -11.239329     9A    -11.238174
      10A    -11.237507    11A    -11.211907    12A    -11.209416
      13A     -1.298337    14A     -1.156843    15A     -1.069185
      16A     -1.049292    17A     -1.016520    18A     -0.954593
      19A     -0.931855    20A     -0.837651    21A     -0.831550
      22A     -0.768641    23A     -0.744977    24A     -0.711401
      25A     -0.678488    26A     -0.640982    27A     -0.634541
      28A     -0.623114    29A     -0.598159    30A     -0.587564
      31A     -0.572623    32A     -0.564791    33A     -0.537680
      34A     -0.524825    35A     -0.522283    36A     -0.505290
      37A     -0.494459    38A     -0.490827    39A     -0.355168
      40A     -0.340577    41A     -0.334914    42A     -0.269262

  @DF-RHF Final Energy:  -477.53973701269911

   => Energetics <=

    Nuclear Repulsion Energy =            639.1371583889897465
    One-Electron Energy =               -1913.5535778715927790
    Two-Electron Energy =                 796.8766824699039262
    Total Energy =                       -477.5397370126991063
  Basis Set: (AUG-CC-PVTZ AUX)
    Blend: AUG-CC-PVTZ-RI
    Molecular point group: c1

    Geometry (in Angstrom), charge = 0, multiplicity = 1:

       Center              X                  Y                   Z               Mass
    ------------   -----------------  -----------------  -----------------  -----------------
         N           -1.758537679450     0.667604242833     0.205090480997    14.003074004430
         C           -0.827596579450    -0.310771957167    -0.097680419003    12.000000000000
         C            0.590460320550    -0.175584757167    -0.062132519003    12.000000000000
         C           -1.614935679450    -1.464188757167    -0.447893519003    12.000000000000
         C           -3.041866679450     0.198674242833     0.065590480997    12.000000000000
         C           -2.980442679450    -1.123427757167    -0.341788519003    12.000000000000
         C           -1.426670679450     2.002724242833     0.675694480997    12.000000000000
         C            1.236516320550     0.903349242833    -0.690452519003    12.000000000000
         C            1.373282320550    -1.143559757167     0.590072480997    12.000000000000
         C            2.626142320550     1.020195242833    -0.648126519003    12.000000000000
         C            2.763514320550    -1.035814757167     0.611999480997    12.000000000000
         C            3.394489320550     0.050954242833     0.001177480997    12.000000000000
         H           -1.198509679450    -2.411640757167    -0.767473519003     1.007825032230
         H           -3.887752679450     0.838804242833     0.280532480997     1.007825032230
         H           -3.830737679450    -1.762860757167    -0.541132519003     1.007825032230
         H           -2.226692679450     2.347056242833     1.333779480997     1.007825032230
         H           -0.492448679450     1.968148242833     1.237049480997     1.007825032230
         H           -1.319347679450     2.707222242833    -0.154275519003     1.007825032230
         H            0.648185320550     1.634071242833    -1.241397519003     1.007825032230
         H            0.875830320550    -1.973954757167     1.086468480997     1.007825032230
         H            3.111957320550     1.860051242833    -1.139988519003     1.007825032230
         H            3.355637320550    -1.793566757167     1.120261480997     1.007825032230
         H            4.477903320550     0.139761242833     0.027044480997     1.007825032230

  Basis Set: AUG-CC-PVTZ
    Blend: AUG-CC-PVTZ
  Basis Set: (AUG-CC-PVTZ AUX)
    Blend: AUG-CC-PVTZ-JKFIT
	 Reference Energy          =    -477.5397370126991063 [Eh]
	 Singles Energy            =      -0.0000000000000000 [Eh]
	 Same-Spin Energy          =      -0.5405815298989642 [Eh]
	 Opposite-Spin Energy      =      -1.6852017928893654 [Eh]
	 Correlation Energy        =      -2.2257833227883297 [Eh]
	 Total Energy              =    -479.7655203354874516 [Eh]

	 ================> DF-SCS-MP2 Energies <==================
	-----------------------------------------------------------
	 SCS Same-Spin Scale       =       0.3333333333333333 [-]
	 SCS Opposite-Spin Scale   =       1.2000000000000000 [-]
	 SCS Same-Spin Energy      =      -0.1801938432996547 [Eh]
	 SCS Opposite-Spin Energy  =      -2.0222421514672386 [Eh]
	 SCS Correlation Energy    =      -2.2024359947668932 [Eh]
	 SCS Total Energy          =    -479.7421730074660218 [Eh]
	-----------------------------------------------------------

  Dipole Moment: [D]
     X:     0.4083      Y:     1.8813      Z:     0.6836     Total:     2.0429

*** Psi4 exiting successfully. Buy a developer a beer!
