                               Psi4 1.3.2 release

  ==> Input File <==

--------------------------------------------------------------------------
#psi4
#
memory 32 gb

molecule  {
0 1
  N       -1.6378310     0.7328712     0.2235495
  C       -0.8584400    -0.3593730    -0.1157050
  C        0.5958890    -0.1944310    -0.0686340
  C       -1.6095070    -1.4830350    -0.4543950
  C       -3.0364380     0.1798280     0.0590890
  C       -2.9750140    -1.1422740    -0.3482900
  C       -1.4212420     1.9838780     0.6691930
  C        1.2419450     0.8845030    -0.6969540
  C        1.3787110    -1.1624060     0.5835710
  C        2.6315710     1.0013490    -0.6546280
  C        2.7689430    -1.0546610     0.6054980
  C        3.3999180     0.0321080    -0.0053240
  H       -1.1930810    -2.4304870    -0.7739750
  H       -3.8823240     0.8199580     0.2740310
  H       -3.8253090    -1.7817070    -0.5476340
  H       -2.2212640     2.3282100     1.3272780
  H       -0.4870200     1.9493020     1.2305480
  H       -1.3139190     2.6883760    -0.1607770
  H        0.6536140     1.6152250    -1.2478990
  H        0.8812590    -1.9928010     1.0799670
  H        3.1173860     1.8412050    -1.1464900
  H        3.3610660    -1.8124130     1.1137600
  H        4.4833320     0.1209150     0.0205430
units angstrom
no_reorient  #important for SAPT in psi4, default
symmetry c1  #important for SAPT in psi4, default
}

set PROPERTIES_ORIGIN ["COM"]
properties('MP2/aug-cc-pvtz', properties = ['dipole'])
--------------------------------------------------------------------------

    Molecular point group: c1
  Charge       = 0
  Multiplicity = 1
  Basis Set: AUG-CC-PVTZ
    Blend: AUG-CC-PVTZ
  Basis Set: (AUG-CC-PVTZ AUX)
    Blend: AUG-CC-PVTZ-JKFIT

    Orbital Energies [Eh]
    ---------------------

    Doubly Occupied:

       1A    -15.601989     2A    -11.269892     3A    -11.258722
       4A    -11.256627     5A    -11.248250     6A    -11.241145
       7A    -11.240082     8A    -11.239578     9A    -11.238446
      10A    -11.237400    11A    -11.222320    12A    -11.209681
      13A     -1.289595    14A     -1.155097    15A     -1.093823
      16A     -1.041840    17A     -1.016600    18A     -0.954948
      19A     -0.923290    20A     -0.833493    21A     -0.830749
      22A     -0.768067    23A     -0.747678    24A     -0.713513
      25A     -0.675177    26A     -0.644245    27A     -0.631634
      28A     -0.624816    29A     -0.605293    30A     -0.597192
      31A     -0.587440    32A     -0.557756    33A     -0.536755
      34A     -0.516978    35A     -0.513145    36A     -0.497212
      37A     -0.490668    38A     -0.483621    39A     -0.353021
      40A     -0.341630    41A     -0.337726    42A     -0.275769

  @DF-RHF Final Energy:  -477.51630123174516

   => Energetics <=

    Nuclear Repulsion Energy =            638.9480427475893975
    One-Electron Energy =               -1913.1228840141261571
    Two-Electron Energy =                 796.6585400347915993
    Total Energy =                       -477.5163012317451603
  Basis Set: (AUG-CC-PVTZ AUX)
    Blend: AUG-CC-PVTZ-RI
    Molecular point group: c1

    Geometry (in Angstrom), charge = 0, multiplicity = 1:

       Center              X                  Y                   Z               Mass
    ------------   -----------------  -----------------  -----------------  -----------------
         N           -1.650764851958     0.746492474923     0.228706225299    14.003074004430
         C           -0.871373851958    -0.345751725077    -0.110548274701    12.000000000000
         C            0.582955148042    -0.180809725077    -0.063477274701    12.000000000000
         C           -1.622440851958    -1.469413725077    -0.449238274701    12.000000000000
         C           -3.049371851958     0.193449274923     0.064245725299    12.000000000000
         C           -2.987947851958    -1.128652725077    -0.343133274701    12.000000000000
         C           -1.434175851958     1.997499274923     0.674349725299    12.000000000000
         C            1.229011148042     0.898124274923    -0.691797274701    12.000000000000
         C            1.365777148042    -1.148784725077     0.588727725299    12.000000000000
         C            2.618637148042     1.014970274923    -0.649471274701    12.000000000000
         C            2.756009148042    -1.041039725077     0.610654725299    12.000000000000
         C            3.386984148042     0.045729274923    -0.000167274701    12.000000000000
         H           -1.206014851958    -2.416865725077    -0.768818274701     1.007825032230
         H           -3.895257851958     0.833579274923     0.279187725299     1.007825032230
         H           -3.838242851958    -1.768085725077    -0.542477274701     1.007825032230
         H           -2.234197851958     2.341831274923     1.332434725299     1.007825032230
         H           -0.499953851958     1.962923274923     1.235704725299     1.007825032230
         H           -1.326852851958     2.701997274923    -0.155620274701     1.007825032230
         H            0.640680148042     1.628846274923    -1.242742274701     1.007825032230
         H            0.868325148042    -1.979179725077     1.085123725299     1.007825032230
         H            3.104452148042     1.854826274923    -1.141333274701     1.007825032230
         H            3.348132148042    -1.798791725077     1.118916725299     1.007825032230
         H            4.470398148042     0.134536274923     0.025699725299     1.007825032230

  Basis Set: AUG-CC-PVTZ
    Blend: AUG-CC-PVTZ
  Basis Set: (AUG-CC-PVTZ AUX)
    Blend: AUG-CC-PVTZ-JKFIT
	 Reference Energy          =    -477.5163012317451603 [Eh]
	 Singles Energy            =      -0.0000000000000000 [Eh]
	 Same-Spin Energy          =      -0.5398937681283964 [Eh]
	 Opposite-Spin Energy      =      -1.6862327742594152 [Eh]
	 Correlation Energy        =      -2.2261265423878118 [Eh]
	 Total Energy              =    -479.7424277741329774 [Eh]

	 ================> DF-SCS-MP2 Energies <==================
	-----------------------------------------------------------
	 SCS Same-Spin Scale       =       0.3333333333333333 [-]
	 SCS Opposite-Spin Scale   =       1.2000000000000000 [-]
	 SCS Same-Spin Energy      =      -0.1799645893761321 [Eh]
	 SCS Opposite-Spin Energy  =      -2.0234793291112982 [Eh]
	 SCS Correlation Energy    =      -2.2034439184874302 [Eh]
	 SCS Total Energy          =    -479.7197451502325976 [Eh]
	-----------------------------------------------------------

  Dipole Moment: [D]
     X:     0.3001      Y:     1.4393      Z:     0.5529     Total:     1.5708

*** Psi4 exiting successfully. Buy a developer a beer!
