                               Psi4 1.3.2 release

  ==> Input File <==

--------------------------------------------------------------------------
#psi4
#
memory 32 gb

molecule  {
0 1
  N       -1.7531090     0.6487580     0.1985890
  C       -0.9736129    -0.4411304    -0.1479229
  C        0.5958890    -0.1944310    -0.0686340
  C       -1.6095070    -1.4830350    -0.4543950
  C       -3.0364380     0.1798280     0.0590890
  C       -2.9750140    -1.1422740    -0.3482900
  C       -1.4212420     1.9838780     0.6691930
  C        1.2419450     0.8845030    -0.6969540
  C        1.3787110    -1.1624060     0.5835710
  C        2.6315710     1.0013490    -0.6546280
  C        2.7689430    -1.0546610     0.6054980
  C        3.3999180     0.0321080    -0.0053240
  H       -1.1930810    -2.4304870    -0.7739750
  H       -3.8823240     0.8199580     0.2740310
  H       -3.8253090    -1.7817070    -0.5476340
  H       -2.2212640     2.3282100     1.3272780
  H       -0.4870200     1.9493020     1.2305480
  H       -1.3139190     2.6883760    -0.1607770
  H        0.6536140     1.6152250    -1.2478990
  H        0.8812590    -1.9928010     1.0799670
  H        3.1173860     1.8412050    -1.1464900
  H        3.3610660    -1.8124130     1.1137600
  H        4.4833320     0.1209150     0.0205430
units angstrom
no_reorient  #important for SAPT in psi4, default
symmetry c1  #important for SAPT in psi4, default
}

set PROPERTIES_ORIGIN ["COM"]
properties('MP2/aug-cc-pvtz', properties = ['dipole'])
--------------------------------------------------------------------------

    Molecular point group: c1
  Charge       = 0
  Multiplicity = 1
  Basis Set: AUG-CC-PVTZ
    Blend: AUG-CC-PVTZ
  Basis Set: (AUG-CC-PVTZ AUX)
    Blend: AUG-CC-PVTZ-JKFIT

    Orbital Energies [Eh]
    ---------------------

    Doubly Occupied:

       1A    -15.598394     2A    -11.272698     3A    -11.253791
       4A    -11.250718     5A    -11.248121     6A    -11.239759
       7A    -11.238475     8A    -11.237922     9A    -11.236473
      10A    -11.234954    11A    -11.205427    12A    -11.192312
      13A     -1.303224    14A     -1.150320    15A     -1.093027
      16A     -1.029602    17A     -1.014460    18A     -0.962499
      19A     -0.936599    20A     -0.827330    21A     -0.821892
      22A     -0.778762    23A     -0.737352    24A     -0.713724
      25A     -0.675447    26A     -0.638668    27A     -0.626389
      28A     -0.620114    29A     -0.595939    30A     -0.588115
      31A     -0.584656    32A     -0.557015    33A     -0.538846
      34A     -0.533255    35A     -0.529084    36A     -0.499766
      37A     -0.491599    38A     -0.474492    39A     -0.355092
      40A     -0.338956    41A     -0.337128    42A     -0.289375

  @DF-RHF Final Energy:  -477.52176528780012

   => Energetics <=

    Nuclear Repulsion Energy =            639.0555318491702792
    One-Electron Energy =               -1913.4510478108531970
    Two-Electron Energy =                 796.8737506738829097
    Total Energy =                       -477.5217652878001218
  Basis Set: (AUG-CC-PVTZ AUX)
    Blend: AUG-CC-PVTZ-RI
    Molecular point group: c1

    Geometry (in Angstrom), charge = 0, multiplicity = 1:

       Center              X                  Y                   Z               Mass
    ------------   -----------------  -----------------  -----------------  -----------------
         N           -1.746968834578     0.676122631311     0.208431844816    14.003074004430
         C           -0.967472734578    -0.413765768689    -0.138080055184    12.000000000000
         C            0.602029165422    -0.167066368689    -0.058791155184    12.000000000000
         C           -1.603366834578    -1.455670368689    -0.444552155184    12.000000000000
         C           -3.030297834578     0.207192631311     0.068931844816    12.000000000000
         C           -2.968873834578    -1.114909368689    -0.338447155184    12.000000000000
         C           -1.415101834578     2.011242631311     0.679035844816    12.000000000000
         C            1.248085165422     0.911867631311    -0.687111155184    12.000000000000
         C            1.384851165422    -1.135041368689     0.593413844816    12.000000000000
         C            2.637711165422     1.028713631311    -0.644785155184    12.000000000000
         C            2.775083165422    -1.027296368689     0.615340844816    12.000000000000
         C            3.406058165422     0.059472631311     0.004518844816    12.000000000000
         H           -1.186940834578    -2.403122368689    -0.764132155184     1.007825032230
         H           -3.876183834578     0.847322631311     0.283873844816     1.007825032230
         H           -3.819168834578    -1.754342368689    -0.537791155184     1.007825032230
         H           -2.215123834578     2.355574631311     1.337120844816     1.007825032230
         H           -0.480879834578     1.976666631311     1.240390844816     1.007825032230
         H           -1.307778834578     2.715740631311    -0.150934155184     1.007825032230
         H            0.659754165422     1.642589631311    -1.238056155184     1.007825032230
         H            0.887399165422    -1.965436368689     1.089809844816     1.007825032230
         H            3.123526165422     1.868569631311    -1.136647155184     1.007825032230
         H            3.367206165422    -1.785048368689     1.123602844816     1.007825032230
         H            4.489472165422     0.148279631311     0.030385844816     1.007825032230

  Basis Set: AUG-CC-PVTZ
    Blend: AUG-CC-PVTZ
  Basis Set: (AUG-CC-PVTZ AUX)
    Blend: AUG-CC-PVTZ-JKFIT
	 Reference Energy          =    -477.5217652878001218 [Eh]
	 Singles Energy            =      -0.0000000000000000 [Eh]
	 Same-Spin Energy          =      -0.5363359122242490 [Eh]
	 Opposite-Spin Energy      =      -1.6798754452395366 [Eh]
	 Correlation Energy        =      -2.2162113574637856 [Eh]
	 Total Energy              =    -479.7379766452639274 [Eh]

	 ================> DF-SCS-MP2 Energies <==================
	-----------------------------------------------------------
	 SCS Same-Spin Scale       =       0.3333333333333333 [-]
	 SCS Opposite-Spin Scale   =       1.2000000000000000 [-]
	 SCS Same-Spin Energy      =      -0.1787786374080830 [Eh]
	 SCS Opposite-Spin Energy  =      -2.0158505342874440 [Eh]
	 SCS Correlation Energy    =      -2.1946291716955271 [Eh]
	 SCS Total Energy          =    -479.7163944594956320 [Eh]
	-----------------------------------------------------------

  Dipole Moment: [D]
     X:     0.5360      Y:     1.7482      Z:     0.6384     Total:     1.9368

*** Psi4 exiting successfully. Buy a developer a beer!
