                               Psi4 1.3.2 release

  ==> Input File <==

--------------------------------------------------------------------------
#psi4
#
memory 32 gb

molecule  {
0 1
  N       -1.7531090     0.6487580     0.1985890
  C       -0.8584400    -0.3593730    -0.1157050
  C        0.5958890    -0.1944310    -0.0686340
  C       -1.6095070    -1.4830350    -0.4543950
  C       -3.0364380     0.1798280     0.0590890
  C       -2.9750140    -1.1422740    -0.3482900
  C       -1.4212420     1.9838780     0.6691930
  C        1.2419450     0.8845030    -0.6969540
  C        1.3787110    -1.1624060     0.5835710
  C        2.6315710     1.0013490    -0.6546280
  C        2.7689430    -1.0546610     0.6054980
  C        3.3999180     0.0321080    -0.0053240
  H       -1.1930810    -2.4304870    -0.7739750
  H       -3.9604765     0.8791004     0.2938898
  H       -3.8253090    -1.7817070    -0.5476340
  H       -2.2212640     2.3282100     1.3272780
  H       -0.4870200     1.9493020     1.2305480
  H       -1.3139190     2.6883760    -0.1607770
  H        0.6536140     1.6152250    -1.2478990
  H        0.8812590    -1.9928010     1.0799670
  H        3.1173860     1.8412050    -1.1464900
  H        3.3610660    -1.8124130     1.1137600
  H        4.4833320     0.1209150     0.0205430
units angstrom
no_reorient  #important for SAPT in psi4, default
symmetry c1  #important for SAPT in psi4, default
}

set PROPERTIES_ORIGIN ["COM"]
properties('MP2/aug-cc-pvtz', properties = ['dipole'])
--------------------------------------------------------------------------

    Molecular point group: c1
  Charge       = 0
  Multiplicity = 1
  Basis Set: AUG-CC-PVTZ
    Blend: AUG-CC-PVTZ
  Basis Set: (AUG-CC-PVTZ AUX)
    Blend: AUG-CC-PVTZ-JKFIT

    Orbital Energies [Eh]
    ---------------------

    Doubly Occupied:

       1A    -15.608555     2A    -11.270568     3A    -11.259542
       4A    -11.256947     5A    -11.250403     6A    -11.240842
       7A    -11.239698     8A    -11.239389     9A    -11.238087
      10A    -11.237213    11A    -11.209181    12A    -11.207653
      13A     -1.299375    14A     -1.155203    15A     -1.073856
      16A     -1.043632    17A     -1.016318    18A     -0.953066
      19A     -0.933560    20A     -0.831663    21A     -0.830560
      22A     -0.768580    23A     -0.739628    24A     -0.711509
      25A     -0.674149    26A     -0.639368    27A     -0.627668
      28A     -0.622070    29A     -0.595289    30A     -0.587243
      31A     -0.570048    32A     -0.565258    33A     -0.534282
      34A     -0.526628    35A     -0.522578    36A     -0.501972
      37A     -0.494988    38A     -0.491958    39A     -0.354174
      40A     -0.340452    41A     -0.335864    42A     -0.275461

  @DF-RHF Final Energy:  -477.53833693771230

   => Energetics <=

    Nuclear Repulsion Energy =            638.5385479340612846
    One-Electron Energy =               -1912.4048146873080896
    Two-Electron Energy =                 796.3279298155343895
    Total Energy =                       -477.5383369377123017
  Basis Set: (AUG-CC-PVTZ AUX)
    Blend: AUG-CC-PVTZ-RI
    Molecular point group: c1

    Geometry (in Angstrom), charge = 0, multiplicity = 1:

       Center              X                  Y                   Z               Mass
    ------------   -----------------  -----------------  -----------------  -----------------
         N           -1.755265465882     0.669497768961     0.205843321055    14.003074004430
         C           -0.860596465882    -0.338633231039    -0.108450678945    12.000000000000
         C            0.593732534118    -0.173691231039    -0.061379678945    12.000000000000
         C           -1.611663465882    -1.462295231039    -0.447140678945    12.000000000000
         C           -3.038594465882     0.200567768961     0.066343321055    12.000000000000
         C           -2.977170465882    -1.121534231039    -0.341035678945    12.000000000000
         C           -1.423398465882     2.004617768961     0.676447321055    12.000000000000
         C            1.239788534118     0.905242768961    -0.689699678945    12.000000000000
         C            1.376554534118    -1.141666231039     0.590825321055    12.000000000000
         C            2.629414534118     1.022088768961    -0.647373678945    12.000000000000
         C            2.766786534118    -1.033921231039     0.612752321055    12.000000000000
         C            3.397761534118     0.052847768961     0.001930321055    12.000000000000
         H           -1.195237465882    -2.409747231039    -0.766720678945     1.007825032230
         H           -3.962632965882     0.899840168961     0.301144121055     1.007825032230
         H           -3.827465465882    -1.760967231039    -0.540379678945     1.007825032230
         H           -2.223420465882     2.348949768961     1.334532321055     1.007825032230
         H           -0.489176465882     1.970041768961     1.237802321055     1.007825032230
         H           -1.316075465882     2.709115768961    -0.153522678945     1.007825032230
         H            0.651457534118     1.635964768961    -1.240644678945     1.007825032230
         H            0.879102534118    -1.972061231039     1.087221321055     1.007825032230
         H            3.115229534118     1.861944768961    -1.139235678945     1.007825032230
         H            3.358909534118    -1.791673231039     1.121014321055     1.007825032230
         H            4.481175534118     0.141654768961     0.027797321055     1.007825032230

  Basis Set: AUG-CC-PVTZ
    Blend: AUG-CC-PVTZ
  Basis Set: (AUG-CC-PVTZ AUX)
    Blend: AUG-CC-PVTZ-JKFIT
	 Reference Energy          =    -477.5383369377123017 [Eh]
	 Singles Energy            =      -0.0000000000000000 [Eh]
	 Same-Spin Energy          =      -0.5394420895485195 [Eh]
	 Opposite-Spin Energy      =      -1.6842416463409564 [Eh]
	 Correlation Energy        =      -2.2236837358894759 [Eh]
	 Total Energy              =    -479.7620206736017963 [Eh]

	 ================> DF-SCS-MP2 Energies <==================
	-----------------------------------------------------------
	 SCS Same-Spin Scale       =       0.3333333333333333 [-]
	 SCS Opposite-Spin Scale   =       1.2000000000000000 [-]
	 SCS Same-Spin Energy      =      -0.1798140298495065 [Eh]
	 SCS Opposite-Spin Energy  =      -2.0210899756091476 [Eh]
	 SCS Correlation Energy    =      -2.2009040054586539 [Eh]
	 SCS Total Energy          =    -479.7392409431709552 [Eh]
	-----------------------------------------------------------

  Dipole Moment: [D]
     X:     0.4884      Y:     1.8472      Z:     0.6728     Total:     2.0256

*** Psi4 exiting successfully. Buy a developer a beer!
