                               Psi4 1.4a3.dev225

  ==> Input File <==

--------------------------------------------------------------------------
#psi4
#
memory 32 gb

molecule  {
0 1
  N       -1.7531090     0.6487580     0.1985890
  C       -0.8584400    -0.3593730    -0.1157050
  C        0.5958890    -0.1944310    -0.0686340
  C       -1.6095070    -1.4830350    -0.4543950
  C       -3.0177500     0.1866566     0.0611204
  C       -2.9750140    -1.1422740    -0.3482900
  C       -1.4212420     1.9838780     0.6691930
  C        1.2419450     0.8845030    -0.6969540
  C        1.3787110    -1.1624060     0.5835710
  C        2.6315710     1.0013490    -0.6546280
  C        2.7689430    -1.0546610     0.6054980
  C        3.3999180     0.0321080    -0.0053240
  H       -1.1930810    -2.4304870    -0.7739750
  H       -3.8823240     0.8199580     0.2740310
  H       -3.8253090    -1.7817070    -0.5476340
  H       -2.2212640     2.3282100     1.3272780
  H       -0.4870200     1.9493020     1.2305480
  H       -1.3139190     2.6883760    -0.1607770
  H        0.6536140     1.6152250    -1.2478990
  H        0.8812590    -1.9928010     1.0799670
  H        3.1173860     1.8412050    -1.1464900
  H        3.3610660    -1.8124130     1.1137600
  H        4.4833320     0.1209150     0.0205430
units angstrom
no_reorient  #important for SAPT in psi4, default
symmetry c1  #important for SAPT in psi4, default
}

set PROPERTIES_ORIGIN ["COM"]
properties('MP2/aug-cc-pvtz', properties = ['dipole'])
--------------------------------------------------------------------------

    Molecular point group: c1
  Charge       = 0
  Multiplicity = 1
  Basis Set: AUG-CC-PVTZ
    Blend: AUG-CC-PVTZ
  Basis Set: (AUG-CC-PVTZ AUX)
    Blend: AUG-CC-PVTZ-JKFIT

    Orbital Energies [Eh]
    ---------------------

    Doubly Occupied:

       1A    -15.609117     2A    -11.271786     3A    -11.254846
       4A    -11.249833     5A    -11.249082     6A    -11.240402
       7A    -11.239194     8A    -11.238894     9A    -11.237538
      10A    -11.236575    11A    -11.208141    12A    -11.206921
      13A     -1.304633    14A     -1.154852    15A     -1.073973
      16A     -1.043784    17A     -1.015847    18A     -0.955515
      19A     -0.935651    20A     -0.832358    21A     -0.830393
      22A     -0.771951    23A     -0.742433    24A     -0.713233
      25A     -0.677719    26A     -0.641271    27A     -0.632188
      28A     -0.622728    29A     -0.597011    30A     -0.586940
      31A     -0.571975    32A     -0.567779    33A     -0.537208
      34A     -0.527466    35A     -0.523995    36A     -0.502077
      37A     -0.494500    38A     -0.491776    39A     -0.354239
      40A     -0.340008    41A     -0.335465    42A     -0.273917

  @DF-RHF Final Energy:  -477.54571852447725

   => Energetics <=

    Nuclear Repulsion Energy =            639.4366121752412937
    One-Electron Energy =               -1914.1742334175060023
    Two-Electron Energy =                 797.1919027177873431
    Total Energy =                       -477.5457185244772518
  Basis Set: (AUG-CC-PVTZ AUX)
    Blend: AUG-CC-PVTZ-RI
    Molecular point group: c1

    Geometry (in Angstrom), charge = 0, multiplicity = 1:

       Center              X                  Y                   Z               Mass
    ------------   -----------------  -----------------  -----------------  -----------------
         N           -1.757194434542     0.669355569396     0.205815549536    14.003074004430
         C           -0.862525434542    -0.338775430604    -0.108478450464    12.000000000000
         C            0.591803565458    -0.173833430604    -0.061407450464    12.000000000000
         C           -1.613592434542    -1.462437430604    -0.447168450464    12.000000000000
         C           -3.021835434542     0.207254169396     0.068346949536    12.000000000000
         C           -2.979099434542    -1.121676430604    -0.341063450464    12.000000000000
         C           -1.425327434542     2.004475569396     0.676419549536    12.000000000000
         C            1.237859565458     0.905100569396    -0.689727450464    12.000000000000
         C            1.374625565458    -1.141808430604     0.590797549536    12.000000000000
         C            2.627485565458     1.021946569396    -0.647401450464    12.000000000000
         C            2.764857565458    -1.034063430604     0.612724549536    12.000000000000
         C            3.395832565458     0.052705569396     0.001902549536    12.000000000000
         H           -1.197166434542    -2.409889430604    -0.766748450464     1.007825032230
         H           -3.886409434542     0.840555569396     0.281257549536     1.007825032230
         H           -3.829394434542    -1.761109430604    -0.540407450464     1.007825032230
         H           -2.225349434542     2.348807569396     1.334504549536     1.007825032230
         H           -0.491105434542     1.969899569396     1.237774549536     1.007825032230
         H           -1.318004434542     2.708973569396    -0.153550450464     1.007825032230
         H            0.649528565458     1.635822569396    -1.240672450464     1.007825032230
         H            0.877173565458    -1.972203430604     1.087193549536     1.007825032230
         H            3.113300565458     1.861802569396    -1.139263450464     1.007825032230
         H            3.356980565458    -1.791815430604     1.120986549536     1.007825032230
         H            4.479246565458     0.141512569396     0.027769549536     1.007825032230

  Basis Set: AUG-CC-PVTZ
    Blend: AUG-CC-PVTZ
  Basis Set: (AUG-CC-PVTZ AUX)
    Blend: AUG-CC-PVTZ-JKFIT
	 Reference Energy          =    -477.5457185244772518 [Eh]
	 Singles Energy            =      -0.0000000000000000 [Eh]
	 Same-Spin Energy          =      -0.5392840243811794 [Eh]
	 Opposite-Spin Energy      =      -1.6831006068941581 [Eh]
	 Correlation Energy        =      -2.2223846312753377 [Eh]
	 Total Energy              =    -479.7681031557526126 [Eh]

	 ================> DF-SCS-MP2 Energies <==================
	-----------------------------------------------------------
	 SCS Same-Spin Scale       =       0.3333333333333333 [-]
	 SCS Opposite-Spin Scale   =       1.2000000000000000 [-]
	 SCS Same-Spin Energy      =      -0.1797613414603931 [Eh]
	 SCS Opposite-Spin Energy  =      -2.0197207282729894 [Eh]
	 SCS Correlation Energy    =      -2.1994820697333823 [Eh]
	 SCS Total Energy          =    -479.7452005942106439 [Eh]
	-----------------------------------------------------------

  Dipole Moment: [D]
     X:     0.4660      Y:     1.8856      Z:     0.6856     Total:     2.0598

*** Psi4 exiting successfully. Buy a developer a beer!
