                               Psi4 1.3.2 release

  ==> Input File <==

--------------------------------------------------------------------------
#psi4
#
memory 32 gb

molecule  {
0 1
  N       -1.7531090     0.6487580     0.1985890
  C       -0.8584400    -0.3593730    -0.1157050
  C        0.5958890    -0.1944310    -0.0686340
  C       -1.6095070    -1.4830350    -0.4543950
  C       -3.0364380     0.1798280     0.0590890
  C       -2.9810325    -1.1648721    -0.3560284
  C       -1.4212420     1.9838780     0.6691930
  C        1.2419450     0.8845030    -0.6969540
  C        1.3787110    -1.1624060     0.5835710
  C        2.6315710     1.0013490    -0.6546280
  C        2.7689430    -1.0546610     0.6054980
  C        3.3999180     0.0321080    -0.0053240
  H       -1.1930810    -2.4304870    -0.7739750
  H       -3.8823240     0.8199580     0.2740310
  H       -3.8253090    -1.7817070    -0.5476340
  H       -2.2212640     2.3282100     1.3272780
  H       -0.4870200     1.9493020     1.2305480
  H       -1.3139190     2.6883760    -0.1607770
  H        0.6536140     1.6152250    -1.2478990
  H        0.8812590    -1.9928010     1.0799670
  H        3.1173860     1.8412050    -1.1464900
  H        3.3610660    -1.8124130     1.1137600
  H        4.4833320     0.1209150     0.0205430
units angstrom
no_reorient  #important for SAPT in psi4, default
symmetry c1  #important for SAPT in psi4, default
}

set PROPERTIES_ORIGIN ["COM"]
properties('MP2/aug-cc-pvtz', properties = ['dipole'])
--------------------------------------------------------------------------

    Molecular point group: c1
  Charge       = 0
  Multiplicity = 1
  Basis Set: AUG-CC-PVTZ
    Blend: AUG-CC-PVTZ
  Basis Set: (AUG-CC-PVTZ AUX)
    Blend: AUG-CC-PVTZ-JKFIT

    Orbital Energies [Eh]
    ---------------------

    Doubly Occupied:

       1A    -15.609663     2A    -11.271366     3A    -11.255999
       4A    -11.251697     5A    -11.250209     6A    -11.240637
       7A    -11.239456     8A    -11.239161     9A    -11.237820
      10A    -11.236896    11A    -11.209627    12A    -11.207999
      13A     -1.298466    14A     -1.154960    15A     -1.072480
      16A     -1.043005    17A     -1.016079    18A     -0.954383
      19A     -0.934789    20A     -0.832662    21A     -0.830579
      22A     -0.772675    23A     -0.742762    24A     -0.712895
      25A     -0.677764    26A     -0.640088    27A     -0.632009
      28A     -0.622874    29A     -0.598145    30A     -0.587101
      31A     -0.571424    32A     -0.568270    33A     -0.540594
      34A     -0.525401    35A     -0.521407    36A     -0.502065
      37A     -0.495434    38A     -0.491617    39A     -0.353773
      40A     -0.340188    41A     -0.335383    42A     -0.273050

  @DF-RHF Final Energy:  -477.54433809339810

   => Energetics <=

    Nuclear Repulsion Energy =            638.6008643779933891
    One-Electron Energy =               -1912.5047013618325309
    Two-Electron Energy =                 796.3594988904409320
    Total Energy =                       -477.5443380933980961
  Basis Set: (AUG-CC-PVTZ AUX)
    Blend: AUG-CC-PVTZ-RI
    Molecular point group: c1

    Geometry (in Angstrom), charge = 0, multiplicity = 1:

       Center              X                  Y                   Z               Mass
    ------------   -----------------  -----------------  -----------------  -----------------
         N           -1.755307111317     0.671603467493     0.206561862063    14.003074004430
         C           -0.860638111317    -0.336527532507    -0.107732137937    12.000000000000
         C            0.593690888683    -0.171585532507    -0.060661137937    12.000000000000
         C           -1.611705111317    -1.460189532507    -0.446422137937    12.000000000000
         C           -3.038636111317     0.202673467493     0.067061862063    12.000000000000
         C           -2.983230611317    -1.142026632507    -0.348055537937    12.000000000000
         C           -1.423440111317     2.006723467493     0.677165862063    12.000000000000
         C            1.239746888683     0.907348467493    -0.688981137937    12.000000000000
         C            1.376512888683    -1.139560532507     0.591543862063    12.000000000000
         C            2.629372888683     1.024194467493    -0.646655137937    12.000000000000
         C            2.766744888683    -1.031815532507     0.613470862063    12.000000000000
         C            3.397719888683     0.054953467493     0.002648862063    12.000000000000
         H           -1.195279111317    -2.407641532507    -0.766002137937     1.007825032230
         H           -3.884522111317     0.842803467493     0.282003862063     1.007825032230
         H           -3.827507111317    -1.758861532507    -0.539661137937     1.007825032230
         H           -2.223462111317     2.351055467493     1.335250862063     1.007825032230
         H           -0.489218111317     1.972147467493     1.238520862063     1.007825032230
         H           -1.316117111317     2.711221467493    -0.152804137937     1.007825032230
         H            0.651415888683     1.638070467493    -1.239926137937     1.007825032230
         H            0.879060888683    -1.969955532507     1.087939862063     1.007825032230
         H            3.115187888683     1.864050467493    -1.138517137937     1.007825032230
         H            3.358867888683    -1.789567532507     1.121732862063     1.007825032230
         H            4.481133888683     0.143760467493     0.028515862063     1.007825032230

  Basis Set: AUG-CC-PVTZ
    Blend: AUG-CC-PVTZ
  Basis Set: (AUG-CC-PVTZ AUX)
    Blend: AUG-CC-PVTZ-JKFIT
	 Reference Energy          =    -477.5443380933980961 [Eh]
	 Singles Energy            =      -0.0000000000000000 [Eh]
	 Same-Spin Energy          =      -0.5394468546647819 [Eh]
	 Opposite-Spin Energy      =      -1.6837727364076713 [Eh]
	 Correlation Energy        =      -2.2232195910724535 [Eh]
	 Total Energy              =    -479.7675576844705461 [Eh]

	 ================> DF-SCS-MP2 Energies <==================
	-----------------------------------------------------------
	 SCS Same-Spin Scale       =       0.3333333333333333 [-]
	 SCS Opposite-Spin Scale   =       1.2000000000000000 [-]
	 SCS Same-Spin Energy      =      -0.1798156182215940 [Eh]
	 SCS Opposite-Spin Energy  =      -2.0205272836892054 [Eh]
	 SCS Correlation Energy    =      -2.2003429019107994 [Eh]
	 SCS Total Energy          =    -479.7446809953088973 [Eh]
	-----------------------------------------------------------

  Dipole Moment: [D]
     X:     0.4783      Y:     1.8715      Z:     0.6821     Total:     2.0485

*** Psi4 exiting successfully. Buy a developer a beer!
