                               Psi4 1.3.2 release

  ==> Input File <==

--------------------------------------------------------------------------
#psi4
#
memory 32 gb

molecule  {
0 1
  N       -1.7531090     0.6487580     0.1985890
  C       -0.8584400    -0.3593730    -0.1157050
  C        0.5958890    -0.1944310    -0.0686340
  C       -1.6095070    -1.4830350    -0.4543950
  C       -3.0364380     0.1798280     0.0590890
  C       -2.8307726    -1.1280125    -0.3470380
  C       -1.4212420     1.9838780     0.6691930
  C        1.2419450     0.8845030    -0.6969540
  C        1.3787110    -1.1624060     0.5835710
  C        2.6315710     1.0013490    -0.6546280
  C        2.7689430    -1.0546610     0.6054980
  C        3.3999180     0.0321080    -0.0053240
  H       -1.1930810    -2.4304870    -0.7739750
  H       -3.8823240     0.8199580     0.2740310
  H       -3.8253090    -1.7817070    -0.5476340
  H       -2.2212640     2.3282100     1.3272780
  H       -0.4870200     1.9493020     1.2305480
  H       -1.3139190     2.6883760    -0.1607770
  H        0.6536140     1.6152250    -1.2478990
  H        0.8812590    -1.9928010     1.0799670
  H        3.1173860     1.8412050    -1.1464900
  H        3.3610660    -1.8124130     1.1137600
  H        4.4833320     0.1209150     0.0205430
units angstrom
no_reorient  #important for SAPT in psi4, default
symmetry c1  #important for SAPT in psi4, default
}

set PROPERTIES_ORIGIN ["COM"]
properties('MP2/aug-cc-pvtz', properties = ['dipole'])
--------------------------------------------------------------------------

    Molecular point group: c1
  Charge       = 0
  Multiplicity = 1
  Basis Set: AUG-CC-PVTZ
    Blend: AUG-CC-PVTZ
  Basis Set: (AUG-CC-PVTZ AUX)
    Blend: AUG-CC-PVTZ-JKFIT

    Orbital Energies [Eh]
    ---------------------

    Doubly Occupied:

       1A    -15.612416     2A    -11.270718     3A    -11.254589
       4A    -11.249533     5A    -11.241944     6A    -11.240374
       7A    -11.239335     8A    -11.238753     9A    -11.237505
      10A    -11.236738    11A    -11.205346    12A    -11.194467
      13A     -1.306772    14A     -1.154763    15A     -1.094632
      16A     -1.043857    17A     -1.015991    18A     -0.955739
      19A     -0.941492    20A     -0.833785    21A     -0.829526
      22A     -0.760782    23A     -0.749787    24A     -0.712058
      25A     -0.677686    26A     -0.641372    27A     -0.633040
      28A     -0.621917    29A     -0.593491    30A     -0.587170
      31A     -0.577177    32A     -0.563786    33A     -0.559984
      34A     -0.531959    35A     -0.503203    36A     -0.502114
      37A     -0.493262    38A     -0.481175    39A     -0.356130
      40A     -0.351606    41A     -0.339531    42A     -0.267443

  @DF-RHF Final Energy:  -477.51247814033997

   => Energetics <=

    Nuclear Repulsion Energy =            642.0670251621588704
    One-Electron Energy =               -1919.3531171974684639
    Two-Electron Energy =                 799.7736138949696851
    Total Energy =                       -477.5124781403399084
  Basis Set: (AUG-CC-PVTZ AUX)
    Blend: AUG-CC-PVTZ-RI
    Molecular point group: c1

    Geometry (in Angstrom), charge = 0, multiplicity = 1:

       Center              X                  Y                   Z               Mass
    ------------   -----------------  -----------------  -----------------  -----------------
         N           -1.766785426702     0.668787772063     0.205875087703    14.003074004430
         C           -0.872116426702    -0.339343227937    -0.108418912297    12.000000000000
         C            0.582212573298    -0.174401227937    -0.061347912297    12.000000000000
         C           -1.623183426702    -1.463005227937    -0.447108912297    12.000000000000
         C           -3.050114426702     0.199857772063     0.066375087703    12.000000000000
         C           -2.844449026702    -1.107982727937    -0.339751912297    12.000000000000
         C           -1.434918426702     2.003907772063     0.676479087703    12.000000000000
         C            1.228268573298     0.904532772063    -0.689667912297    12.000000000000
         C            1.365034573298    -1.142376227937     0.590857087703    12.000000000000
         C            2.617894573298     1.021378772063    -0.647341912297    12.000000000000
         C            2.755266573298    -1.034631227937     0.612784087703    12.000000000000
         C            3.386241573298     0.052137772063     0.001962087703    12.000000000000
         H           -1.206757426702    -2.410457227937    -0.766688912297     1.007825032230
         H           -3.896000426702     0.839987772063     0.281317087703     1.007825032230
         H           -3.838985426702    -1.761677227937    -0.540347912297     1.007825032230
         H           -2.234940426702     2.348239772063     1.334564087703     1.007825032230
         H           -0.500696426702     1.969331772063     1.237834087703     1.007825032230
         H           -1.327595426702     2.708405772063    -0.153490912297     1.007825032230
         H            0.639937573298     1.635254772063    -1.240612912297     1.007825032230
         H            0.867582573298    -1.972771227937     1.087253087703     1.007825032230
         H            3.103709573298     1.861234772063    -1.139203912297     1.007825032230
         H            3.347389573298    -1.792383227937     1.121046087703     1.007825032230
         H            4.469655573298     0.140944772063     0.027829087703     1.007825032230

  Basis Set: AUG-CC-PVTZ
    Blend: AUG-CC-PVTZ
  Basis Set: (AUG-CC-PVTZ AUX)
    Blend: AUG-CC-PVTZ-JKFIT
	 Reference Energy          =    -477.5124781403399652 [Eh]
	 Singles Energy            =      -0.0000000000000000 [Eh]
	 Same-Spin Energy          =      -0.5415332910249108 [Eh]
	 Opposite-Spin Energy      =      -1.6858274198359531 [Eh]
	 Correlation Energy        =      -2.2273607108608640 [Eh]
	 Total Energy              =    -479.7398388512008296 [Eh]

	 ================> DF-SCS-MP2 Energies <==================
	-----------------------------------------------------------
	 SCS Same-Spin Scale       =       0.3333333333333333 [-]
	 SCS Opposite-Spin Scale   =       1.2000000000000000 [-]
	 SCS Same-Spin Energy      =      -0.1805110970083036 [Eh]
	 SCS Opposite-Spin Energy  =      -2.0229929038031438 [Eh]
	 SCS Correlation Energy    =      -2.2035040008114475 [Eh]
	 SCS Total Energy          =    -479.7159821411514145 [Eh]
	-----------------------------------------------------------

  Dipole Moment: [D]
     X:     0.4573      Y:     1.8632      Z:     0.6754     Total:     2.0339

*** Psi4 exiting successfully. Buy a developer a beer!
