                               Psi4 1.3.2 release

  ==> Input File <==

--------------------------------------------------------------------------
#psi4
#
memory 32 gb

molecule  {
0 1
  N       -1.7531090     0.6487580     0.1985890
  C       -0.8584400    -0.3593730    -0.1157050
  C        0.5958890    -0.1944310    -0.0686340
  C       -1.6095070    -1.4830350    -0.4543950
  C       -2.9992425     0.0969080     0.0285836
  C       -2.9750140    -1.1422740    -0.3482900
  C       -1.4212420     1.9838780     0.6691930
  C        1.2419450     0.8845030    -0.6969540
  C        1.3787110    -1.1624060     0.5835710
  C        2.6315710     1.0013490    -0.6546280
  C        2.7689430    -1.0546610     0.6054980
  C        3.3999180     0.0321080    -0.0053240
  H       -1.1930810    -2.4304870    -0.7739750
  H       -3.8823240     0.8199580     0.2740310
  H       -3.8253090    -1.7817070    -0.5476340
  H       -2.2212640     2.3282100     1.3272780
  H       -0.4870200     1.9493020     1.2305480
  H       -1.3139190     2.6883760    -0.1607770
  H        0.6536140     1.6152250    -1.2478990
  H        0.8812590    -1.9928010     1.0799670
  H        3.1173860     1.8412050    -1.1464900
  H        3.3610660    -1.8124130     1.1137600
  H        4.4833320     0.1209150     0.0205430
units angstrom
no_reorient  #important for SAPT in psi4, default
symmetry c1  #important for SAPT in psi4, default
}

set PROPERTIES_ORIGIN ["COM"]
properties('MP2/aug-cc-pvtz', properties = ['dipole'])
--------------------------------------------------------------------------

    Molecular point group: c1
  Charge       = 0
  Multiplicity = 1
  Basis Set: AUG-CC-PVTZ
    Blend: AUG-CC-PVTZ
  Basis Set: (AUG-CC-PVTZ AUX)
    Blend: AUG-CC-PVTZ-JKFIT

    Orbital Energies [Eh]
    ---------------------

    Doubly Occupied:

       1A    -15.601201     2A    -11.271849     3A    -11.255703
       4A    -11.249209     5A    -11.246000     6A    -11.240386
       7A    -11.239188     8A    -11.238869     9A    -11.237585
      10A    -11.236504    11A    -11.205196    12A    -11.197329
      13A     -1.301572    14A     -1.154595    15A     -1.084072
      16A     -1.045311    17A     -1.015834    18A     -0.957486
      19A     -0.934472    20A     -0.834044    21A     -0.829639
      22A     -0.769417    23A     -0.739475    24A     -0.713541
      25A     -0.674585    26A     -0.639305    27A     -0.626737
      28A     -0.621149    29A     -0.595075    30A     -0.586850
      31A     -0.582159    32A     -0.562813    33A     -0.532913
      34A     -0.530790    35A     -0.519767    36A     -0.499614
      37A     -0.494956    38A     -0.491541    39A     -0.355138
      40A     -0.341844    41A     -0.338378    42A     -0.279800

  @DF-RHF Final Energy:  -477.53448287700871

   => Energetics <=

    Nuclear Repulsion Energy =            640.4651280406442311
    One-Electron Energy =               -1916.2554378660054226
    Two-Electron Energy =                 798.2558269483524782
    Total Energy =                       -477.5344828770087133
  Basis Set: (AUG-CC-PVTZ AUX)
    Blend: AUG-CC-PVTZ-RI
    Molecular point group: c1

    Geometry (in Angstrom), charge = 0, multiplicity = 1:

       Center              X                  Y                   Z               Mass
    ------------   -----------------  -----------------  -----------------  -----------------
         N           -1.758608217740     0.676211442028     0.208301027379    14.003074004430
         C           -0.863939217740    -0.331919557972    -0.105992972621    12.000000000000
         C            0.590389782260    -0.166977557972    -0.058921972621    12.000000000000
         C           -1.615006217740    -1.455581557972    -0.444682972621    12.000000000000
         C           -3.004741717740     0.124361442028     0.038295627379    12.000000000000
         C           -2.980513217740    -1.114820557972    -0.338577972621    12.000000000000
         C           -1.426741217740     2.011331442028     0.678905027379    12.000000000000
         C            1.236445782260     0.911956442028    -0.687241972621    12.000000000000
         C            1.373211782260    -1.134952557972     0.593283027379    12.000000000000
         C            2.626071782260     1.028802442028    -0.644915972621    12.000000000000
         C            2.763443782260    -1.027207557972     0.615210027379    12.000000000000
         C            3.394418782260     0.059561442028     0.004388027379    12.000000000000
         H           -1.198580217740    -2.403033557972    -0.764262972621     1.007825032230
         H           -3.887823217740     0.847411442028     0.283743027379     1.007825032230
         H           -3.830808217740    -1.754253557972    -0.537921972621     1.007825032230
         H           -2.226763217740     2.355663442028     1.336990027379     1.007825032230
         H           -0.492519217740     1.976755442028     1.240260027379     1.007825032230
         H           -1.319418217740     2.715829442028    -0.151064972621     1.007825032230
         H            0.648114782260     1.642678442028    -1.238186972621     1.007825032230
         H            0.875759782260    -1.965347557972     1.089679027379     1.007825032230
         H            3.111886782260     1.868658442028    -1.136777972621     1.007825032230
         H            3.355566782260    -1.784959557972     1.123472027379     1.007825032230
         H            4.477832782260     0.148368442028     0.030255027379     1.007825032230

  Basis Set: AUG-CC-PVTZ
    Blend: AUG-CC-PVTZ
  Basis Set: (AUG-CC-PVTZ AUX)
    Blend: AUG-CC-PVTZ-JKFIT
	 Reference Energy          =    -477.5344828770087133 [Eh]
	 Singles Energy            =      -0.0000000000000000 [Eh]
	 Same-Spin Energy          =      -0.5382525196275277 [Eh]
	 Opposite-Spin Energy      =      -1.6818846683553397 [Eh]
	 Correlation Energy        =      -2.2201371879828673 [Eh]
	 Total Energy              =    -479.7546200649915704 [Eh]

	 ================> DF-SCS-MP2 Energies <==================
	-----------------------------------------------------------
	 SCS Same-Spin Scale       =       0.3333333333333333 [-]
	 SCS Opposite-Spin Scale   =       1.2000000000000000 [-]
	 SCS Same-Spin Energy      =      -0.1794175065425092 [Eh]
	 SCS Opposite-Spin Energy  =      -2.0182616020264077 [Eh]
	 SCS Correlation Energy    =      -2.1976791085689169 [Eh]
	 SCS Total Energy          =    -479.7321619855776476 [Eh]
	-----------------------------------------------------------

  Dipole Moment: [D]
     X:     0.3858      Y:     1.7946      Z:     0.6624     Total:     1.9514

*** Psi4 exiting successfully. Buy a developer a beer!
