                               Psi4 1.3.2 release

  ==> Input File <==

--------------------------------------------------------------------------
#psi4
#
memory 32 gb

molecule  {
0 1
  N       -1.7531090     0.6487580     0.1985890
  C       -0.8584400    -0.3593730    -0.1157050
  C        0.5958890    -0.1944310    -0.0686340
  C       -1.6095070    -1.4830350    -0.4543950
  C       -3.0364380     0.1798280     0.0590890
  C       -2.9750140    -1.1422740    -0.3482900
  C       -1.4212420     1.9838780     0.6691930
  C        1.2635949     0.8753799    -0.6898799
  C        1.3787110    -1.1624060     0.5835710
  C        2.6315710     1.0013490    -0.6546280
  C        2.7689430    -1.0546610     0.6054980
  C        3.3999180     0.0321080    -0.0053240
  H       -1.1930810    -2.4304870    -0.7739750
  H       -3.8823240     0.8199580     0.2740310
  H       -3.8253090    -1.7817070    -0.5476340
  H       -2.2212640     2.3282100     1.3272780
  H       -0.4870200     1.9493020     1.2305480
  H       -1.3139190     2.6883760    -0.1607770
  H        0.6536140     1.6152250    -1.2478990
  H        0.8812590    -1.9928010     1.0799670
  H        3.1173860     1.8412050    -1.1464900
  H        3.3610660    -1.8124130     1.1137600
  H        4.4833320     0.1209150     0.0205430
units angstrom
no_reorient  #important for SAPT in psi4, default
symmetry c1  #important for SAPT in psi4, default
}

set PROPERTIES_ORIGIN ["COM"]
properties('MP2/aug-cc-pvtz', properties = ['dipole'])
--------------------------------------------------------------------------

    Molecular point group: c1
  Charge       = 0
  Multiplicity = 1
  Basis Set: AUG-CC-PVTZ
    Blend: AUG-CC-PVTZ
  Basis Set: (AUG-CC-PVTZ AUX)
    Blend: AUG-CC-PVTZ-JKFIT

    Orbital Energies [Eh]
    ---------------------

    Doubly Occupied:

       1A    -15.607762     2A    -11.270709     3A    -11.257001
       4A    -11.249855     5A    -11.248796     6A    -11.239502
       7A    -11.239112     8A    -11.238139     9A    -11.237116
      10A    -11.236833    11A    -11.208599    12A    -11.207316
      13A     -1.299018    14A     -1.156974    15A     -1.073599
      16A     -1.043810    17A     -1.017966    18A     -0.956174
      19A     -0.933471    20A     -0.834535    21A     -0.828652
      22A     -0.770909    23A     -0.743689    24A     -0.712409
      25A     -0.677107    26A     -0.640312    27A     -0.630789
      28A     -0.623533    29A     -0.596571    30A     -0.585922
      31A     -0.569813    32A     -0.568099    33A     -0.538357
      34A     -0.527269    35A     -0.523817    36A     -0.503867
      37A     -0.497032    38A     -0.487770    39A     -0.353471
      40A     -0.342342    41A     -0.335598    42A     -0.275164

  @DF-RHF Final Energy:  -477.54540616249909

   => Energetics <=

    Nuclear Repulsion Energy =            639.2181810624034597
    One-Electron Energy =               -1913.7496180173718585
    Two-Electron Energy =                 796.9860307924691369
    Total Energy =                       -477.5454061624991482
  Basis Set: (AUG-CC-PVTZ AUX)
    Blend: AUG-CC-PVTZ-RI
    Molecular point group: c1

    Geometry (in Angstrom), charge = 0, multiplicity = 1:

       Center              X                  Y                   Z               Mass
    ------------   -----------------  -----------------  -----------------  -----------------
         N           -1.757420693326     0.670574115685     0.205430338971    14.003074004430
         C           -0.862751693326    -0.337556884315    -0.108863661029    12.000000000000
         C            0.591577306674    -0.172614884315    -0.061792661029    12.000000000000
         C           -1.613818693326    -1.461218884315    -0.447553661029    12.000000000000
         C           -3.040749693326     0.201644115685     0.065930338971    12.000000000000
         C           -2.979325693326    -1.120457884315    -0.341448661029    12.000000000000
         C           -1.425553693326     2.005694115685     0.676034338971    12.000000000000
         C            1.259283206674     0.897196015685    -0.683038561029    12.000000000000
         C            1.374399306674    -1.140589884315     0.590412338971    12.000000000000
         C            2.627259306674     1.023165115685    -0.647786661029    12.000000000000
         C            2.764631306674    -1.032844884315     0.612339338971    12.000000000000
         C            3.395606306674     0.053924115685     0.001517338971    12.000000000000
         H           -1.197392693326    -2.408670884315    -0.767133661029     1.007825032230
         H           -3.886635693326     0.841774115685     0.280872338971     1.007825032230
         H           -3.829620693326    -1.759890884315    -0.540792661029     1.007825032230
         H           -2.225575693326     2.350026115685     1.334119338971     1.007825032230
         H           -0.491331693326     1.971118115685     1.237389338971     1.007825032230
         H           -1.318230693326     2.710192115685    -0.153935661029     1.007825032230
         H            0.649302306674     1.637041115685    -1.241057661029     1.007825032230
         H            0.876947306674    -1.970984884315     1.086808338971     1.007825032230
         H            3.113074306674     1.863021115685    -1.139648661029     1.007825032230
         H            3.356754306674    -1.790596884315     1.120601338971     1.007825032230
         H            4.479020306674     0.142731115685     0.027384338971     1.007825032230

  Basis Set: AUG-CC-PVTZ
    Blend: AUG-CC-PVTZ
  Basis Set: (AUG-CC-PVTZ AUX)
    Blend: AUG-CC-PVTZ-JKFIT
	 Reference Energy          =    -477.5454061624990914 [Eh]
	 Singles Energy            =      -0.0000000000000000 [Eh]
	 Same-Spin Energy          =      -0.5391885053643717 [Eh]
	 Opposite-Spin Energy      =      -1.6831531271306108 [Eh]
	 Correlation Energy        =      -2.2223416324949827 [Eh]
	 Total Energy              =    -479.7677477949940794 [Eh]

	 ================> DF-SCS-MP2 Energies <==================
	-----------------------------------------------------------
	 SCS Same-Spin Scale       =       0.3333333333333333 [-]
	 SCS Opposite-Spin Scale   =       1.2000000000000000 [-]
	 SCS Same-Spin Energy      =      -0.1797295017881239 [Eh]
	 SCS Opposite-Spin Energy  =      -2.0197837525567328 [Eh]
	 SCS Correlation Energy    =      -2.1995132543448568 [Eh]
	 SCS Total Energy          =    -479.7449194168439703 [Eh]
	-----------------------------------------------------------

  Dipole Moment: [D]
     X:     0.4561      Y:     1.8557      Z:     0.6801     Total:     2.0284

*** Psi4 exiting successfully. Buy a developer a beer!
