                               Psi4 1.3.2 release

  ==> Input File <==

--------------------------------------------------------------------------
#psi4
#
memory 32 gb

molecule  {
0 1
  N       -1.7618424     0.6700827     0.2051894
  C       -0.8584400    -0.3593730    -0.1157050
  C        0.5958890    -0.1944310    -0.0686340
  C       -1.6095070    -1.4830350    -0.4543950
  C       -3.0364380     0.1798280     0.0590890
  C       -2.9750140    -1.1422740    -0.3482900
  C       -1.4212420     1.9838780     0.6691930
  C        1.2419450     0.8845030    -0.6969540
  C        1.3787110    -1.1624060     0.5835710
  C        2.6315710     1.0013490    -0.6546280
  C        2.7689430    -1.0546610     0.6054980
  C        3.3999180     0.0321080    -0.0053240
  H       -1.1930810    -2.4304870    -0.7739750
  H       -3.8823240     0.8199580     0.2740310
  H       -3.8253090    -1.7817070    -0.5476340
  H       -2.2212640     2.3282100     1.3272780
  H       -0.4870200     1.9493020     1.2305480
  H       -1.3139190     2.6883760    -0.1607770
  H        0.6536140     1.6152250    -1.2478990
  H        0.8812590    -1.9928010     1.0799670
  H        3.1173860     1.8412050    -1.1464900
  H        3.3610660    -1.8124130     1.1137600
  H        4.4833320     0.1209150     0.0205430
units angstrom
no_reorient  #important for SAPT in psi4, default
symmetry c1  #important for SAPT in psi4, default
}

set PROPERTIES_ORIGIN ["COM"]
properties('MP2/aug-cc-pvtz', properties = ['dipole'])
--------------------------------------------------------------------------

    Molecular point group: c1
  Charge       = 0
  Multiplicity = 1
  Basis Set: AUG-CC-PVTZ
    Blend: AUG-CC-PVTZ
  Basis Set: (AUG-CC-PVTZ AUX)
    Blend: AUG-CC-PVTZ-JKFIT

    Orbital Energies [Eh]
    ---------------------

    Doubly Occupied:

       1A    -15.606903     2A    -11.268594     3A    -11.258035
       4A    -11.250662     5A    -11.249987     6A    -11.240506
       7A    -11.239365     8A    -11.239043     9A    -11.237763
      10A    -11.236882    11A    -11.209969    12A    -11.208388
      13A     -1.296037    14A     -1.154970    15A     -1.077169
      16A     -1.043391    17A     -1.016020    18A     -0.954162
      19A     -0.933001    20A     -0.832892    21A     -0.830365
      22A     -0.770067    23A     -0.744061    24A     -0.712594
      25A     -0.677481    26A     -0.640130    27A     -0.631673
      28A     -0.622981    29A     -0.597249    30A     -0.587029
      31A     -0.575114    32A     -0.565630    33A     -0.537582
      34A     -0.526902    35A     -0.521309    36A     -0.501351
      37A     -0.494956    38A     -0.491220    39A     -0.354488
      40A     -0.340123    41A     -0.335557    42A     -0.274945

  @DF-RHF Final Energy:  -477.54477665750045

   => Energetics <=

    Nuclear Repulsion Energy =            638.7249074161525186
    One-Electron Energy =               -1912.7662794790387579
    Two-Electron Energy =                 796.4965954053857331
    Total Energy =                       -477.5447766575005062
  Basis Set: (AUG-CC-PVTZ AUX)
    Blend: AUG-CC-PVTZ-RI
    Molecular point group: c1

    Geometry (in Angstrom), charge = 0, multiplicity = 1:

       Center              X                  Y                   Z               Mass
    ------------   -----------------  -----------------  -----------------  -----------------
         N           -1.763721759533     0.689301000661     0.211982761821    14.003074004430
         C           -0.860319359533    -0.340154699339    -0.108911638179    12.000000000000
         C            0.594009640467    -0.175212699339    -0.061840638179    12.000000000000
         C           -1.611386359533    -1.463816699339    -0.447601638179    12.000000000000
         C           -3.038317359533     0.199046300661     0.065882361821    12.000000000000
         C           -2.976893359533    -1.123055699339    -0.341496638179    12.000000000000
         C           -1.423121359533     2.003096300661     0.675986361821    12.000000000000
         C            1.240065640467     0.903721300661    -0.690160638179    12.000000000000
         C            1.376831640467    -1.143187699339     0.590364361821    12.000000000000
         C            2.629691640467     1.020567300661    -0.647834638179    12.000000000000
         C            2.767063640467    -1.035442699339     0.612291361821    12.000000000000
         C            3.398038640467     0.051326300661     0.001469361821    12.000000000000
         H           -1.194960359533    -2.411268699339    -0.767181638179     1.007825032230
         H           -3.884203359533     0.839176300661     0.280824361821     1.007825032230
         H           -3.827188359533    -1.762488699339    -0.540840638179     1.007825032230
         H           -2.223143359533     2.347428300661     1.334071361821     1.007825032230
         H           -0.488899359533     1.968520300661     1.237341361821     1.007825032230
         H           -1.315798359533     2.707594300661    -0.153983638179     1.007825032230
         H            0.651734640467     1.634443300661    -1.241105638179     1.007825032230
         H            0.879379640467    -1.973582699339     1.086760361821     1.007825032230
         H            3.115506640467     1.860423300661    -1.139696638179     1.007825032230
         H            3.359186640467    -1.793194699339     1.120553361821     1.007825032230
         H            4.481452640467     0.140133300661     0.027336361821     1.007825032230

  Basis Set: AUG-CC-PVTZ
    Blend: AUG-CC-PVTZ
  Basis Set: (AUG-CC-PVTZ AUX)
    Blend: AUG-CC-PVTZ-JKFIT
	 Reference Energy          =    -477.5447766575004493 [Eh]
	 Singles Energy            =      -0.0000000000000000 [Eh]
	 Same-Spin Energy          =      -0.5392248942651973 [Eh]
	 Opposite-Spin Energy      =      -1.6834874229325028 [Eh]
	 Correlation Energy        =      -2.2227123171977001 [Eh]
	 Total Energy              =    -479.7674889746981535 [Eh]

	 ================> DF-SCS-MP2 Energies <==================
	-----------------------------------------------------------
	 SCS Same-Spin Scale       =       0.3333333333333333 [-]
	 SCS Opposite-Spin Scale   =       1.2000000000000000 [-]
	 SCS Same-Spin Energy      =      -0.1797416314217324 [Eh]
	 SCS Opposite-Spin Energy  =      -2.0201849075190030 [Eh]
	 SCS Correlation Energy    =      -2.1999265389407356 [Eh]
	 SCS Total Energy          =    -479.7447031964412076 [Eh]
	-----------------------------------------------------------

  Dipole Moment: [D]
     X:     0.4622      Y:     1.7877      Z:     0.6550     Total:     1.9593

*** Psi4 exiting successfully. Buy a developer a beer!
