                               Psi4 1.3.2 release

  ==> Input File <==

--------------------------------------------------------------------------
#psi4
#
memory 32 gb

molecule  {
0 1
  N       -1.7315076     0.6483216     0.1852781
  C       -0.8584400    -0.3593730    -0.1157050
  C        0.5958890    -0.1944310    -0.0686340
  C       -1.6095070    -1.4830350    -0.4543950
  C       -3.0364380     0.1798280     0.0590890
  C       -2.9750140    -1.1422740    -0.3482900
  C       -1.4212420     1.9838780     0.6691930
  C        1.2419450     0.8845030    -0.6969540
  C        1.3787110    -1.1624060     0.5835710
  C        2.6315710     1.0013490    -0.6546280
  C        2.7689430    -1.0546610     0.6054980
  C        3.3999180     0.0321080    -0.0053240
  H       -1.1930810    -2.4304870    -0.7739750
  H       -3.8823240     0.8199580     0.2740310
  H       -3.8253090    -1.7817070    -0.5476340
  H       -2.2212640     2.3282100     1.3272780
  H       -0.4870200     1.9493020     1.2305480
  H       -1.3139190     2.6883760    -0.1607770
  H        0.6536140     1.6152250    -1.2478990
  H        0.8812590    -1.9928010     1.0799670
  H        3.1173860     1.8412050    -1.1464900
  H        3.3610660    -1.8124130     1.1137600
  H        4.4833320     0.1209150     0.0205430
units angstrom
no_reorient  #important for SAPT in psi4, default
symmetry c1  #important for SAPT in psi4, default
}

set PROPERTIES_ORIGIN ["COM"]
properties('MP2/aug-cc-pvtz', properties = ['dipole'])
--------------------------------------------------------------------------

    Molecular point group: c1
  Charge       = 0
  Multiplicity = 1
  Basis Set: AUG-CC-PVTZ
    Blend: AUG-CC-PVTZ
  Basis Set: (AUG-CC-PVTZ AUX)
    Blend: AUG-CC-PVTZ-JKFIT

    Orbital Energies [Eh]
    ---------------------

    Doubly Occupied:

       1A    -15.607395     2A    -11.270627     3A    -11.256988
       4A    -11.250067     5A    -11.248212     6A    -11.240932
       7A    -11.239785     8A    -11.239459     9A    -11.238150
      10A    -11.237229    11A    -11.209807    12A    -11.205562
      13A     -1.298824    14A     -1.155096    15A     -1.073194
      16A     -1.043936    17A     -1.016355    18A     -0.956838
      19A     -0.932393    20A     -0.833622    21A     -0.830823
      22A     -0.770622    23A     -0.743086    24A     -0.712367
      25A     -0.677635    26A     -0.640208    27A     -0.631927
      28A     -0.622590    29A     -0.596703    30A     -0.587300
      31A     -0.573766    32A     -0.564228    33A     -0.538665
      34A     -0.526774    35A     -0.523531    36A     -0.502157
      37A     -0.494810    38A     -0.491825    39A     -0.353414
      40A     -0.340540    41A     -0.335868    42A     -0.275201

  @DF-RHF Final Energy:  -477.54542036554267

   => Energetics <=

    Nuclear Repulsion Energy =            639.2422276099549663
    One-Electron Energy =               -1913.7982764244666214
    Two-Electron Energy =                 797.0106284489688733
    Total Energy =                       -477.5454203655426682
  Basis Set: (AUG-CC-PVTZ AUX)
    Blend: AUG-CC-PVTZ-RI
    Molecular point group: c1

    Geometry (in Angstrom), charge = 0, multiplicity = 1:

       Center              X                  Y                   Z               Mass
    ------------   -----------------  -----------------  -----------------  -----------------
         N           -1.736091032036     0.669479705511     0.193846373765    14.003074004430
         C           -0.863023432036    -0.338214894489    -0.107136726235    12.000000000000
         C            0.591305567964    -0.173272894489    -0.060065726235    12.000000000000
         C           -1.614090432036    -1.461876894489    -0.445826726235    12.000000000000
         C           -3.041021432036     0.200986105511     0.067657273765    12.000000000000
         C           -2.979597432036    -1.121115894489    -0.339721726235    12.000000000000
         C           -1.425825432036     2.005036105511     0.677761273765    12.000000000000
         C            1.237361567964     0.905661105511    -0.688385726235    12.000000000000
         C            1.374127567964    -1.141247894489     0.592139273765    12.000000000000
         C            2.626987567964     1.022507105511    -0.646059726235    12.000000000000
         C            2.764359567964    -1.033502894489     0.614066273765    12.000000000000
         C            3.395334567964     0.053266105511     0.003244273765    12.000000000000
         H           -1.197664432036    -2.409328894489    -0.765406726235     1.007825032230
         H           -3.886907432036     0.841116105511     0.282599273765     1.007825032230
         H           -3.829892432036    -1.760548894489    -0.539065726235     1.007825032230
         H           -2.225847432036     2.349368105511     1.335846273765     1.007825032230
         H           -0.491603432036     1.970460105511     1.239116273765     1.007825032230
         H           -1.318502432036     2.709534105511    -0.152208726235     1.007825032230
         H            0.649030567964     1.636383105511    -1.239330726235     1.007825032230
         H            0.876675567964    -1.971642894489     1.088535273765     1.007825032230
         H            3.112802567964     1.862363105511    -1.137921726235     1.007825032230
         H            3.356482567964    -1.791254894489     1.122328273765     1.007825032230
         H            4.478748567964     0.142073105511     0.029111273765     1.007825032230

  Basis Set: AUG-CC-PVTZ
    Blend: AUG-CC-PVTZ
  Basis Set: (AUG-CC-PVTZ AUX)
    Blend: AUG-CC-PVTZ-JKFIT
	 Reference Energy          =    -477.5454203655426682 [Eh]
	 Singles Energy            =      -0.0000000000000000 [Eh]
	 Same-Spin Energy          =      -0.5391469472497666 [Eh]
	 Opposite-Spin Energy      =      -1.6832730119327093 [Eh]
	 Correlation Energy        =      -2.2224199591824760 [Eh]
	 Total Energy              =    -479.7678403247251708 [Eh]

	 ================> DF-SCS-MP2 Energies <==================
	-----------------------------------------------------------
	 SCS Same-Spin Scale       =       0.3333333333333333 [-]
	 SCS Opposite-Spin Scale   =       1.2000000000000000 [-]
	 SCS Same-Spin Energy      =      -0.1797156490832555 [Eh]
	 SCS Opposite-Spin Energy  =      -2.0199276143192511 [Eh]
	 SCS Correlation Energy    =      -2.1996432634025065 [Eh]
	 SCS Total Energy          =    -479.7450636289451609 [Eh]
	-----------------------------------------------------------

  Dipole Moment: [D]
     X:     0.4508      Y:     1.8540      Z:     0.6824     Total:     2.0264

*** Psi4 exiting successfully. Buy a developer a beer!
