                               Psi4 1.3.2 release

  ==> Input File <==

--------------------------------------------------------------------------
#psi4
#
memory 32 gb

molecule  {
0 1
  N       -1.7531090     0.6487580     0.1985890
  C       -0.8584400    -0.3593730    -0.1157050
  C        0.5528462    -0.1763114    -0.0836934
  C       -1.6095070    -1.4830350    -0.4543950
  C       -3.0364380     0.1798280     0.0590890
  C       -2.9750140    -1.1422740    -0.3482900
  C       -1.4212420     1.9838780     0.6691930
  C        1.2419450     0.8845030    -0.6969540
  C        1.3787110    -1.1624060     0.5835710
  C        2.6315710     1.0013490    -0.6546280
  C        2.7689430    -1.0546610     0.6054980
  C        3.3999180     0.0321080    -0.0053240
  H       -1.1930810    -2.4304870    -0.7739750
  H       -3.8823240     0.8199580     0.2740310
  H       -3.8253090    -1.7817070    -0.5476340
  H       -2.2212640     2.3282100     1.3272780
  H       -0.4870200     1.9493020     1.2305480
  H       -1.3139190     2.6883760    -0.1607770
  H        0.6536140     1.6152250    -1.2478990
  H        0.8812590    -1.9928010     1.0799670
  H        3.1173860     1.8412050    -1.1464900
  H        3.3610660    -1.8124130     1.1137600
  H        4.4833320     0.1209150     0.0205430
units angstrom
no_reorient  #important for SAPT in psi4, default
symmetry c1  #important for SAPT in psi4, default
}

set PROPERTIES_ORIGIN ["COM"]
properties('MP2/aug-cc-pvtz', properties = ['dipole'])
--------------------------------------------------------------------------

    Molecular point group: c1
  Charge       = 0
  Multiplicity = 1
  Basis Set: AUG-CC-PVTZ
    Blend: AUG-CC-PVTZ
  Basis Set: (AUG-CC-PVTZ AUX)
    Blend: AUG-CC-PVTZ-JKFIT

    Orbital Energies [Eh]
    ---------------------

    Doubly Occupied:

       1A    -15.608052     2A    -11.270895     3A    -11.254829
       4A    -11.251174     5A    -11.249948     6A    -11.241357
       7A    -11.240458     8A    -11.239326     9A    -11.238677
      10A    -11.237638    11A    -11.209730    12A    -11.208625
      13A     -1.300482    14A     -1.151150    15A     -1.074717
      16A     -1.047715    17A     -1.013588    18A     -0.955693
      19A     -0.934120    20A     -0.837266    21A     -0.827516
      22A     -0.772226    23A     -0.743898    24A     -0.712933
      25A     -0.679131    26A     -0.640375    27A     -0.632893
      28A     -0.621187    29A     -0.595835    30A     -0.584840
      31A     -0.570501    32A     -0.569589    33A     -0.539452
      34A     -0.528323    35A     -0.524814    36A     -0.505605
      37A     -0.495009    38A     -0.484808    39A     -0.354763
      40A     -0.338759    41A     -0.336155    42A     -0.273036

  @DF-RHF Final Energy:  -477.54137764288680

   => Energetics <=

    Nuclear Repulsion Energy =            639.1349528744683539
    One-Electron Energy =               -1913.5584900613062018
    Two-Electron Energy =                 796.8821595439510475
    Total Energy =                       -477.5413776428868005
  Basis Set: (AUG-CC-PVTZ AUX)
    Blend: AUG-CC-PVTZ-RI
    Molecular point group: c1

    Geometry (in Angstrom), charge = 0, multiplicity = 1:

       Center              X                  Y                   Z               Mass
    ------------   -----------------  -----------------  -----------------  -----------------
         N           -1.752478834495     0.668493052789     0.207121111383    14.003074004430
         C           -0.857809834495    -0.339637947211    -0.107172888617    12.000000000000
         C            0.553476365505    -0.156576347211    -0.075161288617    12.000000000000
         C           -1.608876834495    -1.463299947211    -0.445862888617    12.000000000000
         C           -3.035807834495     0.199563052789     0.067621111383    12.000000000000
         C           -2.974383834495    -1.122538947211    -0.339757888617    12.000000000000
         C           -1.420611834495     2.003613052789     0.677725111383    12.000000000000
         C            1.242575165505     0.904238052789    -0.688421888617    12.000000000000
         C            1.379341165505    -1.142670947211     0.592103111383    12.000000000000
         C            2.632201165505     1.021084052789    -0.646095888617    12.000000000000
         C            2.769573165505    -1.034925947211     0.614030111383    12.000000000000
         C            3.400548165505     0.051843052789     0.003208111383    12.000000000000
         H           -1.192450834495    -2.410751947211    -0.765442888617     1.007825032230
         H           -3.881693834495     0.839693052789     0.282563111383     1.007825032230
         H           -3.824678834495    -1.761971947211    -0.539101888617     1.007825032230
         H           -2.220633834495     2.347945052789     1.335810111383     1.007825032230
         H           -0.486389834495     1.969037052789     1.239080111383     1.007825032230
         H           -1.313288834495     2.708111052789    -0.152244888617     1.007825032230
         H            0.654244165505     1.634960052789    -1.239366888617     1.007825032230
         H            0.881889165505    -1.973065947211     1.088499111383     1.007825032230
         H            3.118016165505     1.860940052789    -1.137957888617     1.007825032230
         H            3.361696165505    -1.792677947211     1.122292111383     1.007825032230
         H            4.483962165505     0.140650052789     0.029075111383     1.007825032230

  Basis Set: AUG-CC-PVTZ
    Blend: AUG-CC-PVTZ
  Basis Set: (AUG-CC-PVTZ AUX)
    Blend: AUG-CC-PVTZ-JKFIT
	 Reference Energy          =    -477.5413776428868005 [Eh]
	 Singles Energy            =      -0.0000000000000000 [Eh]
	 Same-Spin Energy          =      -0.5399602473110696 [Eh]
	 Opposite-Spin Energy      =      -1.6844327666100645 [Eh]
	 Correlation Energy        =      -2.2243930139211341 [Eh]
	 Total Energy              =    -479.7657706568079448 [Eh]

	 ================> DF-SCS-MP2 Energies <==================
	-----------------------------------------------------------
	 SCS Same-Spin Scale       =       0.3333333333333333 [-]
	 SCS Opposite-Spin Scale   =       1.2000000000000000 [-]
	 SCS Same-Spin Energy      =      -0.1799867491036899 [Eh]
	 SCS Opposite-Spin Energy  =      -2.0213193199320774 [Eh]
	 SCS Correlation Energy    =      -2.2013060690357671 [Eh]
	 SCS Total Energy          =    -479.7426837119225524 [Eh]
	-----------------------------------------------------------

  Dipole Moment: [D]
     X:     0.3442      Y:     1.8455      Z:     0.6660     Total:     1.9920

*** Psi4 exiting successfully. Buy a developer a beer!
