                               Psi4 1.3.2 release

  ==> Input File <==

--------------------------------------------------------------------------
#psi4
#
memory 32 gb

molecule  {
0 1
  N       -1.7345439     0.6635703     0.2029961
  C       -0.8584400    -0.3593730    -0.1157050
  C        0.5958890    -0.1944310    -0.0686340
  C       -1.6095070    -1.4830350    -0.4543950
  C       -3.0364380     0.1798280     0.0590890
  C       -2.9750140    -1.1422740    -0.3482900
  C       -1.4212420     1.9838780     0.6691930
  C        1.2419450     0.8845030    -0.6969540
  C        1.3787110    -1.1624060     0.5835710
  C        2.6315710     1.0013490    -0.6546280
  C        2.7689430    -1.0546610     0.6054980
  C        3.3999180     0.0321080    -0.0053240
  H       -1.1930810    -2.4304870    -0.7739750
  H       -3.8823240     0.8199580     0.2740310
  H       -3.8253090    -1.7817070    -0.5476340
  H       -2.2212640     2.3282100     1.3272780
  H       -0.4870200     1.9493020     1.2305480
  H       -1.3139190     2.6883760    -0.1607770
  H        0.6536140     1.6152250    -1.2478990
  H        0.8812590    -1.9928010     1.0799670
  H        3.1173860     1.8412050    -1.1464900
  H        3.3610660    -1.8124130     1.1137600
  H        4.4833320     0.1209150     0.0205430
units angstrom
no_reorient  #important for SAPT in psi4, default
symmetry c1  #important for SAPT in psi4, default
}

set PROPERTIES_ORIGIN ["COM"]
properties('MP2/aug-cc-pvtz', properties = ['dipole'])
--------------------------------------------------------------------------

    Molecular point group: c1
  Charge       = 0
  Multiplicity = 1
  Basis Set: AUG-CC-PVTZ
    Blend: AUG-CC-PVTZ
  Basis Set: (AUG-CC-PVTZ AUX)
    Blend: AUG-CC-PVTZ-JKFIT

    Orbital Energies [Eh]
    ---------------------

    Doubly Occupied:

       1A    -15.606678     2A    -11.268534     3A    -11.258607
       4A    -11.250013     5A    -11.249843     6A    -11.240806
       7A    -11.239671     8A    -11.239344     9A    -11.238069
      10A    -11.237141    11A    -11.210652    12A    -11.207524
      13A     -1.295940    14A     -1.155033    15A     -1.076846
      16A     -1.043426    17A     -1.016274    18A     -0.954750
      19A     -0.932296    20A     -0.833314    21A     -0.830661
      22A     -0.770024    23A     -0.744000    24A     -0.712650
      25A     -0.677278    26A     -0.640349    27A     -0.631622
      28A     -0.622854    29A     -0.597240    30A     -0.587233
      31A     -0.575616    32A     -0.565088    33A     -0.538119
      34A     -0.526333    35A     -0.521369    36A     -0.501412
      37A     -0.494970    38A     -0.491269    39A     -0.353413
      40A     -0.340488    41A     -0.336094    42A     -0.275429

  @DF-RHF Final Energy:  -477.54482115921940

   => Energetics <=

    Nuclear Repulsion Energy =            638.9921359768868570
    One-Electron Energy =               -1913.2973640479906408
    Two-Electron Energy =                 796.7604069118843881
    Total Energy =                       -477.5448211592193957
  Basis Set: (AUG-CC-PVTZ AUX)
    Blend: AUG-CC-PVTZ-RI
    Molecular point group: c1

    Geometry (in Angstrom), charge = 0, multiplicity = 1:

       Center              X                  Y                   Z               Mass
    ------------   -----------------  -----------------  -----------------  -----------------
         N           -1.738856673409     0.683369122101     0.209984974639    14.003074004430
         C           -0.862752773409    -0.339574177899    -0.108716125361    12.000000000000
         C            0.591576226591    -0.174632177899    -0.061645125361    12.000000000000
         C           -1.613819773409    -1.463236177899    -0.447406125361    12.000000000000
         C           -3.040750773409     0.199626822101     0.066077874639    12.000000000000
         C           -2.979326773409    -1.122475177899    -0.341301125361    12.000000000000
         C           -1.425554773409     2.003676822101     0.676181874639    12.000000000000
         C            1.237632226591     0.904301822101    -0.689965125361    12.000000000000
         C            1.374398226591    -1.142607177899     0.590559874639    12.000000000000
         C            2.627258226591     1.021147822101    -0.647639125361    12.000000000000
         C            2.764630226591    -1.034862177899     0.612486874639    12.000000000000
         C            3.395605226591     0.051906822101     0.001664874639    12.000000000000
         H           -1.197393773409    -2.410688177899    -0.766986125361     1.007825032230
         H           -3.886636773409     0.839756822101     0.281019874639     1.007825032230
         H           -3.829621773409    -1.761908177899    -0.540645125361     1.007825032230
         H           -2.225576773409     2.348008822101     1.334266874639     1.007825032230
         H           -0.491332773409     1.969100822101     1.237536874639     1.007825032230
         H           -1.318231773409     2.708174822101    -0.153788125361     1.007825032230
         H            0.649301226591     1.635023822101    -1.240910125361     1.007825032230
         H            0.876946226591    -1.973002177899     1.086955874639     1.007825032230
         H            3.113073226591     1.861003822101    -1.139501125361     1.007825032230
         H            3.356753226591    -1.792614177899     1.120748874639     1.007825032230
         H            4.479019226591     0.140713822101     0.027531874639     1.007825032230

  Basis Set: AUG-CC-PVTZ
    Blend: AUG-CC-PVTZ
  Basis Set: (AUG-CC-PVTZ AUX)
    Blend: AUG-CC-PVTZ-JKFIT
	 Reference Energy          =    -477.5448211592193957 [Eh]
	 Singles Energy            =      -0.0000000000000000 [Eh]
	 Same-Spin Energy          =      -0.5391818214380862 [Eh]
	 Opposite-Spin Energy      =      -1.6834951820480488 [Eh]
	 Correlation Energy        =      -2.2226770034861350 [Eh]
	 Total Energy              =    -479.7674981627055217 [Eh]

	 ================> DF-SCS-MP2 Energies <==================
	-----------------------------------------------------------
	 SCS Same-Spin Scale       =       0.3333333333333333 [-]
	 SCS Opposite-Spin Scale   =       1.2000000000000000 [-]
	 SCS Same-Spin Energy      =      -0.1797272738126954 [Eh]
	 SCS Opposite-Spin Energy  =      -2.0201942184576587 [Eh]
	 SCS Correlation Energy    =      -2.1999214922703541 [Eh]
	 SCS Total Energy          =    -479.7447426514897302 [Eh]
	-----------------------------------------------------------

  Dipole Moment: [D]
     X:     0.4447      Y:     1.7862      Z:     0.6550     Total:     1.9538

*** Psi4 exiting successfully. Buy a developer a beer!
