                               Psi4 1.3.2 release

  ==> Input File <==

--------------------------------------------------------------------------
#psi4
#
memory 32 gb

molecule  {
0 1
  N       -1.7531090     0.6487580     0.1985890
  C       -0.8584400    -0.3593730    -0.1157050
  C        0.5958890    -0.1944310    -0.0686340
  C       -1.6095070    -1.4830350    -0.4543950
  C       -3.0186112     0.1380569     0.0437420
  C       -2.9750140    -1.1422740    -0.3482900
  C       -1.4212420     1.9838780     0.6691930
  C        1.2419450     0.8845030    -0.6969540
  C        1.3787110    -1.1624060     0.5835710
  C        2.6315710     1.0013490    -0.6546280
  C        2.7689430    -1.0546610     0.6054980
  C        3.3999180     0.0321080    -0.0053240
  H       -1.1930810    -2.4304870    -0.7739750
  H       -3.8823240     0.8199580     0.2740310
  H       -3.8253090    -1.7817070    -0.5476340
  H       -2.2212640     2.3282100     1.3272780
  H       -0.4870200     1.9493020     1.2305480
  H       -1.3139190     2.6883760    -0.1607770
  H        0.6536140     1.6152250    -1.2478990
  H        0.8812590    -1.9928010     1.0799670
  H        3.1173860     1.8412050    -1.1464900
  H        3.3610660    -1.8124130     1.1137600
  H        4.4833320     0.1209150     0.0205430
units angstrom
no_reorient  #important for SAPT in psi4, default
symmetry c1  #important for SAPT in psi4, default
}

set PROPERTIES_ORIGIN ["COM"]
properties('MP2/aug-cc-pvtz', properties = ['dipole'])
--------------------------------------------------------------------------

    Molecular point group: c1
  Charge       = 0
  Multiplicity = 1
  Basis Set: AUG-CC-PVTZ
    Blend: AUG-CC-PVTZ
  Basis Set: (AUG-CC-PVTZ AUX)
    Blend: AUG-CC-PVTZ-JKFIT

    Orbital Energies [Eh]
    ---------------------

    Doubly Occupied:

       1A    -15.604238     2A    -11.271230     3A    -11.255979
       4A    -11.249649     5A    -11.247228     6A    -11.240520
       7A    -11.239341     8A    -11.239032     9A    -11.237737
      10A    -11.236740    11A    -11.206129    12A    -11.202696
      13A     -1.299989    14A     -1.154789    15A     -1.077885
      16A     -1.044839    17A     -1.015974    18A     -0.956289
      19A     -0.934095    20A     -0.833295    21A     -0.830189
      22A     -0.769963    23A     -0.741177    24A     -0.712943
      25A     -0.675953    26A     -0.639387    27A     -0.628844
      28A     -0.621996    29A     -0.595514    30A     -0.586902
      31A     -0.575688    32A     -0.564982    33A     -0.532830
      34A     -0.530814    35A     -0.524520    36A     -0.501283
      37A     -0.494895    38A     -0.491774    39A     -0.354133
      40A     -0.340543    41A     -0.337162    42A     -0.277666

  @DF-RHF Final Energy:  -477.54402155985645

   => Energetics <=

    Nuclear Repulsion Energy =            639.7276728351422435
    One-Electron Energy =               -1914.7897245141473377
    Two-Electron Energy =                 797.5180301191485341
    Total Energy =                       -477.5440215598564464
  Basis Set: (AUG-CC-PVTZ AUX)
    Blend: AUG-CC-PVTZ-RI
    Molecular point group: c1

    Geometry (in Angstrom), charge = 0, multiplicity = 1:

       Center              X                  Y                   Z               Mass
    ------------   -----------------  -----------------  -----------------  -----------------
         N           -1.757128647694     0.673068088067     0.207143081074    14.003074004430
         C           -0.862459647694    -0.335062911933    -0.107150918926    12.000000000000
         C            0.591869352306    -0.170120911933    -0.060079918926    12.000000000000
         C           -1.613526647694    -1.458724911933    -0.445840918926    12.000000000000
         C           -3.022630847694     0.162366988067     0.052296081074    12.000000000000
         C           -2.979033647694    -1.117963911933    -0.339735918926    12.000000000000
         C           -1.425261647694     2.008188088067     0.677747081074    12.000000000000
         C            1.237925352306     0.908813088067    -0.688399918926    12.000000000000
         C            1.374691352306    -1.138095911933     0.592125081074    12.000000000000
         C            2.627551352306     1.025659088067    -0.646073918926    12.000000000000
         C            2.764923352306    -1.030350911933     0.614052081074    12.000000000000
         C            3.395898352306     0.056418088067     0.003230081074    12.000000000000
         H           -1.197100647694    -2.406176911933    -0.765420918926     1.007825032230
         H           -3.886343647694     0.844268088067     0.282585081074     1.007825032230
         H           -3.829328647694    -1.757396911933    -0.539079918926     1.007825032230
         H           -2.225283647694     2.352520088067     1.335832081074     1.007825032230
         H           -0.491039647694     1.973612088067     1.239102081074     1.007825032230
         H           -1.317938647694     2.712686088067    -0.152222918926     1.007825032230
         H            0.649594352306     1.639535088067    -1.239344918926     1.007825032230
         H            0.877239352306    -1.968490911933     1.088521081074     1.007825032230
         H            3.113366352306     1.865515088067    -1.137935918926     1.007825032230
         H            3.357046352306    -1.788102911933     1.122314081074     1.007825032230
         H            4.479312352306     0.145225088067     0.029097081074     1.007825032230

  Basis Set: AUG-CC-PVTZ
    Blend: AUG-CC-PVTZ
  Basis Set: (AUG-CC-PVTZ AUX)
    Blend: AUG-CC-PVTZ-JKFIT
	 Reference Energy          =    -477.5440215598564464 [Eh]
	 Singles Energy            =      -0.0000000000000000 [Eh]
	 Same-Spin Energy          =      -0.5386457664010456 [Eh]
	 Opposite-Spin Energy      =      -1.6823727552005983 [Eh]
	 Correlation Energy        =      -2.2210185216016436 [Eh]
	 Total Energy              =    -479.7650400814580962 [Eh]

	 ================> DF-SCS-MP2 Energies <==================
	-----------------------------------------------------------
	 SCS Same-Spin Scale       =       0.3333333333333333 [-]
	 SCS Opposite-Spin Scale   =       1.2000000000000000 [-]
	 SCS Same-Spin Energy      =      -0.1795485888003485 [Eh]
	 SCS Opposite-Spin Energy  =      -2.0188473062407177 [Eh]
	 SCS Correlation Energy    =      -2.1983958950410663 [Eh]
	 SCS Total Energy          =    -479.7424174548975202 [Eh]
	-----------------------------------------------------------

  Dipole Moment: [D]
     X:     0.4201      Y:     1.8341      Z:     0.6722     Total:     1.9981

*** Psi4 exiting successfully. Buy a developer a beer!
