                               Psi4 1.3.2 release

  ==> Input File <==

--------------------------------------------------------------------------
#psi4
#
memory 32 gb

molecule  {
0 1
  N       -1.7531090     0.6487580     0.1985890
  C       -0.8614838    -0.3166526    -0.1436056
  C        0.5958890    -0.1944310    -0.0686340
  C       -1.6095070    -1.4830350    -0.4543950
  C       -3.0364380     0.1798280     0.0590890
  C       -2.9750140    -1.1422740    -0.3482900
  C       -1.4212420     1.9838780     0.6691930
  C        1.2419450     0.8845030    -0.6969540
  C        1.3787110    -1.1624060     0.5835710
  C        2.6315710     1.0013490    -0.6546280
  C        2.7689430    -1.0546610     0.6054980
  C        3.3999180     0.0321080    -0.0053240
  H       -1.1930810    -2.4304870    -0.7739750
  H       -3.8823240     0.8199580     0.2740310
  H       -3.8253090    -1.7817070    -0.5476340
  H       -2.2212640     2.3282100     1.3272780
  H       -0.4870200     1.9493020     1.2305480
  H       -1.3139190     2.6883760    -0.1607770
  H        0.6536140     1.6152250    -1.2478990
  H        0.8812590    -1.9928010     1.0799670
  H        3.1173860     1.8412050    -1.1464900
  H        3.3610660    -1.8124130     1.1137600
  H        4.4833320     0.1209150     0.0205430
units angstrom
no_reorient  #important for SAPT in psi4, default
symmetry c1  #important for SAPT in psi4, default
}

set PROPERTIES_ORIGIN ["COM"]
properties('MP2/aug-cc-pvtz', properties = ['dipole'])
--------------------------------------------------------------------------

    Molecular point group: c1
  Charge       = 0
  Multiplicity = 1
  Basis Set: AUG-CC-PVTZ
    Blend: AUG-CC-PVTZ
  Basis Set: (AUG-CC-PVTZ AUX)
    Blend: AUG-CC-PVTZ-JKFIT

    Orbital Energies [Eh]
    ---------------------

    Doubly Occupied:

       1A    -15.610954     2A    -11.271888     3A    -11.257456
       4A    -11.250389     5A    -11.246443     6A    -11.240451
       7A    -11.239843     8A    -11.238893     9A    -11.238209
      10A    -11.237769    11A    -11.209182    12A    -11.207361
      13A     -1.305832    14A     -1.155192    15A     -1.071571
      16A     -1.044464    17A     -1.016291    18A     -0.956662
      19A     -0.934652    20A     -0.833590    21A     -0.830684
      22A     -0.771775    23A     -0.742737    24A     -0.713126
      25A     -0.678049    26A     -0.642386    27A     -0.632846
      28A     -0.622779    29A     -0.597982    30A     -0.587511
      31A     -0.573692    32A     -0.565844    33A     -0.536470
      34A     -0.527310    35A     -0.524736    36A     -0.503097
      37A     -0.494363    38A     -0.490303    39A     -0.352767
      40A     -0.340517    41A     -0.335929    42A     -0.272616

  @DF-RHF Final Energy:  -477.54379510990111

   => Energetics <=

    Nuclear Repulsion Energy =            639.2022267959958981
    One-Electron Energy =               -1913.6828225532719898
    Two-Electron Energy =                 796.9368006473750938
    Total Energy =                       -477.5437951099011116
  Basis Set: (AUG-CC-PVTZ AUX)
    Blend: AUG-CC-PVTZ-RI
    Molecular point group: c1

    Geometry (in Angstrom), charge = 0, multiplicity = 1:

       Center              X                  Y                   Z               Mass
    ------------   -----------------  -----------------  -----------------  -----------------
         N           -1.755534347890     0.666613803960     0.208102047372    14.003074004430
         C           -0.863909147890    -0.298796796040    -0.134092552628    12.000000000000
         C            0.593463652110    -0.176575196040    -0.059120952628    12.000000000000
         C           -1.611932347890    -1.465179196040    -0.444881952628    12.000000000000
         C           -3.038863347890     0.197683803960     0.068602047372    12.000000000000
         C           -2.977439347890    -1.124418196040    -0.338776952628    12.000000000000
         C           -1.423667347890     2.001733803960     0.678706047372    12.000000000000
         C            1.239519652110     0.902358803960    -0.687440952628    12.000000000000
         C            1.376285652110    -1.144550196040     0.593084047372    12.000000000000
         C            2.629145652110     1.019204803960    -0.645114952628    12.000000000000
         C            2.766517652110    -1.036805196040     0.615011047372    12.000000000000
         C            3.397492652110     0.049963803960     0.004189047372    12.000000000000
         H           -1.195506347890    -2.412631196040    -0.764461952628     1.007825032230
         H           -3.884749347890     0.837813803960     0.283544047372     1.007825032230
         H           -3.827734347890    -1.763851196040    -0.538120952628     1.007825032230
         H           -2.223689347890     2.346065803960     1.336791047372     1.007825032230
         H           -0.489445347890     1.967157803960     1.240061047372     1.007825032230
         H           -1.316344347890     2.706231803960    -0.151263952628     1.007825032230
         H            0.651188652110     1.633080803960    -1.238385952628     1.007825032230
         H            0.878833652110    -1.974945196040     1.089480047372     1.007825032230
         H            3.114960652110     1.859060803960    -1.136976952628     1.007825032230
         H            3.358640652110    -1.794557196040     1.123273047372     1.007825032230
         H            4.480906652110     0.138770803960     0.030056047372     1.007825032230

  Basis Set: AUG-CC-PVTZ
    Blend: AUG-CC-PVTZ
  Basis Set: (AUG-CC-PVTZ AUX)
    Blend: AUG-CC-PVTZ-JKFIT
	 Reference Energy          =    -477.5437951099011116 [Eh]
	 Singles Energy            =      -0.0000000000000000 [Eh]
	 Same-Spin Energy          =      -0.5395837470226854 [Eh]
	 Opposite-Spin Energy      =      -1.6835713747103211 [Eh]
	 Correlation Energy        =      -2.2231551217330066 [Eh]
	 Total Energy              =    -479.7669502316340981 [Eh]

	 ================> DF-SCS-MP2 Energies <==================
	-----------------------------------------------------------
	 SCS Same-Spin Scale       =       0.3333333333333333 [-]
	 SCS Opposite-Spin Scale   =       1.2000000000000000 [-]
	 SCS Same-Spin Energy      =      -0.1798612490075618 [Eh]
	 SCS Opposite-Spin Energy  =      -2.0202856496523851 [Eh]
	 SCS Correlation Energy    =      -2.2001468986599471 [Eh]
	 SCS Total Energy          =    -479.7439420085610777 [Eh]
	-----------------------------------------------------------

  Dipole Moment: [D]
     X:     0.4471      Y:     1.9053      Z:     0.7097     Total:     2.0817

*** Psi4 exiting successfully. Buy a developer a beer!
