                               Psi4 1.3.2 release

  ==> Input File <==

--------------------------------------------------------------------------
#psi4
#
memory 32 gb

molecule  {
0 1
  N       -1.7531090     0.6487580     0.1985890
  C       -0.8584400    -0.3593730    -0.1157050
  C        0.5958890    -0.1944310    -0.0686340
  C       -1.6095070    -1.4830350    -0.4543950
  C       -3.0364380     0.1798280     0.0590890
  C       -2.9468009    -1.0529879    -0.3176832
  C       -1.4212420     1.9838780     0.6691930
  C        1.2419450     0.8845030    -0.6969540
  C        1.3787110    -1.1624060     0.5835710
  C        2.6315710     1.0013490    -0.6546280
  C        2.7689430    -1.0546610     0.6054980
  C        3.3999180     0.0321080    -0.0053240
  H       -1.1930810    -2.4304870    -0.7739750
  H       -3.8823240     0.8199580     0.2740310
  H       -3.8253090    -1.7817070    -0.5476340
  H       -2.2212640     2.3282100     1.3272780
  H       -0.4870200     1.9493020     1.2305480
  H       -1.3139190     2.6883760    -0.1607770
  H        0.6536140     1.6152250    -1.2478990
  H        0.8812590    -1.9928010     1.0799670
  H        3.1173860     1.8412050    -1.1464900
  H        3.3610660    -1.8124130     1.1137600
  H        4.4833320     0.1209150     0.0205430
units angstrom
no_reorient  #important for SAPT in psi4, default
symmetry c1  #important for SAPT in psi4, default
}

set PROPERTIES_ORIGIN ["COM"]
properties('MP2/aug-cc-pvtz', properties = ['dipole'])
--------------------------------------------------------------------------

    Molecular point group: c1
  Charge       = 0
  Multiplicity = 1
  Basis Set: AUG-CC-PVTZ
    Blend: AUG-CC-PVTZ
  Basis Set: (AUG-CC-PVTZ AUX)
    Blend: AUG-CC-PVTZ-JKFIT

    Orbital Energies [Eh]
    ---------------------

    Doubly Occupied:

       1A    -15.599778     2A    -11.268058     3A    -11.258595
       4A    -11.250097     5A    -11.241117     6A    -11.240067
       7A    -11.239703     8A    -11.238542     9A    -11.237722
      10A    -11.235320    11A    -11.204503    12A    -11.202925
      13A     -1.302260    14A     -1.155665    15A     -1.078317
      16A     -1.047785    17A     -1.016650    18A     -0.963493
      19A     -0.927921    20A     -0.836575    21A     -0.830784
      22A     -0.767160    23A     -0.743084    24A     -0.708420
      25A     -0.678832    26A     -0.640111    27A     -0.632501
      28A     -0.621751    29A     -0.593289    30A     -0.587582
      31A     -0.572790    32A     -0.564203    33A     -0.546041
      34A     -0.528799    35A     -0.514022    36A     -0.502846
      37A     -0.493457    38A     -0.487318    39A     -0.355914
      40A     -0.340720    41A     -0.335688    42A     -0.283333

  @DF-RHF Final Energy:  -477.53413060910395

   => Energetics <=

    Nuclear Repulsion Energy =            640.9569827441829375
    One-Electron Energy =               -1917.2347526496826049
    Two-Electron Energy =                 798.7436392963955996
    Total Energy =                       -477.5341306091039542
  Basis Set: (AUG-CC-PVTZ AUX)
    Blend: AUG-CC-PVTZ-RI
    Molecular point group: c1

    Geometry (in Angstrom), charge = 0, multiplicity = 1:

       Center              X                  Y                   Z               Mass
    ------------   -----------------  -----------------  -----------------  -----------------
         N           -1.757922054498     0.663056662030     0.203632682028    14.003074004430
         C           -0.863253054498    -0.345074337970    -0.110661317972    12.000000000000
         C            0.591075945502    -0.180132337970    -0.063590317972    12.000000000000
         C           -1.614320054498    -1.468736337970    -0.449351317972    12.000000000000
         C           -3.041251054498     0.194126662030     0.064132682028    12.000000000000
         C           -2.951613954498    -1.038689237970    -0.312639517972    12.000000000000
         C           -1.426055054498     1.998176662030     0.674236682028    12.000000000000
         C            1.237131945502     0.898801662030    -0.691910317972    12.000000000000
         C            1.373897945502    -1.148107337970     0.588614682028    12.000000000000
         C            2.626757945502     1.015647662030    -0.649584317972    12.000000000000
         C            2.764129945502    -1.040362337970     0.610541682028    12.000000000000
         C            3.395104945502     0.046406662030    -0.000280317972    12.000000000000
         H           -1.197894054498    -2.416188337970    -0.768931317972     1.007825032230
         H           -3.887137054498     0.834256662030     0.279074682028     1.007825032230
         H           -3.830122054498    -1.767408337970    -0.542590317972     1.007825032230
         H           -2.226077054498     2.342508662030     1.332321682028     1.007825032230
         H           -0.491833054498     1.963600662030     1.235591682028     1.007825032230
         H           -1.318732054498     2.702674662030    -0.155733317972     1.007825032230
         H            0.648800945502     1.629523662030    -1.242855317972     1.007825032230
         H            0.876445945502    -1.978502337970     1.085010682028     1.007825032230
         H            3.112572945502     1.855503662030    -1.141446317972     1.007825032230
         H            3.356252945502    -1.798114337970     1.118803682028     1.007825032230
         H            4.478518945502     0.135213662030     0.025586682028     1.007825032230

  Basis Set: AUG-CC-PVTZ
    Blend: AUG-CC-PVTZ
  Basis Set: (AUG-CC-PVTZ AUX)
    Blend: AUG-CC-PVTZ-JKFIT
	 Reference Energy          =    -477.5341306091039542 [Eh]
	 Singles Energy            =      -0.0000000000000000 [Eh]
	 Same-Spin Energy          =      -0.5383615891363324 [Eh]
	 Opposite-Spin Energy      =      -1.6817683998023953 [Eh]
	 Correlation Energy        =      -2.2201299889387278 [Eh]
	 Total Energy              =    -479.7542605980426629 [Eh]

	 ================> DF-SCS-MP2 Energies <==================
	-----------------------------------------------------------
	 SCS Same-Spin Scale       =       0.3333333333333333 [-]
	 SCS Opposite-Spin Scale   =       1.2000000000000000 [-]
	 SCS Same-Spin Energy      =      -0.1794538630454441 [Eh]
	 SCS Opposite-Spin Energy  =      -2.0181220797628745 [Eh]
	 SCS Correlation Energy    =      -2.1975759428083186 [Eh]
	 SCS Total Energy          =    -479.7317065519122821 [Eh]
	-----------------------------------------------------------

  Dipole Moment: [D]
     X:     0.4624      Y:     1.8193      Z:     0.6594     Total:     1.9896

*** Psi4 exiting successfully. Buy a developer a beer!
