                               Psi4 1.3.2 release

  ==> Input File <==

--------------------------------------------------------------------------
#psi4
#
memory 32 gb

molecule  {
0 1
  N       -1.7531090     0.6487580     0.1985890
  C       -0.8584400    -0.3593730    -0.1157050
  C        0.5803827    -0.0977421    -0.0393327
  C       -1.6095070    -1.4830350    -0.4543950
  C       -3.0364380     0.1798280     0.0590890
  C       -2.9750140    -1.1422740    -0.3482900
  C       -1.4212420     1.9838780     0.6691930
  C        1.2419450     0.8845030    -0.6969540
  C        1.3787110    -1.1624060     0.5835710
  C        2.6315710     1.0013490    -0.6546280
  C        2.7689430    -1.0546610     0.6054980
  C        3.3999180     0.0321080    -0.0053240
  H       -1.1930810    -2.4304870    -0.7739750
  H       -3.8823240     0.8199580     0.2740310
  H       -3.8253090    -1.7817070    -0.5476340
  H       -2.2212640     2.3282100     1.3272780
  H       -0.4870200     1.9493020     1.2305480
  H       -1.3139190     2.6883760    -0.1607770
  H        0.6536140     1.6152250    -1.2478990
  H        0.8812590    -1.9928010     1.0799670
  H        3.1173860     1.8412050    -1.1464900
  H        3.3610660    -1.8124130     1.1137600
  H        4.4833320     0.1209150     0.0205430
units angstrom
no_reorient  #important for SAPT in psi4, default
symmetry c1  #important for SAPT in psi4, default
}

set PROPERTIES_ORIGIN ["COM"]
properties('MP2/aug-cc-pvtz', properties = ['dipole'])
--------------------------------------------------------------------------

    Molecular point group: c1
  Charge       = 0
  Multiplicity = 1
  Basis Set: AUG-CC-PVTZ
    Blend: AUG-CC-PVTZ
  Basis Set: (AUG-CC-PVTZ AUX)
    Blend: AUG-CC-PVTZ-JKFIT

    Orbital Energies [Eh]
    ---------------------

    Doubly Occupied:

       1A    -15.605688     2A    -11.270202     3A    -11.257386
       4A    -11.250256     5A    -11.247830     6A    -11.243704
       7A    -11.240661     8A    -11.239344     9A    -11.238030
      10A    -11.235217    11A    -11.209308    12A    -11.208131
      13A     -1.298862    14A     -1.154834    15A     -1.072813
      16A     -1.045855    17A     -1.015109    18A     -0.955920
      19A     -0.933291    20A     -0.836574    21A     -0.826676
      22A     -0.771665    23A     -0.742081    24A     -0.712076
      25A     -0.678819    26A     -0.639321    27A     -0.631446
      28A     -0.623653    29A     -0.594172    30A     -0.587771
      31A     -0.569755    32A     -0.566993    33A     -0.538380
      34A     -0.527317    35A     -0.523624    36A     -0.504603
      37A     -0.498936    38A     -0.483272    39A     -0.357855
      40A     -0.336425    41A     -0.335478    42A     -0.275346

  @DF-RHF Final Energy:  -477.53750979436956

   => Energetics <=

    Nuclear Repulsion Energy =            639.2054369034939327
    One-Electron Energy =               -1913.7165363806138885
    Two-Electron Energy =                 796.9735896827503439
    Total Energy =                       -477.5375097943694982
  Basis Set: (AUG-CC-PVTZ AUX)
    Blend: AUG-CC-PVTZ-RI
    Molecular point group: c1

    Geometry (in Angstrom), charge = 0, multiplicity = 1:

       Center              X                  Y                   Z               Mass
    ------------   -----------------  -----------------  -----------------  -----------------
         N           -1.754582340698     0.662491164028     0.203732408840    14.003074004430
         C           -0.859913340698    -0.345639835972    -0.110561591160    12.000000000000
         C            0.578909359302    -0.084008935972    -0.034189291160    12.000000000000
         C           -1.610980340698    -1.469301835972    -0.449251591160    12.000000000000
         C           -3.037911340698     0.193561164028     0.064232408840    12.000000000000
         C           -2.976487340698    -1.128540835972    -0.343146591160    12.000000000000
         C           -1.422715340698     1.997611164028     0.674336408840    12.000000000000
         C            1.240471659302     0.898236164028    -0.691810591160    12.000000000000
         C            1.377237659302    -1.148672835972     0.588714408840    12.000000000000
         C            2.630097659302     1.015082164028    -0.649484591160    12.000000000000
         C            2.767469659302    -1.040927835972     0.610641408840    12.000000000000
         C            3.398444659302     0.045841164028    -0.000180591160    12.000000000000
         H           -1.194554340698    -2.416753835972    -0.768831591160     1.007825032230
         H           -3.883797340698     0.833691164028     0.279174408840     1.007825032230
         H           -3.826782340698    -1.767973835972    -0.542490591160     1.007825032230
         H           -2.222737340698     2.341943164028     1.332421408840     1.007825032230
         H           -0.488493340698     1.963035164028     1.235691408840     1.007825032230
         H           -1.315392340698     2.702109164028    -0.155633591160     1.007825032230
         H            0.652140659302     1.628958164028    -1.242755591160     1.007825032230
         H            0.879785659302    -1.979067835972     1.085110408840     1.007825032230
         H            3.115912659302     1.854938164028    -1.141346591160     1.007825032230
         H            3.359592659302    -1.798679835972     1.118903408840     1.007825032230
         H            4.481858659302     0.134648164028     0.025686408840     1.007825032230

  Basis Set: AUG-CC-PVTZ
    Blend: AUG-CC-PVTZ
  Basis Set: (AUG-CC-PVTZ AUX)
    Blend: AUG-CC-PVTZ-JKFIT
	 Reference Energy          =    -477.5375097943695550 [Eh]
	 Singles Energy            =      -0.0000000000000000 [Eh]
	 Same-Spin Energy          =      -0.5394085184098372 [Eh]
	 Opposite-Spin Energy      =      -1.6841129787170697 [Eh]
	 Correlation Energy        =      -2.2235214971269066 [Eh]
	 Total Energy              =    -479.7610312914964652 [Eh]

	 ================> DF-SCS-MP2 Energies <==================
	-----------------------------------------------------------
	 SCS Same-Spin Scale       =       0.3333333333333333 [-]
	 SCS Opposite-Spin Scale   =       1.2000000000000000 [-]
	 SCS Same-Spin Energy      =      -0.1798028394699457 [Eh]
	 SCS Opposite-Spin Energy  =      -2.0209355744604833 [Eh]
	 SCS Correlation Energy    =      -2.2007384139304289 [Eh]
	 SCS Total Energy          =    -479.7382482082999786 [Eh]
	-----------------------------------------------------------

  Dipole Moment: [D]
     X:     0.4900      Y:     1.8360      Z:     0.6578     Total:     2.0109

*** Psi4 exiting successfully. Buy a developer a beer!
