                               Psi4 1.3.2 release

  ==> Input File <==

--------------------------------------------------------------------------
#psi4
#
memory 32 gb

molecule  {
0 1
  N       -1.7531090     0.6487580     0.1985890
  C       -0.8584400    -0.3593730    -0.1157050
  C        0.5958890    -0.1944310    -0.0686340
  C       -1.6095070    -1.4830350    -0.4543950
  C       -3.0364380     0.1798280     0.0590890
  C       -2.9750140    -1.1422740    -0.3482900
  C       -1.4212420     1.9838780     0.6691930
  C        1.2419450     0.8845030    -0.6969540
  C        1.3787110    -1.1624060     0.5835710
  C        2.6315710     1.0013490    -0.6546280
  C        2.7689430    -1.0546610     0.6054980
  C        3.3999180     0.0321080    -0.0053240
  H       -1.1930810    -2.4304870    -0.7739750
  H       -3.7260191     0.7016732     0.2343135
  H       -3.8253090    -1.7817070    -0.5476340
  H       -2.2212640     2.3282100     1.3272780
  H       -0.4870200     1.9493020     1.2305480
  H       -1.3139190     2.6883760    -0.1607770
  H        0.6536140     1.6152250    -1.2478990
  H        0.8812590    -1.9928010     1.0799670
  H        3.1173860     1.8412050    -1.1464900
  H        3.3610660    -1.8124130     1.1137600
  H        4.4833320     0.1209150     0.0205430
units angstrom
no_reorient  #important for SAPT in psi4, default
symmetry c1  #important for SAPT in psi4, default
}

set PROPERTIES_ORIGIN ["COM"]
properties('MP2/aug-cc-pvtz', properties = ['dipole'])
--------------------------------------------------------------------------

    Molecular point group: c1
  Charge       = 0
  Multiplicity = 1
  Basis Set: AUG-CC-PVTZ
    Blend: AUG-CC-PVTZ
  Basis Set: (AUG-CC-PVTZ AUX)
    Blend: AUG-CC-PVTZ-JKFIT

    Orbital Energies [Eh]
    ---------------------

    Doubly Occupied:

       1A    -15.606397     2A    -11.270899     3A    -11.256022
       4A    -11.249937     5A    -11.240650     6A    -11.239490
       7A    -11.239183     8A    -11.237881     9A    -11.236944
      10A    -11.225075    11A    -11.207488    12A    -11.206085
      13A     -1.298670    14A     -1.155071    15A     -1.072717
      16A     -1.046056    17A     -1.016095    18A     -0.967664
      19A     -0.933265    20A     -0.841743    21A     -0.830531
      22A     -0.782717    23A     -0.751292    24A     -0.714299
      25A     -0.687215    26A     -0.645428    27A     -0.636578
      28A     -0.622706    29A     -0.599326    30A     -0.587200
      31A     -0.573615    32A     -0.568390    33A     -0.543136
      34A     -0.527511    35A     -0.523852    36A     -0.502384
      37A     -0.494803    38A     -0.491650    39A     -0.353819
      40A     -0.340133    41A     -0.334518    42A     -0.275109

  @DF-RHF Final Energy:  -477.51006918142389

   => Energetics <=

    Nuclear Repulsion Energy =            640.2602460660041288
    One-Electron Energy =               -1915.6735380030972919
    Two-Electron Energy =                 797.9032227556692760
    Total Energy =                       -477.5100691814238871
  Basis Set: (AUG-CC-PVTZ AUX)
    Blend: AUG-CC-PVTZ-RI
    Molecular point group: c1

    Geometry (in Angstrom), charge = 0, multiplicity = 1:

       Center              X                  Y                   Z               Mass
    ------------   -----------------  -----------------  -----------------  -----------------
         N           -1.756769656577     0.670636075294     0.206225540239    14.003074004430
         C           -0.862100656577    -0.337494924706    -0.108068459761    12.000000000000
         C            0.592228343423    -0.172552924706    -0.060997459761    12.000000000000
         C           -1.613167656577    -1.461156924706    -0.446758459761    12.000000000000
         C           -3.040098656577     0.201706075294     0.066725540239    12.000000000000
         C           -2.978674656577    -1.120395924706    -0.340653459761    12.000000000000
         C           -1.424902656577     2.005756075294     0.676829540239    12.000000000000
         C            1.238284343423     0.906381075294    -0.689317459761    12.000000000000
         C            1.375050343423    -1.140527924706     0.591207540239    12.000000000000
         C            2.627910343423     1.023227075294    -0.646991459761    12.000000000000
         C            2.765282343423    -1.032782924706     0.613134540239    12.000000000000
         C            3.396257343423     0.053986075294     0.002312540239    12.000000000000
         H           -1.196741656577    -2.408608924706    -0.766338459761     1.007825032230
         H           -3.729679756577     0.723551275294     0.241950040239     1.007825032230
         H           -3.828969656577    -1.759828924706    -0.539997459761     1.007825032230
         H           -2.224924656577     2.350088075294     1.334914540239     1.007825032230
         H           -0.490680656577     1.971180075294     1.238184540239     1.007825032230
         H           -1.317579656577     2.710254075294    -0.153140459761     1.007825032230
         H            0.649953343423     1.637103075294    -1.240262459761     1.007825032230
         H            0.877598343423    -1.970922924706     1.087603540239     1.007825032230
         H            3.113725343423     1.863083075294    -1.138853459761     1.007825032230
         H            3.357405343423    -1.790534924706     1.121396540239     1.007825032230
         H            4.479671343423     0.142793075294     0.028179540239     1.007825032230

  Basis Set: AUG-CC-PVTZ
    Blend: AUG-CC-PVTZ
  Basis Set: (AUG-CC-PVTZ AUX)
    Blend: AUG-CC-PVTZ-JKFIT
	 Reference Energy          =    -477.5100691814238871 [Eh]
	 Singles Energy            =      -0.0000000000000000 [Eh]
	 Same-Spin Energy          =      -0.5389127833173831 [Eh]
	 Opposite-Spin Energy      =      -1.6825151641482929 [Eh]
	 Correlation Energy        =      -2.2214279474656760 [Eh]
	 Total Energy              =    -479.7314971288895435 [Eh]

	 ================> DF-SCS-MP2 Energies <==================
	-----------------------------------------------------------
	 SCS Same-Spin Scale       =       0.3333333333333333 [-]
	 SCS Opposite-Spin Scale   =       1.2000000000000000 [-]
	 SCS Same-Spin Energy      =      -0.1796375944391277 [Eh]
	 SCS Opposite-Spin Energy  =      -2.0190181969779513 [Eh]
	 SCS Correlation Energy    =      -2.1986557914170790 [Eh]
	 SCS Total Energy          =    -479.7087249728409688 [Eh]
	-----------------------------------------------------------

  Dipole Moment: [D]
     X:     0.4679      Y:     1.8665      Z:     0.6796     Total:     2.0408

*** Psi4 exiting successfully. Buy a developer a beer!
