                               Psi4 1.3.2 release

  ==> Input File <==

--------------------------------------------------------------------------
#psi4
#
memory 32 gb

molecule  {
0 1
  N       -1.7098117     0.6482920     0.1721147
  C       -0.8584400    -0.3593730    -0.1157050
  C        0.5958890    -0.1944310    -0.0686340
  C       -1.6095070    -1.4830350    -0.4543950
  C       -3.0364380     0.1798280     0.0590890
  C       -2.9750140    -1.1422740    -0.3482900
  C       -1.4212420     1.9838780     0.6691930
  C        1.2419450     0.8845030    -0.6969540
  C        1.3787110    -1.1624060     0.5835710
  C        2.6315710     1.0013490    -0.6546280
  C        2.7689430    -1.0546610     0.6054980
  C        3.3999180     0.0321080    -0.0053240
  H       -1.1930810    -2.4304870    -0.7739750
  H       -3.8823240     0.8199580     0.2740310
  H       -3.8253090    -1.7817070    -0.5476340
  H       -2.2212640     2.3282100     1.3272780
  H       -0.4870200     1.9493020     1.2305480
  H       -1.3139190     2.6883760    -0.1607770
  H        0.6536140     1.6152250    -1.2478990
  H        0.8812590    -1.9928010     1.0799670
  H        3.1173860     1.8412050    -1.1464900
  H        3.3610660    -1.8124130     1.1137600
  H        4.4833320     0.1209150     0.0205430
units angstrom
no_reorient  #important for SAPT in psi4, default
symmetry c1  #important for SAPT in psi4, default
}

set PROPERTIES_ORIGIN ["COM"]
properties('MP2/aug-cc-pvtz', properties = ['dipole'])
--------------------------------------------------------------------------

    Molecular point group: c1
  Charge       = 0
  Multiplicity = 1
  Basis Set: AUG-CC-PVTZ
    Blend: AUG-CC-PVTZ
  Basis Set: (AUG-CC-PVTZ AUX)
    Blend: AUG-CC-PVTZ-JKFIT

    Orbital Energies [Eh]
    ---------------------

    Doubly Occupied:

       1A    -15.607181     2A    -11.270704     3A    -11.257495
       4A    -11.249937     5A    -11.247895     6A    -11.241146
       7A    -11.240013     8A    -11.239640     9A    -11.238343
      10A    -11.237398    11A    -11.211388    12A    -11.203990
      13A     -1.299133    14A     -1.155108    15A     -1.073065
      16A     -1.043931    17A     -1.016524    18A     -0.958438
      19A     -0.930789    20A     -0.833911    21A     -0.831031
      22A     -0.770444    23A     -0.743081    24A     -0.712490
      25A     -0.677388    26A     -0.640469    27A     -0.631829
      28A     -0.622713    29A     -0.596737    30A     -0.587419
      31A     -0.577932    32A     -0.560258    33A     -0.538999
      34A     -0.526276    35A     -0.523239    36A     -0.502001
      37A     -0.494652    38A     -0.491765    39A     -0.353163
      40A     -0.340822    41A     -0.336493    42A     -0.274951

  @DF-RHF Final Energy:  -477.54360988975986

   => Energetics <=

    Nuclear Repulsion Energy =            639.4368509222274497
    One-Electron Energy =               -1914.1805592432449430
    Two-Electron Energy =                 797.2000984312576293
    Total Energy =                       -477.5436098897598640
  Basis Set: (AUG-CC-PVTZ AUX)
    Blend: AUG-CC-PVTZ-RI
    Molecular point group: c1

    Geometry (in Angstrom), charge = 0, multiplicity = 1:

       Center              X                  Y                   Z               Mass
    ------------   -----------------  -----------------  -----------------  -----------------
         N           -1.716329124897     0.669452744082     0.181856371578    14.003074004430
         C           -0.864957424897    -0.338212255918    -0.105963328422    12.000000000000
         C            0.589371575103    -0.173270255918    -0.058892328422    12.000000000000
         C           -1.616024424897    -1.461874255918    -0.444653328422    12.000000000000
         C           -3.042955424897     0.200988744082     0.068830671578    12.000000000000
         C           -2.981531424897    -1.121113255918    -0.338548328422    12.000000000000
         C           -1.427759424897     2.005038744082     0.678934671578    12.000000000000
         C            1.235427575103     0.905663744082    -0.687212328422    12.000000000000
         C            1.372193575103    -1.141245255918     0.593312671578    12.000000000000
         C            2.625053575103     1.022509744082    -0.644886328422    12.000000000000
         C            2.762425575103    -1.033500255918     0.615239671578    12.000000000000
         C            3.393400575103     0.053268744082     0.004417671578    12.000000000000
         H           -1.199598424897    -2.409326255918    -0.764233328422     1.007825032230
         H           -3.888841424897     0.841118744082     0.283772671578     1.007825032230
         H           -3.831826424897    -1.760546255918    -0.537892328422     1.007825032230
         H           -2.227781424897     2.349370744082     1.337019671578     1.007825032230
         H           -0.493537424897     1.970462744082     1.240289671578     1.007825032230
         H           -1.320436424897     2.709536744082    -0.151035328422     1.007825032230
         H            0.647096575103     1.636385744082    -1.238157328422     1.007825032230
         H            0.874741575103    -1.971640255918     1.089708671578     1.007825032230
         H            3.110868575103     1.862365744082    -1.136748328422     1.007825032230
         H            3.354548575103    -1.791252255918     1.123501671578     1.007825032230
         H            4.476814575103     0.142075744082     0.030284671578     1.007825032230

  Basis Set: AUG-CC-PVTZ
    Blend: AUG-CC-PVTZ
  Basis Set: (AUG-CC-PVTZ AUX)
    Blend: AUG-CC-PVTZ-JKFIT
	 Reference Energy          =    -477.5436098897598640 [Eh]
	 Singles Energy            =      -0.0000000000000000 [Eh]
	 Same-Spin Energy          =      -0.5391307106411267 [Eh]
	 Opposite-Spin Energy      =      -1.6833814086936498 [Eh]
	 Correlation Energy        =      -2.2225121193347768 [Eh]
	 Total Energy              =    -479.7661220090946586 [Eh]

	 ================> DF-SCS-MP2 Energies <==================
	-----------------------------------------------------------
	 SCS Same-Spin Scale       =       0.3333333333333333 [-]
	 SCS Opposite-Spin Scale   =       1.2000000000000000 [-]
	 SCS Same-Spin Energy      =      -0.1797102368803756 [Eh]
	 SCS Opposite-Spin Energy  =      -2.0200576904323797 [Eh]
	 SCS Correlation Energy    =      -2.1997679273127551 [Eh]
	 SCS Total Energy          =    -479.7433778170725986 [Eh]
	-----------------------------------------------------------

  Dipole Moment: [D]
     X:     0.4330      Y:     1.8502      Z:     0.6885     Total:     2.0211

*** Psi4 exiting successfully. Buy a developer a beer!
