                               Psi4 1.3.2 release

  ==> Input File <==

--------------------------------------------------------------------------
#psi4
#
memory 32 gb

molecule  {
0 1
  N       -1.7531090     0.6487580     0.1985890
  C       -0.9877245    -0.2136926    -0.0702878
  C        0.5958890    -0.1944310    -0.0686340
  C       -1.6095070    -1.4830350    -0.4543950
  C       -3.0364380     0.1798280     0.0590890
  C       -2.9750140    -1.1422740    -0.3482900
  C       -1.4212420     1.9838780     0.6691930
  C        1.2419450     0.8845030    -0.6969540
  C        1.3787110    -1.1624060     0.5835710
  C        2.6315710     1.0013490    -0.6546280
  C        2.7689430    -1.0546610     0.6054980
  C        3.3999180     0.0321080    -0.0053240
  H       -1.1930810    -2.4304870    -0.7739750
  H       -3.8823240     0.8199580     0.2740310
  H       -3.8253090    -1.7817070    -0.5476340
  H       -2.2212640     2.3282100     1.3272780
  H       -0.4870200     1.9493020     1.2305480
  H       -1.3139190     2.6883760    -0.1607770
  H        0.6536140     1.6152250    -1.2478990
  H        0.8812590    -1.9928010     1.0799670
  H        3.1173860     1.8412050    -1.1464900
  H        3.3610660    -1.8124130     1.1137600
  H        4.4833320     0.1209150     0.0205430
units angstrom
no_reorient  #important for SAPT in psi4, default
symmetry c1  #important for SAPT in psi4, default
}

set PROPERTIES_ORIGIN ["COM"]
properties('MP2/aug-cc-pvtz', properties = ['dipole'])
--------------------------------------------------------------------------

    Molecular point group: c1
  Charge       = 0
  Multiplicity = 1
  Basis Set: AUG-CC-PVTZ
    Blend: AUG-CC-PVTZ
  Basis Set: (AUG-CC-PVTZ AUX)
    Blend: AUG-CC-PVTZ-JKFIT

    Orbital Energies [Eh]
    ---------------------

    Doubly Occupied:

       1A    -15.619363     2A    -11.282576     3A    -11.260085
       4A    -11.258218     5A    -11.240762     6A    -11.240499
       7A    -11.238949     8A    -11.238678     9A    -11.238030
      10A    -11.229461    11A    -11.211545    12A    -11.197062
      13A     -1.370181    14A     -1.152579    15A     -1.077105
      16A     -1.033879    17A     -1.016360    18A     -0.982291
      19A     -0.937101    20A     -0.829795    21A     -0.825122
      22A     -0.785661    23A     -0.737680    24A     -0.720826
      25A     -0.677029    26A     -0.663570    27A     -0.633158
      28A     -0.622779    29A     -0.601341    30A     -0.596859
      31A     -0.587428    32A     -0.559290    33A     -0.546424
      34A     -0.531555    35A     -0.523464    36A     -0.504874
      37A     -0.494021    38A     -0.462740    39A     -0.351661
      40A     -0.342375    41A     -0.339700    42A     -0.265285

  @DF-RHF Final Energy:  -477.49275818755558

   => Energetics <=

    Nuclear Repulsion Energy =            640.5683511908789569
    One-Electron Energy =               -1916.0674923986987324
    Two-Electron Energy =                 798.0063830202641384
    Total Energy =                       -477.4927581875556371
  Basis Set: (AUG-CC-PVTZ AUX)
    Blend: AUG-CC-PVTZ-RI
    Molecular point group: c1

    Geometry (in Angstrom), charge = 0, multiplicity = 1:

       Center              X                  Y                   Z               Mass
    ------------   -----------------  -----------------  -----------------  -----------------
         N           -1.745890853058     0.658748715855     0.202501319355    14.003074004430
         C           -0.980506353058    -0.203701884145    -0.066375480645    12.000000000000
         C            0.603107146942    -0.184440284145    -0.064721680645    12.000000000000
         C           -1.602288853058    -1.473044284145    -0.450482680645    12.000000000000
         C           -3.029219853058     0.189818715855     0.063001319355    12.000000000000
         C           -2.967795853058    -1.132283284145    -0.344377680645    12.000000000000
         C           -1.414023853058     1.993868715855     0.673105319355    12.000000000000
         C            1.249163146942     0.894493715855    -0.693041680645    12.000000000000
         C            1.385929146942    -1.152415284145     0.587483319355    12.000000000000
         C            2.638789146942     1.011339715855    -0.650715680645    12.000000000000
         C            2.776161146942    -1.044670284145     0.609410319355    12.000000000000
         C            3.407136146942     0.042098715855    -0.001411680645    12.000000000000
         H           -1.185862853058    -2.420496284145    -0.770062680645     1.007825032230
         H           -3.875105853058     0.829948715855     0.277943319355     1.007825032230
         H           -3.818090853058    -1.771716284145    -0.543721680645     1.007825032230
         H           -2.214045853058     2.338200715855     1.331190319355     1.007825032230
         H           -0.479801853058     1.959292715855     1.234460319355     1.007825032230
         H           -1.306700853058     2.698366715855    -0.156864680645     1.007825032230
         H            0.660832146942     1.625215715855    -1.243986680645     1.007825032230
         H            0.888477146942    -1.982810284145     1.083879319355     1.007825032230
         H            3.124604146942     1.851195715855    -1.142577680645     1.007825032230
         H            3.368284146942    -1.802422284145     1.117672319355     1.007825032230
         H            4.490550146942     0.130905715855     0.024455319355     1.007825032230

  Basis Set: AUG-CC-PVTZ
    Blend: AUG-CC-PVTZ
  Basis Set: (AUG-CC-PVTZ AUX)
    Blend: AUG-CC-PVTZ-JKFIT
	 Reference Energy          =    -477.4927581875555802 [Eh]
	 Singles Energy            =      -0.0000000000000000 [Eh]
	 Same-Spin Energy          =      -0.5384933870953601 [Eh]
	 Opposite-Spin Energy      =      -1.6809681551296247 [Eh]
	 Correlation Energy        =      -2.2194615422249848 [Eh]
	 Total Energy              =    -479.7122197297805428 [Eh]

	 ================> DF-SCS-MP2 Energies <==================
	-----------------------------------------------------------
	 SCS Same-Spin Scale       =       0.3333333333333333 [-]
	 SCS Opposite-Spin Scale   =       1.2000000000000000 [-]
	 SCS Same-Spin Energy      =      -0.1794977956984534 [Eh]
	 SCS Opposite-Spin Energy  =      -2.0171617861555498 [Eh]
	 SCS Correlation Energy    =      -2.1966595818540031 [Eh]
	 SCS Total Energy          =    -479.6894177694096015 [Eh]
	-----------------------------------------------------------

  Dipole Moment: [D]
     X:     0.5429      Y:     2.2167      Z:     0.8206     Total:     2.4252

*** Psi4 exiting successfully. Buy a developer a beer!
