                               Psi4 1.3.2 release

  ==> Input File <==

--------------------------------------------------------------------------
#psi4
#
memory 32 gb

molecule  {
0 1
  N       -1.7531090     0.6487580     0.1985890
  C       -0.8584400    -0.3593730    -0.1157050
  C        0.4697774    -0.1390155    -0.1203780
  C       -1.6095070    -1.4830350    -0.4543950
  C       -3.0364380     0.1798280     0.0590890
  C       -2.9750140    -1.1422740    -0.3482900
  C       -1.4212420     1.9838780     0.6691930
  C        1.2419450     0.8845030    -0.6969540
  C        1.3787110    -1.1624060     0.5835710
  C        2.6315710     1.0013490    -0.6546280
  C        2.7689430    -1.0546610     0.6054980
  C        3.3999180     0.0321080    -0.0053240
  H       -1.1930810    -2.4304870    -0.7739750
  H       -3.8823240     0.8199580     0.2740310
  H       -3.8253090    -1.7817070    -0.5476340
  H       -2.2212640     2.3282100     1.3272780
  H       -0.4870200     1.9493020     1.2305480
  H       -1.3139190     2.6883760    -0.1607770
  H        0.6536140     1.6152250    -1.2478990
  H        0.8812590    -1.9928010     1.0799670
  H        3.1173860     1.8412050    -1.1464900
  H        3.3610660    -1.8124130     1.1137600
  H        4.4833320     0.1209150     0.0205430
units angstrom
no_reorient  #important for SAPT in psi4, default
symmetry c1  #important for SAPT in psi4, default
}

set PROPERTIES_ORIGIN ["COM"]
properties('MP2/aug-cc-pvtz', properties = ['dipole'])
--------------------------------------------------------------------------

    Molecular point group: c1
  Charge       = 0
  Multiplicity = 1
  Basis Set: AUG-CC-PVTZ
    Blend: AUG-CC-PVTZ
  Basis Set: (AUG-CC-PVTZ AUX)
    Blend: AUG-CC-PVTZ-JKFIT

    Orbital Energies [Eh]
    ---------------------

    Doubly Occupied:

       1A    -15.608932     2A    -11.271375     3A    -11.253207
       4A    -11.253055     5A    -11.250490     6A    -11.247606
       7A    -11.240199     8A    -11.239148     9A    -11.238137
      10A    -11.236600    11A    -11.213393    12A    -11.211511
      13A     -1.304115    14A     -1.145017    15A     -1.077922
      16A     -1.057002    17A     -1.009513    18A     -0.954219
      19A     -0.935743    20A     -0.845609    21A     -0.822442
      22A     -0.775502    23A     -0.744647    24A     -0.714740
      25A     -0.681208    26A     -0.641432    27A     -0.635255
      28A     -0.619680    29A     -0.593995    30A     -0.580543
      31A     -0.573288    32A     -0.569328    33A     -0.542878
      34A     -0.530622    35A     -0.527406    36A     -0.514408
      37A     -0.490078    38A     -0.467469    39A     -0.358381
      40A     -0.338705    41A     -0.334443    42A     -0.267582

  @DF-RHF Final Energy:  -477.51483135345796

   => Energetics <=

    Nuclear Repulsion Energy =            639.4143735836556743
    One-Electron Energy =               -1914.0247556627471113
    Two-Electron Energy =                 797.0955507256334158
    Total Energy =                       -477.5148313534579074
  Basis Set: (AUG-CC-PVTZ AUX)
    Blend: AUG-CC-PVTZ-RI
    Molecular point group: c1

    Geometry (in Angstrom), charge = 0, multiplicity = 1:

       Center              X                  Y                   Z               Mass
    ------------   -----------------  -----------------  -----------------  -----------------
         N           -1.746133230079     0.665644028513     0.209923438608    14.003074004430
         C           -0.851464230079    -0.342486971487    -0.104370561392    12.000000000000
         C            0.476753169921    -0.122129471487    -0.109043561392    12.000000000000
         C           -1.602531230079    -1.466148971487    -0.443060561392    12.000000000000
         C           -3.029462230079     0.196714028513     0.070423438608    12.000000000000
         C           -2.968038230079    -1.125387971487    -0.336955561392    12.000000000000
         C           -1.414266230079     2.000764028513     0.680527438608    12.000000000000
         C            1.248920769921     0.901389028513    -0.685619561392    12.000000000000
         C            1.385686769921    -1.145519971487     0.594905438608    12.000000000000
         C            2.638546769921     1.018235028513    -0.643293561392    12.000000000000
         C            2.775918769921    -1.037774971487     0.616832438608    12.000000000000
         C            3.406893769921     0.048994028513     0.006010438608    12.000000000000
         H           -1.186105230079    -2.413600971487    -0.762640561392     1.007825032230
         H           -3.875348230079     0.836844028513     0.285365438608     1.007825032230
         H           -3.818333230079    -1.764820971487    -0.536299561392     1.007825032230
         H           -2.214288230079     2.345096028513     1.338612438608     1.007825032230
         H           -0.480044230079     1.966188028513     1.241882438608     1.007825032230
         H           -1.306943230079     2.705262028513    -0.149442561392     1.007825032230
         H            0.660589769921     1.632111028513    -1.236564561392     1.007825032230
         H            0.888234769921    -1.975914971487     1.091301438608     1.007825032230
         H            3.124361769921     1.858091028513    -1.135155561392     1.007825032230
         H            3.368041769921    -1.795526971487     1.125094438608     1.007825032230
         H            4.490307769921     0.137801028513     0.031877438608     1.007825032230

  Basis Set: AUG-CC-PVTZ
    Blend: AUG-CC-PVTZ
  Basis Set: (AUG-CC-PVTZ AUX)
    Blend: AUG-CC-PVTZ-JKFIT
	 Reference Energy          =    -477.5148313534579643 [Eh]
	 Singles Energy            =      -0.0000000000000000 [Eh]
	 Same-Spin Energy          =      -0.5420442470077362 [Eh]
	 Opposite-Spin Energy      =      -1.6879924345670987 [Eh]
	 Correlation Energy        =      -2.2300366815748349 [Eh]
	 Total Energy              =    -479.7448680350328232 [Eh]

	 ================> DF-SCS-MP2 Energies <==================
	-----------------------------------------------------------
	 SCS Same-Spin Scale       =       0.3333333333333333 [-]
	 SCS Opposite-Spin Scale   =       1.2000000000000000 [-]
	 SCS Same-Spin Energy      =      -0.1806814156692454 [Eh]
	 SCS Opposite-Spin Energy  =      -2.0255909214805183 [Eh]
	 SCS Correlation Energy    =      -2.2062723371497639 [Eh]
	 SCS Total Energy          =    -479.7211036906077197 [Eh]
	-----------------------------------------------------------

  Dipole Moment: [D]
     X:     0.0640      Y:     1.8171      Z:     0.6443     Total:     1.9291

*** Psi4 exiting successfully. Buy a developer a beer!
