                               Psi4 1.3.2 release

  ==> Input File <==

--------------------------------------------------------------------------
#psi4
#
memory 32 gb

molecule  {
0 1
  N       -1.7531090     0.6487580     0.1985890
  C       -0.8584400    -0.3593730    -0.1157050
  C        0.5958890    -0.1944310    -0.0686340
  C       -1.6095070    -1.4830350    -0.4543950
  C       -3.0364380     0.1798280     0.0590890
  C       -2.9866331    -1.1875671    -0.3637967
  C       -1.4212420     1.9838780     0.6691930
  C        1.2419450     0.8845030    -0.6969540
  C        1.3787110    -1.1624060     0.5835710
  C        2.6315710     1.0013490    -0.6546280
  C        2.7689430    -1.0546610     0.6054980
  C        3.3999180     0.0321080    -0.0053240
  H       -1.1930810    -2.4304870    -0.7739750
  H       -3.8823240     0.8199580     0.2740310
  H       -3.8253090    -1.7817070    -0.5476340
  H       -2.2212640     2.3282100     1.3272780
  H       -0.4870200     1.9493020     1.2305480
  H       -1.3139190     2.6883760    -0.1607770
  H        0.6536140     1.6152250    -1.2478990
  H        0.8812590    -1.9928010     1.0799670
  H        3.1173860     1.8412050    -1.1464900
  H        3.3610660    -1.8124130     1.1137600
  H        4.4833320     0.1209150     0.0205430
units angstrom
no_reorient  #important for SAPT in psi4, default
symmetry c1  #important for SAPT in psi4, default
}

set PROPERTIES_ORIGIN ["COM"]
properties('MP2/aug-cc-pvtz', properties = ['dipole'])
--------------------------------------------------------------------------

    Molecular point group: c1
  Charge       = 0
  Multiplicity = 1
  Basis Set: AUG-CC-PVTZ
    Blend: AUG-CC-PVTZ
  Basis Set: (AUG-CC-PVTZ AUX)
    Blend: AUG-CC-PVTZ-JKFIT

    Orbital Energies [Eh]
    ---------------------

    Doubly Occupied:

       1A    -15.611743     2A    -11.272070     3A    -11.255547
       4A    -11.254742     5A    -11.250255     6A    -11.240561
       7A    -11.239352     8A    -11.239069     9A    -11.237691
      10A    -11.236746    11A    -11.210919    12A    -11.209091
      13A     -1.298188    14A     -1.154857    15A     -1.071713
      16A     -1.042102    17A     -1.015982    18A     -0.952948
      19A     -0.936223    20A     -0.832096    21A     -0.830565
      22A     -0.774931    23A     -0.742348    24A     -0.713372
      25A     -0.677671    26A     -0.640211    27A     -0.632002
      28A     -0.623355    29A     -0.599858    30A     -0.587031
      31A     -0.573292    32A     -0.568418    33A     -0.543477
      34A     -0.524504    35A     -0.516929    36A     -0.501944
      37A     -0.495814    38A     -0.491398    39A     -0.353687
      40A     -0.340109    41A     -0.335514    42A     -0.270970

  @DF-RHF Final Energy:  -477.54102184217459

   => Energetics <=

    Nuclear Repulsion Energy =            638.1704830586970729
    One-Electron Energy =               -1911.6244183092987896
    Two-Electron Energy =                 795.9129134084271300
    Total Energy =                       -477.5410218421745867
  Basis Set: (AUG-CC-PVTZ AUX)
    Blend: AUG-CC-PVTZ-RI
    Molecular point group: c1

    Geometry (in Angstrom), charge = 0, multiplicity = 1:

       Center              X                  Y                   Z               Mass
    ------------   -----------------  -----------------  -----------------  -----------------
         N           -1.754879282913     0.673337132747     0.207155280516    14.003074004430
         C           -0.860210282913    -0.334793867253    -0.107138719484    12.000000000000
         C            0.594118717087    -0.169851867253    -0.060067719484    12.000000000000
         C           -1.611277282913    -1.458455867253    -0.445828719484    12.000000000000
         C           -3.038208282913     0.204407132747     0.067655280516    12.000000000000
         C           -2.988403382913    -1.162987967253    -0.355230419484    12.000000000000
         C           -1.423012282913     2.008457132747     0.677759280516    12.000000000000
         C            1.240174717087     0.909082132747    -0.688387719484    12.000000000000
         C            1.376940717087    -1.137826867253     0.592137280516    12.000000000000
         C            2.629800717087     1.025928132747    -0.646061719484    12.000000000000
         C            2.767172717087    -1.030081867253     0.614064280516    12.000000000000
         C            3.398147717087     0.056687132747     0.003242280516    12.000000000000
         H           -1.194851282913    -2.405907867253    -0.765408719484     1.007825032230
         H           -3.884094282913     0.844537132747     0.282597280516     1.007825032230
         H           -3.827079282913    -1.757127867253    -0.539067719484     1.007825032230
         H           -2.223034282913     2.352789132747     1.335844280516     1.007825032230
         H           -0.488790282913     1.973881132747     1.239114280516     1.007825032230
         H           -1.315689282913     2.712955132747    -0.152210719484     1.007825032230
         H            0.651843717087     1.639804132747    -1.239332719484     1.007825032230
         H            0.879488717087    -1.968221867253     1.088533280516     1.007825032230
         H            3.115615717087     1.865784132747    -1.137923719484     1.007825032230
         H            3.359295717087    -1.787833867253     1.122326280516     1.007825032230
         H            4.481561717087     0.145494132747     0.029109280516     1.007825032230

  Basis Set: AUG-CC-PVTZ
    Blend: AUG-CC-PVTZ
  Basis Set: (AUG-CC-PVTZ AUX)
    Blend: AUG-CC-PVTZ-JKFIT
	 Reference Energy          =    -477.5410218421745867 [Eh]
	 Singles Energy            =      -0.0000000000000000 [Eh]
	 Same-Spin Energy          =      -0.5397457645710976 [Eh]
	 Opposite-Spin Energy      =      -1.6844015226537339 [Eh]
	 Correlation Energy        =      -2.2241472872248313 [Eh]
	 Total Energy              =    -479.7651691293993963 [Eh]

	 ================> DF-SCS-MP2 Energies <==================
	-----------------------------------------------------------
	 SCS Same-Spin Scale       =       0.3333333333333333 [-]
	 SCS Opposite-Spin Scale   =       1.2000000000000000 [-]
	 SCS Same-Spin Energy      =      -0.1799152548570325 [Eh]
	 SCS Opposite-Spin Energy  =      -2.0212818271844806 [Eh]
	 SCS Correlation Energy    =      -2.2011970820415132 [Eh]
	 SCS Total Energy          =    -479.7422189242161039 [Eh]
	-----------------------------------------------------------

  Dipole Moment: [D]
     X:     0.4893      Y:     1.8847      Z:     0.6875     Total:     2.0650

*** Psi4 exiting successfully. Buy a developer a beer!
