                               Psi4 1.4a3.dev225

  ==> Input File <==

--------------------------------------------------------------------------
#psi4
#
memory 32 gb

molecule  {
0 1
  N       -1.7531090     0.6487580     0.1985890
  C       -0.8584400    -0.3593730    -0.1157050
  C        0.5462332    -0.2000627    -0.0702412
  C       -1.6095070    -1.4830350    -0.4543950
  C       -3.0364380     0.1798280     0.0590890
  C       -2.9750140    -1.1422740    -0.3482900
  C       -1.4212420     1.9838780     0.6691930
  C        1.2419450     0.8845030    -0.6969540
  C        1.3787110    -1.1624060     0.5835710
  C        2.6315710     1.0013490    -0.6546280
  C        2.7689430    -1.0546610     0.6054980
  C        3.3999180     0.0321080    -0.0053240
  H       -1.1930810    -2.4304870    -0.7739750
  H       -3.8823240     0.8199580     0.2740310
  H       -3.8253090    -1.7817070    -0.5476340
  H       -2.2212640     2.3282100     1.3272780
  H       -0.4870200     1.9493020     1.2305480
  H       -1.3139190     2.6883760    -0.1607770
  H        0.6536140     1.6152250    -1.2478990
  H        0.8812590    -1.9928010     1.0799670
  H        3.1173860     1.8412050    -1.1464900
  H        3.3610660    -1.8124130     1.1137600
  H        4.4833320     0.1209150     0.0205430
units angstrom
no_reorient  #important for SAPT in psi4, default
symmetry c1  #important for SAPT in psi4, default
}

set PROPERTIES_ORIGIN ["COM"]
properties('MP2/aug-cc-pvtz', properties = ['dipole'])
--------------------------------------------------------------------------

    Molecular point group: c1
  Charge       = 0
  Multiplicity = 1
  Basis Set: AUG-CC-PVTZ
    Blend: AUG-CC-PVTZ
  Basis Set: (AUG-CC-PVTZ AUX)
    Blend: AUG-CC-PVTZ-JKFIT

    Orbital Energies [Eh]
    ---------------------

    Doubly Occupied:

       1A    -15.608538     2A    -11.271020     3A    -11.254194
       4A    -11.251387     5A    -11.250385     6A    -11.242292
       7A    -11.239903     8A    -11.239696     9A    -11.238610
      10A    -11.237612    11A    -11.209765    12A    -11.208638
      13A     -1.300808    14A     -1.150364    15A     -1.075215
      16A     -1.048240    17A     -1.013153    18A     -0.955531
      19A     -0.934269    20A     -0.837960    21A     -0.827198
      22A     -0.772252    23A     -0.744137    24A     -0.713114
      25A     -0.679276    26A     -0.640801    27A     -0.633075
      28A     -0.620040    29A     -0.596916    30A     -0.583979
      31A     -0.570860    32A     -0.570011    33A     -0.539728
      34A     -0.528531    35A     -0.524938    36A     -0.506050
      37A     -0.494135    38A     -0.484424    39A     -0.354090
      40A     -0.339485    41A     -0.336000    42A     -0.272506

  @DF-RHF Final Energy:  -477.54076437117226

   => Energetics <=

    Nuclear Repulsion Energy =            639.1124199823491381
    One-Electron Energy =               -1913.5081171714516586
    Two-Electron Energy =                 796.8549328179302620
    Total Energy =                       -477.5407643711722585
  Basis Set: (AUG-CC-PVTZ AUX)
    Blend: AUG-CC-PVTZ-RI
    Molecular point group: c1

    Geometry (in Angstrom), charge = 0, multiplicity = 1:

       Center              X                  Y                   Z               Mass
    ------------   -----------------  -----------------  -----------------  -----------------
         N           -1.751973669114     0.670307408530     0.206093501261    14.003074004430
         C           -0.857304669114    -0.337823591470    -0.108200498739    12.000000000000
         C            0.547368530886    -0.178513291470    -0.062736698739    12.000000000000
         C           -1.608371669114    -1.461485591470    -0.446890498739    12.000000000000
         C           -3.035302669114     0.201377408530     0.066593501261    12.000000000000
         C           -2.973878669114    -1.120724591470    -0.340785498739    12.000000000000
         C           -1.420106669114     2.005427408530     0.676697501261    12.000000000000
         C            1.243080330886     0.906052408530    -0.689449498739    12.000000000000
         C            1.379846330886    -1.140856591470     0.591075501261    12.000000000000
         C            2.632706330886     1.022898408530    -0.647123498739    12.000000000000
         C            2.770078330886    -1.033111591470     0.613002501261    12.000000000000
         C            3.401053330886     0.053657408530     0.002180501261    12.000000000000
         H           -1.191945669114    -2.408937591470    -0.766470498739     1.007825032230
         H           -3.881188669114     0.841507408530     0.281535501261     1.007825032230
         H           -3.824173669114    -1.760157591470    -0.540129498739     1.007825032230
         H           -2.220128669114     2.349759408530     1.334782501261     1.007825032230
         H           -0.485884669114     1.970851408530     1.238052501261     1.007825032230
         H           -1.312783669114     2.709925408530    -0.153272498739     1.007825032230
         H            0.654749330886     1.636774408530    -1.240394498739     1.007825032230
         H            0.882394330886    -1.971251591470     1.087471501261     1.007825032230
         H            3.118521330886     1.862754408530    -1.138985498739     1.007825032230
         H            3.362201330886    -1.790863591470     1.121264501261     1.007825032230
         H            4.484467330886     0.142464408530     0.028047501261     1.007825032230

  Basis Set: AUG-CC-PVTZ
    Blend: AUG-CC-PVTZ
  Basis Set: (AUG-CC-PVTZ AUX)
    Blend: AUG-CC-PVTZ-JKFIT
	 Reference Energy          =    -477.5407643711722585 [Eh]
	 Singles Energy            =      -0.0000000000000000 [Eh]
	 Same-Spin Energy          =      -0.5401334818501580 [Eh]
	 Opposite-Spin Energy      =      -1.6846374389169876 [Eh]
	 Correlation Energy        =      -2.2247709207671456 [Eh]
	 Total Energy              =    -479.7655352919393863 [Eh]

	 ================> DF-SCS-MP2 Energies <==================
	-----------------------------------------------------------
	 SCS Same-Spin Scale       =       0.3333333333333333 [-]
	 SCS Opposite-Spin Scale   =       1.2000000000000000 [-]
	 SCS Same-Spin Energy      =      -0.1800444939500526 [Eh]
	 SCS Opposite-Spin Energy  =      -2.0215649267003850 [Eh]
	 SCS Correlation Energy    =      -2.2016094206504375 [Eh]
	 SCS Total Energy          =    -479.7423737918226720 [Eh]
	-----------------------------------------------------------

  Dipole Moment: [D]
     X:     0.3190      Y:     1.8475      Z:     0.6691     Total:     1.9907

*** Psi4 exiting successfully. Buy a developer a beer!
