                               Psi4 1.3.2 release

  ==> Input File <==

--------------------------------------------------------------------------
#psi4
#
memory 32 gb

molecule  {
0 1
  N       -1.7531090     0.6487580     0.1985890
  C       -0.8584400    -0.3593730    -0.1157050
  C        0.5958890    -0.1944310    -0.0686340
  C       -1.6095070    -1.4830350    -0.4543950
  C       -3.0364380     0.1798280     0.0590890
  C       -2.9838851    -0.9513298    -0.2894544
  C       -1.4212420     1.9838780     0.6691930
  C        1.2419450     0.8845030    -0.6969540
  C        1.3787110    -1.1624060     0.5835710
  C        2.6315710     1.0013490    -0.6546280
  C        2.7689430    -1.0546610     0.6054980
  C        3.3999180     0.0321080    -0.0053240
  H       -1.1930810    -2.4304870    -0.7739750
  H       -3.8823240     0.8199580     0.2740310
  H       -3.8253090    -1.7817070    -0.5476340
  H       -2.2212640     2.3282100     1.3272780
  H       -0.4870200     1.9493020     1.2305480
  H       -1.3139190     2.6883760    -0.1607770
  H        0.6536140     1.6152250    -1.2478990
  H        0.8812590    -1.9928010     1.0799670
  H        3.1173860     1.8412050    -1.1464900
  H        3.3610660    -1.8124130     1.1137600
  H        4.4833320     0.1209150     0.0205430
units angstrom
no_reorient  #important for SAPT in psi4, default
symmetry c1  #important for SAPT in psi4, default
}

set PROPERTIES_ORIGIN ["COM"]
properties('MP2/aug-cc-pvtz', properties = ['dipole'])
--------------------------------------------------------------------------

    Molecular point group: c1
  Charge       = 0
  Multiplicity = 1
  Basis Set: AUG-CC-PVTZ
    Blend: AUG-CC-PVTZ
  Basis Set: (AUG-CC-PVTZ AUX)
    Blend: AUG-CC-PVTZ-JKFIT

    Orbital Energies [Eh]
    ---------------------

    Doubly Occupied:

       1A    -15.589666     2A    -11.265277     3A    -11.261954
       4A    -11.250377     5A    -11.241700     6A    -11.240731
       7A    -11.240238     8A    -11.239263     9A    -11.238472
      10A    -11.221153    11A    -11.206805    12A    -11.198237
      13A     -1.304502    14A     -1.156560    15A     -1.081707
      16A     -1.051850    17A     -1.017217    18A     -0.973713
      19A     -0.917848    20A     -0.840622    21A     -0.830973
      22A     -0.769460    23A     -0.739169    24A     -0.701926
      25A     -0.680502    26A     -0.640147    27A     -0.632911
      28A     -0.621647    29A     -0.592359    30A     -0.588402
      31A     -0.583640    32A     -0.562469    33A     -0.545379
      34A     -0.531938    35A     -0.506411    36A     -0.503420
      37A     -0.494310    38A     -0.466148    39A     -0.363224
      40A     -0.340910    41A     -0.333798    42A     -0.291837

  @DF-RHF Final Energy:  -477.48704883183336

   => Energetics <=

    Nuclear Repulsion Energy =            641.9592916040547834
    One-Electron Energy =               -1919.1749402201746761
    Two-Electron Energy =                 799.7285997842864163
    Total Energy =                       -477.4870488318333628
  Basis Set: (AUG-CC-PVTZ AUX)
    Blend: AUG-CC-PVTZ-RI
    Molecular point group: c1

    Geometry (in Angstrom), charge = 0, multiplicity = 1:

       Center              X                  Y                   Z               Mass
    ------------   -----------------  -----------------  -----------------  -----------------
         N           -1.755089201931     0.655291025734     0.201476291206    14.003074004430
         C           -0.860420201931    -0.352839974266    -0.112817708794    12.000000000000
         C            0.593908798069    -0.187897974266    -0.065746708794    12.000000000000
         C           -1.611487201931    -1.476501974266    -0.451507708794    12.000000000000
         C           -3.038418201931     0.186361025734     0.061976291206    12.000000000000
         C           -2.985865301931    -0.944796774266    -0.286567108794    12.000000000000
         C           -1.423222201931     1.990411025734     0.672080291206    12.000000000000
         C            1.239964798069     0.891036025734    -0.694066708794    12.000000000000
         C            1.376730798069    -1.155872974266     0.586458291206    12.000000000000
         C            2.629590798069     1.007882025734    -0.651740708794    12.000000000000
         C            2.766962798069    -1.048127974266     0.608385291206    12.000000000000
         C            3.397937798069     0.038641025734    -0.002436708794    12.000000000000
         H           -1.195061201931    -2.423953974266    -0.771087708794     1.007825032230
         H           -3.884304201931     0.826491025734     0.276918291206     1.007825032230
         H           -3.827289201931    -1.775173974266    -0.544746708794     1.007825032230
         H           -2.223244201931     2.334743025734     1.330165291206     1.007825032230
         H           -0.489000201931     1.955835025734     1.233435291206     1.007825032230
         H           -1.315899201931     2.694909025734    -0.157889708794     1.007825032230
         H            0.651633798069     1.621758025734    -1.245011708794     1.007825032230
         H            0.879278798069    -1.986267974266     1.082854291206     1.007825032230
         H            3.115405798069     1.847738025734    -1.143602708794     1.007825032230
         H            3.359085798069    -1.805879974266     1.116647291206     1.007825032230
         H            4.481351798069     0.127448025734     0.023430291206     1.007825032230

  Basis Set: AUG-CC-PVTZ
    Blend: AUG-CC-PVTZ
  Basis Set: (AUG-CC-PVTZ AUX)
    Blend: AUG-CC-PVTZ-JKFIT
	 Reference Energy          =    -477.4870488318333628 [Eh]
	 Singles Energy            =      -0.0000000000000000 [Eh]
	 Same-Spin Energy          =      -0.5368310484902914 [Eh]
	 Opposite-Spin Energy      =      -1.6803476857894859 [Eh]
	 Correlation Energy        =      -2.2171787342797771 [Eh]
	 Total Energy              =    -479.7042275661131612 [Eh]

	 ================> DF-SCS-MP2 Energies <==================
	-----------------------------------------------------------
	 SCS Same-Spin Scale       =       0.3333333333333333 [-]
	 SCS Opposite-Spin Scale   =       1.2000000000000000 [-]
	 SCS Same-Spin Energy      =      -0.1789436828300971 [Eh]
	 SCS Opposite-Spin Energy  =      -2.0164172229473829 [Eh]
	 SCS Correlation Energy    =      -2.1953609057774801 [Eh]
	 SCS Total Energy          =    -479.6824097376108398 [Eh]
	-----------------------------------------------------------

  Dipole Moment: [D]
     X:     0.4589      Y:     1.7420      Z:     0.6394     Total:     1.9115

*** Psi4 exiting successfully. Buy a developer a beer!
