                               Psi4 1.3.2 release

  ==> Input File <==

--------------------------------------------------------------------------
#psi4
#
memory 32 gb

molecule  {
0 1
  N       -1.7531090     0.6487580     0.1985890
  C       -0.8584400    -0.3593730    -0.1157050
  C        0.5958890    -0.1944310    -0.0686340
  C       -1.6095070    -1.4830350    -0.4543950
  C       -3.0364380     0.1798280     0.0590890
  C       -2.9750140    -1.1422740    -0.3482900
  C       -1.4212420     1.9838780     0.6691930
  C        1.2419450     0.8845030    -0.6969540
  C        1.3787110    -1.1624060     0.5835710
  C        2.6315710     1.0013490    -0.6546280
  C        2.7689430    -1.0546610     0.6054980
  C        3.3999180     0.0321080    -0.0053240
  H       -1.1930810    -2.4304870    -0.7739750
  H       -4.0386289     0.9382428     0.3137485
  H       -3.8253090    -1.7817070    -0.5476340
  H       -2.2212640     2.3282100     1.3272780
  H       -0.4870200     1.9493020     1.2305480
  H       -1.3139190     2.6883760    -0.1607770
  H        0.6536140     1.6152250    -1.2478990
  H        0.8812590    -1.9928010     1.0799670
  H        3.1173860     1.8412050    -1.1464900
  H        3.3610660    -1.8124130     1.1137600
  H        4.4833320     0.1209150     0.0205430
units angstrom
no_reorient  #important for SAPT in psi4, default
symmetry c1  #important for SAPT in psi4, default
}

set PROPERTIES_ORIGIN ["COM"]
properties('MP2/aug-cc-pvtz', properties = ['dipole'])
--------------------------------------------------------------------------

    Molecular point group: c1
  Charge       = 0
  Multiplicity = 1
  Basis Set: AUG-CC-PVTZ
    Blend: AUG-CC-PVTZ
  Basis Set: (AUG-CC-PVTZ AUX)
    Blend: AUG-CC-PVTZ-JKFIT

    Orbital Energies [Eh]
    ---------------------

    Doubly Occupied:

       1A    -15.609697     2A    -11.270486     3A    -11.269519
       4A    -11.257600     5A    -11.250719     6A    -11.241031
       7A    -11.239901     8A    -11.239588     9A    -11.238291
      10A    -11.237454    11A    -11.210218    12A    -11.208475
      13A     -1.300083    14A     -1.155416    15A     -1.074454
      16A     -1.043626    17A     -1.016524    18A     -0.951357
      19A     -0.933854    20A     -0.831368    21A     -0.830076
      22A     -0.767670    23A     -0.737355    24A     -0.711003
      25A     -0.671570    26A     -0.639332    27A     -0.625070
      28A     -0.620553    29A     -0.594064    30A     -0.587371
      31A     -0.570756    32A     -0.562403    33A     -0.531976
      34A     -0.526261    35A     -0.517104    36A     -0.501194
      37A     -0.495002    38A     -0.492180    39A     -0.354488
      40A     -0.340711    41A     -0.336517    42A     -0.275981

  @DF-RHF Final Energy:  -477.52294988604751

   => Energetics <=

    Nuclear Repulsion Energy =            638.0822397166676865
    One-Electron Energy =               -1911.4737814617719778
    Two-Electron Energy =                 795.8685918590568917
    Total Energy =                       -477.5229498860475132
  Basis Set: (AUG-CC-PVTZ AUX)
    Blend: AUG-CC-PVTZ-RI
    Molecular point group: c1

    Geometry (in Angstrom), charge = 0, multiplicity = 1:

       Center              X                  Y                   Z               Mass
    ------------   -----------------  -----------------  -----------------  -----------------
         N           -1.754764069412     0.669118333517     0.205715915088    14.003074004430
         C           -0.860095069412    -0.339012666483    -0.108578084912    12.000000000000
         C            0.594233930588    -0.174070666483    -0.061507084912    12.000000000000
         C           -1.611162069412    -1.462674666483    -0.447268084912    12.000000000000
         C           -3.038093069412     0.200188333517     0.066215915088    12.000000000000
         C           -2.976669069412    -1.121913666483    -0.341163084912    12.000000000000
         C           -1.422897069412     2.004238333517     0.676319915088    12.000000000000
         C            1.240289930588     0.904863333517    -0.689827084912    12.000000000000
         C            1.377055930588    -1.142045666483     0.590697915088    12.000000000000
         C            2.629915930588     1.021709333517    -0.647501084912    12.000000000000
         C            2.767287930588    -1.034300666483     0.612624915088    12.000000000000
         C            3.398262930588     0.052468333517     0.001802915088    12.000000000000
         H           -1.194736069412    -2.410126666483    -0.766848084912     1.007825032230
         H           -4.040283969412     0.958603133517     0.320875415088     1.007825032230
         H           -3.826964069412    -1.761346666483    -0.540507084912     1.007825032230
         H           -2.222919069412     2.348570333517     1.334404915088     1.007825032230
         H           -0.488675069412     1.969662333517     1.237674915088     1.007825032230
         H           -1.315574069412     2.708736333517    -0.153650084912     1.007825032230
         H            0.651958930588     1.635585333517    -1.240772084912     1.007825032230
         H            0.879603930588    -1.972440666483     1.087093915088     1.007825032230
         H            3.115730930588     1.861565333517    -1.139363084912     1.007825032230
         H            3.359410930588    -1.792052666483     1.120886915088     1.007825032230
         H            4.481676930588     0.141275333517     0.027669915088     1.007825032230

  Basis Set: AUG-CC-PVTZ
    Blend: AUG-CC-PVTZ
  Basis Set: (AUG-CC-PVTZ AUX)
    Blend: AUG-CC-PVTZ-JKFIT
	 Reference Energy          =    -477.5229498860475132 [Eh]
	 Singles Energy            =      -0.0000000000000000 [Eh]
	 Same-Spin Energy          =      -0.5397619224047064 [Eh]
	 Opposite-Spin Energy      =      -1.6855727570306311 [Eh]
	 Correlation Energy        =      -2.2253346794353375 [Eh]
	 Total Energy              =    -479.7482845654828338 [Eh]

	 ================> DF-SCS-MP2 Energies <==================
	-----------------------------------------------------------
	 SCS Same-Spin Scale       =       0.3333333333333333 [-]
	 SCS Opposite-Spin Scale   =       1.2000000000000000 [-]
	 SCS Same-Spin Energy      =      -0.1799206408015688 [Eh]
	 SCS Opposite-Spin Energy  =      -2.0226873084367574 [Eh]
	 SCS Correlation Energy    =      -2.2026079492383261 [Eh]
	 SCS Total Energy          =    -479.7255578352858265 [Eh]
	-----------------------------------------------------------

  Dipole Moment: [D]
     X:     0.5186      Y:     1.8301      Z:     0.6670     Total:     2.0157

*** Psi4 exiting successfully. Buy a developer a beer!
