                               Psi4 1.4a3.dev225

  ==> Input File <==

--------------------------------------------------------------------------
#psi4
#
memory 32 gb

molecule  {
0 1
  N       -1.7531090     0.6487580     0.1985890
  C       -0.8584400    -0.3593730    -0.1157050
  C        0.5958890    -0.1944310    -0.0686340
  C       -1.6095070    -1.4830350    -0.4543950
  C       -3.0364380     0.1798280     0.0590890
  C       -2.9759011    -1.1231796    -0.3424064
  C       -1.4212420     1.9838780     0.6691930
  C        1.2419450     0.8845030    -0.6969540
  C        1.3787110    -1.1624060     0.5835710
  C        2.6315710     1.0013490    -0.6546280
  C        2.7689430    -1.0546610     0.6054980
  C        3.3999180     0.0321080    -0.0053240
  H       -1.1930810    -2.4304870    -0.7739750
  H       -3.8823240     0.8199580     0.2740310
  H       -3.8253090    -1.7817070    -0.5476340
  H       -2.2212640     2.3282100     1.3272780
  H       -0.4870200     1.9493020     1.2305480
  H       -1.3139190     2.6883760    -0.1607770
  H        0.6536140     1.6152250    -1.2478990
  H        0.8812590    -1.9928010     1.0799670
  H        3.1173860     1.8412050    -1.1464900
  H        3.3610660    -1.8124130     1.1137600
  H        4.4833320     0.1209150     0.0205430
units angstrom
no_reorient  #important for SAPT in psi4, default
symmetry c1  #important for SAPT in psi4, default
}

set PROPERTIES_ORIGIN ["COM"]
properties('MP2/aug-cc-pvtz', properties = ['dipole'])
--------------------------------------------------------------------------

    Molecular point group: c1
  Charge       = 0
  Multiplicity = 1
  Basis Set: AUG-CC-PVTZ
    Blend: AUG-CC-PVTZ
  Basis Set: (AUG-CC-PVTZ AUX)
    Blend: AUG-CC-PVTZ-JKFIT

    Orbital Energies [Eh]
    ---------------------

    Doubly Occupied:

       1A    -15.605707     2A    -11.270099     3A    -11.257005
       4A    -11.250183     5A    -11.246136     6A    -11.240816
       7A    -11.239686     8A    -11.239366     9A    -11.238095
      10A    -11.237206    11A    -11.207613    12A    -11.206532
      13A     -1.299090    14A     -1.155201    15A     -1.073501
      16A     -1.044752    17A     -1.016287    18A     -0.957536
      19A     -0.931797    20A     -0.833922    21A     -0.830659
      22A     -0.769936    23A     -0.743051    24A     -0.711704
      25A     -0.678033    26A     -0.639927    27A     -0.632083
      28A     -0.622290    29A     -0.595993    30A     -0.587268
      31A     -0.569509    32A     -0.567867    33A     -0.536444
      34A     -0.528826    35A     -0.523923    36A     -0.502330
      37A     -0.494217    38A     -0.491871    39A     -0.354267
      40A     -0.340310    41A     -0.334696    42A     -0.277251

  @DF-RHF Final Energy:  -477.54623874070825

   => Energetics <=

    Nuclear Repulsion Energy =            639.3102970996200156
    One-Electron Energy =               -1913.9470982082707451
    Two-Electron Energy =                 797.0905623679424252
    Total Energy =                       -477.5462387407081906
  Basis Set: (AUG-CC-PVTZ AUX)
    Blend: AUG-CC-PVTZ-RI
    Molecular point group: c1

    Geometry (in Angstrom), charge = 0, multiplicity = 1:

       Center              X                  Y                   Z               Mass
    ------------   -----------------  -----------------  -----------------  -----------------
         N           -1.755699097652     0.668418588066     0.205521280962    14.003074004430
         C           -0.861030097652    -0.339712411934    -0.108772719038    12.000000000000
         C            0.593298902348    -0.174770411934    -0.061701719038    12.000000000000
         C           -1.612097097652    -1.463374411934    -0.447462719038    12.000000000000
         C           -3.039028097652     0.199488588066     0.066021280962    12.000000000000
         C           -2.978491197652    -1.103519011934    -0.335474119038    12.000000000000
         C           -1.423832097652     2.003538588066     0.676125280962    12.000000000000
         C            1.239354902348     0.904163588066    -0.690021719038    12.000000000000
         C            1.376120902348    -1.142745411934     0.590503280962    12.000000000000
         C            2.628980902348     1.021009588066    -0.647695719038    12.000000000000
         C            2.766352902348    -1.035000411934     0.612430280962    12.000000000000
         C            3.397327902348     0.051768588066     0.001608280962    12.000000000000
         H           -1.195671097652    -2.410826411934    -0.767042719038     1.007825032230
         H           -3.884914097652     0.839618588066     0.280963280962     1.007825032230
         H           -3.827899097652    -1.762046411934    -0.540701719038     1.007825032230
         H           -2.223854097652     2.347870588066     1.334210280962     1.007825032230
         H           -0.489610097652     1.968962588066     1.237480280962     1.007825032230
         H           -1.316509097652     2.708036588066    -0.153844719038     1.007825032230
         H            0.651023902348     1.634885588066    -1.240966719038     1.007825032230
         H            0.878668902348    -1.973140411934     1.086899280962     1.007825032230
         H            3.114795902348     1.860865588066    -1.139557719038     1.007825032230
         H            3.358475902348    -1.792752411934     1.120692280962     1.007825032230
         H            4.480741902348     0.140575588066     0.027475280962     1.007825032230

  Basis Set: AUG-CC-PVTZ
    Blend: AUG-CC-PVTZ
  Basis Set: (AUG-CC-PVTZ AUX)
    Blend: AUG-CC-PVTZ-JKFIT
	 Reference Energy          =    -477.5462387407082474 [Eh]
	 Singles Energy            =      -0.0000000000000000 [Eh]
	 Same-Spin Energy          =      -0.5388734498967046 [Eh]
	 Opposite-Spin Energy      =      -1.6827524604086830 [Eh]
	 Correlation Energy        =      -2.2216259103053875 [Eh]
	 Total Energy              =    -479.7678646510136105 [Eh]

	 ================> DF-SCS-MP2 Energies <==================
	-----------------------------------------------------------
	 SCS Same-Spin Scale       =       0.3333333333333333 [-]
	 SCS Opposite-Spin Scale   =       1.2000000000000000 [-]
	 SCS Same-Spin Energy      =      -0.1796244832989015 [Eh]
	 SCS Opposite-Spin Energy  =      -2.0193029524904196 [Eh]
	 SCS Correlation Energy    =      -2.1989274357893209 [Eh]
	 SCS Total Energy          =    -479.7451661764975483 [Eh]
	-----------------------------------------------------------

  Dipole Moment: [D]
     X:     0.4671      Y:     1.8485      Z:     0.6734     Total:     2.0220

*** Psi4 exiting successfully. Buy a developer a beer!
