                               Psi4 1.3.2 release

  ==> Input File <==

--------------------------------------------------------------------------
#psi4
#
memory 32 gb

molecule  {
0 1
  N       -1.7531090     0.6487580     0.1985890
  C       -0.8584400    -0.3593730    -0.1157050
  C        0.5958890    -0.1944310    -0.0686340
  C       -1.6095070    -1.4830350    -0.4543950
  C       -2.8914929     0.1786140     0.0590962
  C       -2.9750140    -1.1422740    -0.3482900
  C       -1.4212420     1.9838780     0.6691930
  C        1.2419450     0.8845030    -0.6969540
  C        1.3787110    -1.1624060     0.5835710
  C        2.6315710     1.0013490    -0.6546280
  C        2.7689430    -1.0546610     0.6054980
  C        3.3999180     0.0321080    -0.0053240
  H       -1.1930810    -2.4304870    -0.7739750
  H       -3.8823240     0.8199580     0.2740310
  H       -3.8253090    -1.7817070    -0.5476340
  H       -2.2212640     2.3282100     1.3272780
  H       -0.4870200     1.9493020     1.2305480
  H       -1.3139190     2.6883760    -0.1607770
  H        0.6536140     1.6152250    -1.2478990
  H        0.8812590    -1.9928010     1.0799670
  H        3.1173860     1.8412050    -1.1464900
  H        3.3610660    -1.8124130     1.1137600
  H        4.4833320     0.1209150     0.0205430
units angstrom
no_reorient  #important for SAPT in psi4, default
symmetry c1  #important for SAPT in psi4, default
}

set PROPERTIES_ORIGIN ["COM"]
properties('MP2/aug-cc-pvtz', properties = ['dipole'])
--------------------------------------------------------------------------

    Molecular point group: c1
  Charge       = 0
  Multiplicity = 1
  Basis Set: AUG-CC-PVTZ
    Blend: AUG-CC-PVTZ
  Basis Set: (AUG-CC-PVTZ AUX)
    Blend: AUG-CC-PVTZ-JKFIT

    Orbital Energies [Eh]
    ---------------------

    Doubly Occupied:

       1A    -15.613684     2A    -11.279534     3A    -11.252533
       4A    -11.247664     5A    -11.245042     6A    -11.238614
       7A    -11.237185     8A    -11.236328     9A    -11.234952
      10A    -11.233511    11A    -11.210524    12A    -11.198739
      13A     -1.346111    14A     -1.153303    15A     -1.082801
      16A     -1.044493    17A     -1.013805    18A     -0.959876
      19A     -0.946037    20A     -0.829415    21A     -0.826681
      22A     -0.782280    23A     -0.738284    24A     -0.718611
      25A     -0.674339    26A     -0.654206    27A     -0.629335
      28A     -0.621973    29A     -0.599610    30A     -0.591112
      31A     -0.585158    32A     -0.560834    33A     -0.542180
      34A     -0.538767    35A     -0.507443    36A     -0.495431
      37A     -0.491841    38A     -0.487819    39A     -0.358110
      40A     -0.339317    41A     -0.337071    42A     -0.268943

  @DF-RHF Final Energy:  -477.51859124979779

   => Energetics <=

    Nuclear Repulsion Energy =            642.5575791434253006
    One-Electron Energy =               -1920.2453441734028274
    Two-Electron Energy =                 800.1691737801797899
    Total Energy =                       -477.5185912497977370
  Basis Set: (AUG-CC-PVTZ AUX)
    Blend: AUG-CC-PVTZ-RI
    Molecular point group: c1

    Geometry (in Angstrom), charge = 0, multiplicity = 1:

       Center              X                  Y                   Z               Mass
    ------------   -----------------  -----------------  -----------------  -----------------
         N           -1.766839182166     0.669969941556     0.205970177657    14.003074004430
         C           -0.872170182166    -0.338161058444    -0.108323822343    12.000000000000
         C            0.582158817834    -0.173219058444    -0.061252822343    12.000000000000
         C           -1.623237182166    -1.461823058444    -0.447013822343    12.000000000000
         C           -2.905223082166     0.199825941556     0.066477377657    12.000000000000
         C           -2.988744182166    -1.121062058444    -0.340908822343    12.000000000000
         C           -1.434972182166     2.005089941556     0.676574177657    12.000000000000
         C            1.228214817834     0.905714941556    -0.689572822343    12.000000000000
         C            1.364980817834    -1.141194058444     0.590952177657    12.000000000000
         C            2.617840817834     1.022560941556    -0.647246822343    12.000000000000
         C            2.755212817834    -1.033449058444     0.612879177657    12.000000000000
         C            3.386187817834     0.053319941556     0.002057177657    12.000000000000
         H           -1.206811182166    -2.409275058444    -0.766593822343     1.007825032230
         H           -3.896054182166     0.841169941556     0.281412177657     1.007825032230
         H           -3.839039182166    -1.760495058444    -0.540252822343     1.007825032230
         H           -2.234994182166     2.349421941556     1.334659177657     1.007825032230
         H           -0.500750182166     1.970513941556     1.237929177657     1.007825032230
         H           -1.327649182166     2.709587941556    -0.153395822343     1.007825032230
         H            0.639883817834     1.636436941556    -1.240517822343     1.007825032230
         H            0.867528817834    -1.971589058444     1.087348177657     1.007825032230
         H            3.103655817834     1.862416941556    -1.139108822343     1.007825032230
         H            3.347335817834    -1.791201058444     1.121141177657     1.007825032230
         H            4.469601817834     0.142126941556     0.027924177657     1.007825032230

  Basis Set: AUG-CC-PVTZ
    Blend: AUG-CC-PVTZ
  Basis Set: (AUG-CC-PVTZ AUX)
    Blend: AUG-CC-PVTZ-JKFIT
	 Reference Energy          =    -477.5185912497977938 [Eh]
	 Singles Energy            =      -0.0000000000000000 [Eh]
	 Same-Spin Energy          =      -0.5395116938269280 [Eh]
	 Opposite-Spin Energy      =      -1.6821551703819873 [Eh]
	 Correlation Energy        =      -2.2216668642089150 [Eh]
	 Total Energy              =    -479.7402581140067355 [Eh]

	 ================> DF-SCS-MP2 Energies <==================
	-----------------------------------------------------------
	 SCS Same-Spin Scale       =       0.3333333333333333 [-]
	 SCS Opposite-Spin Scale   =       1.2000000000000000 [-]
	 SCS Same-Spin Energy      =      -0.1798372312756427 [Eh]
	 SCS Opposite-Spin Energy  =      -2.0185862044583844 [Eh]
	 SCS Correlation Energy    =      -2.1984234357340271 [Eh]
	 SCS Total Energy          =    -479.7170146855318080 [Eh]
	-----------------------------------------------------------

  Dipole Moment: [D]
     X:     0.4162      Y:     2.0257      Z:     0.7322     Total:     2.1938

*** Psi4 exiting successfully. Buy a developer a beer!
