                               Psi4 1.4a3.dev225

  ==> Input File <==

--------------------------------------------------------------------------
#psi4
#
memory 32 gb

molecule  {
0 1
  N       -1.7531090     0.6487580     0.1985890
  C       -0.8584400    -0.3593730    -0.1157050
  C        0.5958890    -0.1944310    -0.0686340
  C       -1.6095070    -1.4830350    -0.4543950
  C       -3.0364380     0.1798280     0.0590890
  C       -2.9750140    -1.1422740    -0.3482900
  C       -1.4212420     1.9838780     0.6691930
  C        1.2511363     0.8998528    -0.7058930
  C        1.3787110    -1.1624060     0.5835710
  C        2.6315710     1.0013490    -0.6546280
  C        2.7689430    -1.0546610     0.6054980
  C        3.3999180     0.0321080    -0.0053240
  H       -1.1930810    -2.4304870    -0.7739750
  H       -3.8823240     0.8199580     0.2740310
  H       -3.8253090    -1.7817070    -0.5476340
  H       -2.2212640     2.3282100     1.3272780
  H       -0.4870200     1.9493020     1.2305480
  H       -1.3139190     2.6883760    -0.1607770
  H        0.6536140     1.6152250    -1.2478990
  H        0.8812590    -1.9928010     1.0799670
  H        3.1173860     1.8412050    -1.1464900
  H        3.3610660    -1.8124130     1.1137600
  H        4.4833320     0.1209150     0.0205430
units angstrom
no_reorient  #important for SAPT in psi4, default
symmetry c1  #important for SAPT in psi4, default
}

set PROPERTIES_ORIGIN ["COM"]
properties('MP2/aug-cc-pvtz', properties = ['dipole'])
--------------------------------------------------------------------------

    Molecular point group: c1
  Charge       = 0
  Multiplicity = 1
  Basis Set: AUG-CC-PVTZ
    Blend: AUG-CC-PVTZ
  Basis Set: (AUG-CC-PVTZ AUX)
    Blend: AUG-CC-PVTZ-JKFIT

    Orbital Energies [Eh]
    ---------------------

    Doubly Occupied:

       1A    -15.607671     2A    -11.270784     3A    -11.256605
       4A    -11.252105     5A    -11.248720     6A    -11.240311
       7A    -11.239626     8A    -11.238955     9A    -11.237770
      10A    -11.236894    11A    -11.208491    12A    -11.207122
      13A     -1.298949    14A     -1.153883    15A     -1.073495
      16A     -1.042717    17A     -1.017599    18A     -0.955409
      19A     -0.933476    20A     -0.834438    21A     -0.829397
      22A     -0.770799    23A     -0.742492    24A     -0.712271
      25A     -0.679114    26A     -0.640423    27A     -0.631863
      28A     -0.621283    29A     -0.596576    30A     -0.588904
      31A     -0.569809    32A     -0.567915    33A     -0.538014
      34A     -0.527435    35A     -0.523877    36A     -0.502920
      37A     -0.495469    38A     -0.489909    39A     -0.352589
      40A     -0.341603    41A     -0.335421    42A     -0.274566

  @DF-RHF Final Energy:  -477.54537456529306

   => Energetics <=

    Nuclear Repulsion Energy =            638.7538439167370825
    One-Electron Energy =               -1912.8230991310060745
    Two-Electron Energy =                 796.5238806489760464
    Total Energy =                       -477.5453745652930593
  Basis Set: (AUG-CC-PVTZ AUX)
    Blend: AUG-CC-PVTZ-RI
    Molecular point group: c1

    Geometry (in Angstrom), charge = 0, multiplicity = 1:

       Center              X                  Y                   Z               Mass
    ------------   -----------------  -----------------  -----------------  -----------------
         N           -1.756468984054     0.668704637104     0.206653575590    14.003074004430
         C           -0.861799984054    -0.339426362896    -0.107640424410    12.000000000000
         C            0.592529015946    -0.174484362896    -0.060569424410    12.000000000000
         C           -1.612866984054    -1.463088362896    -0.446330424410    12.000000000000
         C           -3.039797984054     0.199774637104     0.067153575590    12.000000000000
         C           -2.978373984054    -1.122327362896    -0.340225424410    12.000000000000
         C           -1.424601984054     2.003824637104     0.677257575590    12.000000000000
         C            1.247776315946     0.919799437104    -0.697828424410    12.000000000000
         C            1.375351015946    -1.142459362896     0.591635575590    12.000000000000
         C            2.628211015946     1.021295637104    -0.646563424410    12.000000000000
         C            2.765583015946    -1.034714362896     0.613562575590    12.000000000000
         C            3.396558015946     0.052054637104     0.002740575590    12.000000000000
         H           -1.196440984054    -2.410540362896    -0.765910424410     1.007825032230
         H           -3.885683984054     0.839904637104     0.282095575590     1.007825032230
         H           -3.828668984054    -1.761760362896    -0.539569424410     1.007825032230
         H           -2.224623984054     2.348156637104     1.335342575590     1.007825032230
         H           -0.490379984054     1.969248637104     1.238612575590     1.007825032230
         H           -1.317278984054     2.708322637104    -0.152712424410     1.007825032230
         H            0.650254015946     1.635171637104    -1.239834424410     1.007825032230
         H            0.877899015946    -1.972854362896     1.088031575590     1.007825032230
         H            3.114026015946     1.861151637104    -1.138425424410     1.007825032230
         H            3.357706015946    -1.792466362896     1.121824575590     1.007825032230
         H            4.479972015946     0.140861637104     0.028607575590     1.007825032230

  Basis Set: AUG-CC-PVTZ
    Blend: AUG-CC-PVTZ
  Basis Set: (AUG-CC-PVTZ AUX)
    Blend: AUG-CC-PVTZ-JKFIT
	 Reference Energy          =    -477.5453745652930593 [Eh]
	 Singles Energy            =      -0.0000000000000000 [Eh]
	 Same-Spin Energy          =      -0.5391763501776312 [Eh]
	 Opposite-Spin Energy      =      -1.6832719147130786 [Eh]
	 Correlation Energy        =      -2.2224482648907098 [Eh]
	 Total Energy              =    -479.7678228301837748 [Eh]

	 ================> DF-SCS-MP2 Energies <==================
	-----------------------------------------------------------
	 SCS Same-Spin Scale       =       0.3333333333333333 [-]
	 SCS Opposite-Spin Scale   =       1.2000000000000000 [-]
	 SCS Same-Spin Energy      =      -0.1797254500592104 [Eh]
	 SCS Opposite-Spin Energy  =      -2.0199262976556942 [Eh]
	 SCS Correlation Energy    =      -2.1996517477149045 [Eh]
	 SCS Total Energy          =    -479.7450263130079406 [Eh]
	-----------------------------------------------------------

  Dipole Moment: [D]
     X:     0.4535      Y:     1.8564      Z:     0.6765     Total:     2.0271

*** Psi4 exiting successfully. Buy a developer a beer!
