                               Psi4 1.3.2 release

  ==> Input File <==

--------------------------------------------------------------------------
#psi4
#
memory 32 gb

molecule  {
0 1
  N       -1.7531090     0.6487580     0.1985890
  C       -0.8584400    -0.3593730    -0.1157050
  C        0.5958890    -0.1944310    -0.0686340
  C       -1.5879373    -1.3912666    -0.4257931
  C       -3.0364380     0.1798280     0.0590890
  C       -2.9750140    -1.1422740    -0.3482900
  C       -1.4212420     1.9838780     0.6691930
  C        1.2419450     0.8845030    -0.6969540
  C        1.3787110    -1.1624060     0.5835710
  C        2.6315710     1.0013490    -0.6546280
  C        2.7689430    -1.0546610     0.6054980
  C        3.3999180     0.0321080    -0.0053240
  H       -1.1930810    -2.4304870    -0.7739750
  H       -3.8823240     0.8199580     0.2740310
  H       -3.8253090    -1.7817070    -0.5476340
  H       -2.2212640     2.3282100     1.3272780
  H       -0.4870200     1.9493020     1.2305480
  H       -1.3139190     2.6883760    -0.1607770
  H        0.6536140     1.6152250    -1.2478990
  H        0.8812590    -1.9928010     1.0799670
  H        3.1173860     1.8412050    -1.1464900
  H        3.3610660    -1.8124130     1.1137600
  H        4.4833320     0.1209150     0.0205430
units angstrom
no_reorient  #important for SAPT in psi4, default
symmetry c1  #important for SAPT in psi4, default
}

set PROPERTIES_ORIGIN ["COM"]
properties('MP2/aug-cc-pvtz', properties = ['dipole'])
--------------------------------------------------------------------------

    Molecular point group: c1
  Charge       = 0
  Multiplicity = 1
  Basis Set: AUG-CC-PVTZ
    Blend: AUG-CC-PVTZ
  Basis Set: (AUG-CC-PVTZ AUX)
    Blend: AUG-CC-PVTZ-JKFIT

    Orbital Energies [Eh]
    ---------------------

    Doubly Occupied:

       1A    -15.600263     2A    -11.268048     3A    -11.250962
       4A    -11.250420     5A    -11.243968     6A    -11.240825
       7A    -11.239726     8A    -11.239362     9A    -11.238161
      10A    -11.237279    11A    -11.205746    12A    -11.203044
      13A     -1.302922    14A     -1.155286    15A     -1.080313
      16A     -1.045064    17A     -1.016296    18A     -0.963816
      19A     -0.928052    20A     -0.833946    21A     -0.830973
      22A     -0.773052    23A     -0.740625    24A     -0.709248
      25A     -0.678900    26A     -0.639986    27A     -0.632190
      28A     -0.621773    29A     -0.594959    30A     -0.587079
      31A     -0.574266    32A     -0.563418    33A     -0.544117
      34A     -0.529649    35A     -0.508478    36A     -0.501669
      37A     -0.495036    38A     -0.489892    39A     -0.357179
      40A     -0.340063    41A     -0.334008    42A     -0.284636

  @DF-RHF Final Energy:  -477.53486697064329

   => Energetics <=

    Nuclear Repulsion Energy =            641.1879093953778010
    One-Electron Energy =               -1917.6961628629333063
    Two-Electron Energy =                 798.9733864969122124
    Total Energy =                       -477.5348669706432929
  Basis Set: (AUG-CC-PVTZ AUX)
    Blend: AUG-CC-PVTZ-RI
    Molecular point group: c1

    Geometry (in Angstrom), charge = 0, multiplicity = 1:

       Center              X                  Y                   Z               Mass
    ------------   -----------------  -----------------  -----------------  -----------------
         N           -1.757414566869     0.662867039767     0.203785835827    14.003074004430
         C           -0.862745566869    -0.345263960233    -0.110508164173    12.000000000000
         C            0.591583433131    -0.180321960233    -0.063437164173    12.000000000000
         C           -1.592242866869    -1.377157560233    -0.420596264173    12.000000000000
         C           -3.040743566869     0.193937039767     0.064285835827    12.000000000000
         C           -2.979319566869    -1.128164960233    -0.343093164173    12.000000000000
         C           -1.425547566869     1.997987039767     0.674389835827    12.000000000000
         C            1.237639433131     0.898612039767    -0.691757164173    12.000000000000
         C            1.374405433131    -1.148296960233     0.588767835827    12.000000000000
         C            2.627265433131     1.015458039767    -0.649431164173    12.000000000000
         C            2.764637433131    -1.040551960233     0.610694835827    12.000000000000
         C            3.395612433131     0.046217039767    -0.000127164173    12.000000000000
         H           -1.197386566869    -2.416377960233    -0.768778164173     1.007825032230
         H           -3.886629566869     0.834067039767     0.279227835827     1.007825032230
         H           -3.829614566869    -1.767597960233    -0.542437164173     1.007825032230
         H           -2.225569566869     2.342319039767     1.332474835827     1.007825032230
         H           -0.491325566869     1.963411039767     1.235744835827     1.007825032230
         H           -1.318224566869     2.702485039767    -0.155580164173     1.007825032230
         H            0.649308433131     1.629334039767    -1.242702164173     1.007825032230
         H            0.876953433131    -1.978691960233     1.085163835827     1.007825032230
         H            3.113080433131     1.855314039767    -1.141293164173     1.007825032230
         H            3.356760433131    -1.798303960233     1.118956835827     1.007825032230
         H            4.479026433131     0.135024039767     0.025739835827     1.007825032230

  Basis Set: AUG-CC-PVTZ
    Blend: AUG-CC-PVTZ
  Basis Set: (AUG-CC-PVTZ AUX)
    Blend: AUG-CC-PVTZ-JKFIT
	 Reference Energy          =    -477.5348669706432929 [Eh]
	 Singles Energy            =      -0.0000000000000000 [Eh]
	 Same-Spin Energy          =      -0.5382216663502370 [Eh]
	 Opposite-Spin Energy      =      -1.6818835115464750 [Eh]
	 Correlation Energy        =      -2.2201051778967118 [Eh]
	 Total Energy              =    -479.7549721485399914 [Eh]

	 ================> DF-SCS-MP2 Energies <==================
	-----------------------------------------------------------
	 SCS Same-Spin Scale       =       0.3333333333333333 [-]
	 SCS Opposite-Spin Scale   =       1.2000000000000000 [-]
	 SCS Same-Spin Energy      =      -0.1794072221167457 [Eh]
	 SCS Opposite-Spin Energy  =      -2.0182602138557697 [Eh]
	 SCS Correlation Energy    =      -2.1976674359725155 [Eh]
	 SCS Total Energy          =    -479.7325344066157982 [Eh]
	-----------------------------------------------------------

  Dipole Moment: [D]
     X:     0.5166      Y:     1.8009      Z:     0.6650     Total:     1.9881

*** Psi4 exiting successfully. Buy a developer a beer!
