                               Psi4 1.3.2 release

  ==> Input File <==

--------------------------------------------------------------------------
#psi4
#
memory 32 gb

molecule  {
0 1
  N       -1.7531090     0.6487580     0.1985890
  C       -0.8584400    -0.3593730    -0.1157050
  C        0.7290790    -0.2380254    -0.0237740
  C       -1.6095070    -1.4830350    -0.4543950
  C       -3.0364380     0.1798280     0.0590890
  C       -2.9750140    -1.1422740    -0.3482900
  C       -1.4212420     1.9838780     0.6691930
  C        1.2419450     0.8845030    -0.6969540
  C        1.3787110    -1.1624060     0.5835710
  C        2.6315710     1.0013490    -0.6546280
  C        2.7689430    -1.0546610     0.6054980
  C        3.3999180     0.0321080    -0.0053240
  H       -1.1930810    -2.4304870    -0.7739750
  H       -3.8823240     0.8199580     0.2740310
  H       -3.8253090    -1.7817070    -0.5476340
  H       -2.2212640     2.3282100     1.3272780
  H       -0.4870200     1.9493020     1.2305480
  H       -1.3139190     2.6883760    -0.1607770
  H        0.6536140     1.6152250    -1.2478990
  H        0.8812590    -1.9928010     1.0799670
  H        3.1173860     1.8412050    -1.1464900
  H        3.3610660    -1.8124130     1.1137600
  H        4.4833320     0.1209150     0.0205430
units angstrom
no_reorient  #important for SAPT in psi4, default
symmetry c1  #important for SAPT in psi4, default
}

set PROPERTIES_ORIGIN ["COM"]
properties('MP2/aug-cc-pvtz', properties = ['dipole'])
--------------------------------------------------------------------------

    Molecular point group: c1
  Charge       = 0
  Multiplicity = 1
  Basis Set: AUG-CC-PVTZ
    Blend: AUG-CC-PVTZ
  Basis Set: (AUG-CC-PVTZ AUX)
    Blend: AUG-CC-PVTZ-JKFIT

    Orbital Energies [Eh]
    ---------------------

    Doubly Occupied:

       1A    -15.605576     2A    -11.269747     3A    -11.258805
       4A    -11.247041     5A    -11.244503     6A    -11.242122
       7A    -11.241524     8A    -11.240737     9A    -11.237763
      10A    -11.224008    11A    -11.205019    12A    -11.201883
      13A     -1.294350    14A     -1.170993    15A     -1.069681
      16A     -1.041063    17A     -1.022099    18A     -0.954572
      19A     -0.931016    20A     -0.841832    21A     -0.821772
      22A     -0.766625    23A     -0.740268    24A     -0.711487
      25A     -0.674220    26A     -0.640500    27A     -0.630973
      28A     -0.628806    29A     -0.601397    30A     -0.588962
      31A     -0.566876    32A     -0.563491    33A     -0.535787
      34A     -0.524098    35A     -0.521353    36A     -0.512141
      37A     -0.506391    38A     -0.466575    39A     -0.360326
      40A     -0.340459    41A     -0.332412    42A     -0.278473

  @DF-RHF Final Energy:  -477.52219751159839

   => Energetics <=

    Nuclear Repulsion Energy =            639.0245064491986113
    One-Electron Energy =               -1913.3779543308990014
    Two-Electron Energy =                 796.8312503701021114
    Total Energy =                       -477.5221975115983923
  Basis Set: (AUG-CC-PVTZ AUX)
    Blend: AUG-CC-PVTZ-RI
    Molecular point group: c1

    Geometry (in Angstrom), charge = 0, multiplicity = 1:

       Center              X                  Y                   Z               Mass
    ------------   -----------------  -----------------  -----------------  -----------------
         N           -1.765941213079     0.673207369488     0.202543883720    14.003074004430
         C           -0.871272213079    -0.334923630512    -0.111750116280    12.000000000000
         C            0.716246786921    -0.213576030512    -0.019819116280    12.000000000000
         C           -1.622339213079    -1.458585630512    -0.450440116280    12.000000000000
         C           -3.049270213079     0.204277369488     0.063043883720    12.000000000000
         C           -2.987846213079    -1.117824630512    -0.344335116280    12.000000000000
         C           -1.434074213079     2.008327369488     0.673147883720    12.000000000000
         C            1.229112786921     0.908952369488    -0.692999116280    12.000000000000
         C            1.365878786921    -1.137956630512     0.587525883720    12.000000000000
         C            2.618738786921     1.025798369488    -0.650673116280    12.000000000000
         C            2.756110786921    -1.030211630512     0.609452883720    12.000000000000
         C            3.387085786921     0.056557369488    -0.001369116280    12.000000000000
         H           -1.205913213079    -2.406037630512    -0.770020116280     1.007825032230
         H           -3.895156213079     0.844407369488     0.277985883720     1.007825032230
         H           -3.838141213079    -1.757257630512    -0.543679116280     1.007825032230
         H           -2.234096213079     2.352659369488     1.331232883720     1.007825032230
         H           -0.499852213079     1.973751369488     1.234502883720     1.007825032230
         H           -1.326751213079     2.712825369488    -0.156822116280     1.007825032230
         H            0.640781786921     1.639674369488    -1.243944116280     1.007825032230
         H            0.868426786921    -1.968351630512     1.083921883720     1.007825032230
         H            3.104553786921     1.865654369488    -1.142535116280     1.007825032230
         H            3.348233786921    -1.787963630512     1.117714883720     1.007825032230
         H            4.470499786921     0.145364369488     0.024497883720     1.007825032230

  Basis Set: AUG-CC-PVTZ
    Blend: AUG-CC-PVTZ
  Basis Set: (AUG-CC-PVTZ AUX)
    Blend: AUG-CC-PVTZ-JKFIT
	 Reference Energy          =    -477.5221975115983923 [Eh]
	 Singles Energy            =      -0.0000000000000000 [Eh]
	 Same-Spin Energy          =      -0.5379277827881541 [Eh]
	 Opposite-Spin Energy      =      -1.6821002744644638 [Eh]
	 Correlation Energy        =      -2.2200280572526179 [Eh]
	 Total Energy              =    -479.7422255688509836 [Eh]

	 ================> DF-SCS-MP2 Energies <==================
	-----------------------------------------------------------
	 SCS Same-Spin Scale       =       0.3333333333333333 [-]
	 SCS Opposite-Spin Scale   =       1.2000000000000000 [-]
	 SCS Same-Spin Energy      =      -0.1793092609293847 [Eh]
	 SCS Opposite-Spin Energy  =      -2.0185203293573566 [Eh]
	 SCS Correlation Energy    =      -2.1978295902867413 [Eh]
	 SCS Total Energy          =    -479.7200271018851367 [Eh]
	-----------------------------------------------------------

  Dipole Moment: [D]
     X:     0.8189      Y:     1.8889      Z:     0.7068     Total:     2.1767

*** Psi4 exiting successfully. Buy a developer a beer!
