                               Psi4 1.4a3.dev225

  ==> Input File <==

--------------------------------------------------------------------------
#psi4
#
memory 32 gb

molecule  {
0 1
  N       -1.7531090     0.6487580     0.1985890
  C       -0.8907611    -0.3229529    -0.1043507
  C        0.5958890    -0.1944310    -0.0686340
  C       -1.6095070    -1.4830350    -0.4543950
  C       -3.0364380     0.1798280     0.0590890
  C       -2.9750140    -1.1422740    -0.3482900
  C       -1.4212420     1.9838780     0.6691930
  C        1.2419450     0.8845030    -0.6969540
  C        1.3787110    -1.1624060     0.5835710
  C        2.6315710     1.0013490    -0.6546280
  C        2.7689430    -1.0546610     0.6054980
  C        3.3999180     0.0321080    -0.0053240
  H       -1.1930810    -2.4304870    -0.7739750
  H       -3.8823240     0.8199580     0.2740310
  H       -3.8253090    -1.7817070    -0.5476340
  H       -2.2212640     2.3282100     1.3272780
  H       -0.4870200     1.9493020     1.2305480
  H       -1.3139190     2.6883760    -0.1607770
  H        0.6536140     1.6152250    -1.2478990
  H        0.8812590    -1.9928010     1.0799670
  H        3.1173860     1.8412050    -1.1464900
  H        3.3610660    -1.8124130     1.1137600
  H        4.4833320     0.1209150     0.0205430
units angstrom
no_reorient  #important for SAPT in psi4, default
symmetry c1  #important for SAPT in psi4, default
}

set PROPERTIES_ORIGIN ["COM"]
properties('MP2/aug-cc-pvtz', properties = ['dipole'])
--------------------------------------------------------------------------

    Molecular point group: c1
  Charge       = 0
  Multiplicity = 1
  Basis Set: AUG-CC-PVTZ
    Blend: AUG-CC-PVTZ
  Basis Set: (AUG-CC-PVTZ AUX)
    Blend: AUG-CC-PVTZ-JKFIT

    Orbital Energies [Eh]
    ---------------------

    Doubly Occupied:

       1A    -15.611100     2A    -11.273441     3A    -11.257092
       4A    -11.252048     5A    -11.244201     6A    -11.240506
       7A    -11.239602     8A    -11.238983     9A    -11.237876
      10A    -11.237294    11A    -11.209029    12A    -11.204653
      13A     -1.313300    14A     -1.154138    15A     -1.073683
      16A     -1.041231    17A     -1.016065    18A     -0.958639
      19A     -0.937043    20A     -0.830758    21A     -0.830234
      22A     -0.774733    23A     -0.741214    24A     -0.714548
      25A     -0.677704    26A     -0.643813    27A     -0.632231
      28A     -0.622832    29A     -0.597526    30A     -0.587364
      31A     -0.577061    32A     -0.564885    33A     -0.535747
      34A     -0.529660    35A     -0.526572    36A     -0.503274
      37A     -0.492645    38A     -0.489187    39A     -0.351293
      40A     -0.340601    41A     -0.337086    42A     -0.273963

  @DF-RHF Final Energy:  -477.54442187566906

   => Energetics <=

    Nuclear Repulsion Energy =            639.3545922165743605
    One-Electron Energy =               -1913.9683172085681235
    Two-Electron Energy =                 797.0693031163248179
    Total Energy =                       -477.5444218756690589
  Basis Set: (AUG-CC-PVTZ AUX)
    Blend: AUG-CC-PVTZ-RI
    Molecular point group: c1

    Geometry (in Angstrom), charge = 0, multiplicity = 1:

       Center              X                  Y                   Z               Mass
    ------------   -----------------  -----------------  -----------------  -----------------
         N           -1.753297862420     0.667095082268     0.205103375586    14.003074004430
         C           -0.890949962420    -0.304615817732    -0.097836324414    12.000000000000
         C            0.595700137580    -0.176093917732    -0.062119624414    12.000000000000
         C           -1.609695862420    -1.464697917732    -0.447880624414    12.000000000000
         C           -3.036626862420     0.198165082268     0.065603375586    12.000000000000
         C           -2.975202862420    -1.123936917732    -0.341775624414    12.000000000000
         C           -1.421430862420     2.002215082268     0.675707375586    12.000000000000
         C            1.241756137580     0.902840082268    -0.690439624414    12.000000000000
         C            1.378522137580    -1.144068917732     0.590085375586    12.000000000000
         C            2.631382137580     1.019686082268    -0.648113624414    12.000000000000
         C            2.768754137580    -1.036323917732     0.612012375586    12.000000000000
         C            3.399729137580     0.050445082268     0.001190375586    12.000000000000
         H           -1.193269862420    -2.412149917732    -0.767460624414     1.007825032230
         H           -3.882512862420     0.838295082268     0.280545375586     1.007825032230
         H           -3.825497862420    -1.763369917732    -0.541119624414     1.007825032230
         H           -2.221452862420     2.346547082268     1.333792375586     1.007825032230
         H           -0.487208862420     1.967639082268     1.237062375586     1.007825032230
         H           -1.314107862420     2.706713082268    -0.154262624414     1.007825032230
         H            0.653425137580     1.633562082268    -1.241384624414     1.007825032230
         H            0.881070137580    -1.974463917732     1.086481375586     1.007825032230
         H            3.117197137580     1.859542082268    -1.139975624414     1.007825032230
         H            3.360877137580    -1.794075917732     1.120274375586     1.007825032230
         H            4.483143137580     0.139252082268     0.027057375586     1.007825032230

  Basis Set: AUG-CC-PVTZ
    Blend: AUG-CC-PVTZ
  Basis Set: (AUG-CC-PVTZ AUX)
    Blend: AUG-CC-PVTZ-JKFIT
	 Reference Energy          =    -477.5444218756690589 [Eh]
	 Singles Energy            =      -0.0000000000000000 [Eh]
	 Same-Spin Energy          =      -0.5389632400654729 [Eh]
	 Opposite-Spin Energy      =      -1.6824501210502572 [Eh]
	 Correlation Energy        =      -2.2214133611157303 [Eh]
	 Total Energy              =    -479.7658352367847669 [Eh]

	 ================> DF-SCS-MP2 Energies <==================
	-----------------------------------------------------------
	 SCS Same-Spin Scale       =       0.3333333333333333 [-]
	 SCS Opposite-Spin Scale   =       1.2000000000000000 [-]
	 SCS Same-Spin Energy      =      -0.1796544133551576 [Eh]
	 SCS Opposite-Spin Energy  =      -2.0189401452603084 [Eh]
	 SCS Correlation Energy    =      -2.1985945586154658 [Eh]
	 SCS Total Energy          =    -479.7430164342845273 [Eh]
	-----------------------------------------------------------

  Dipole Moment: [D]
     X:     0.4534      Y:     1.9365      Z:     0.7093     Total:     2.1116

*** Psi4 exiting successfully. Buy a developer a beer!
