                               Psi4 1.3.2 release

  ==> Input File <==

--------------------------------------------------------------------------
#psi4
#
memory 32 gb

molecule  {
0 1
  N       -1.7531090     0.6487580     0.1985890
  C       -0.8601837    -0.3380347    -0.1296646
  C        0.5958890    -0.1944310    -0.0686340
  C       -1.6095070    -1.4830350    -0.4543950
  C       -3.0364380     0.1798280     0.0590890
  C       -2.9750140    -1.1422740    -0.3482900
  C       -1.4212420     1.9838780     0.6691930
  C        1.2419450     0.8845030    -0.6969540
  C        1.3787110    -1.1624060     0.5835710
  C        2.6315710     1.0013490    -0.6546280
  C        2.7689430    -1.0546610     0.6054980
  C        3.3999180     0.0321080    -0.0053240
  H       -1.1930810    -2.4304870    -0.7739750
  H       -3.8823240     0.8199580     0.2740310
  H       -3.8253090    -1.7817070    -0.5476340
  H       -2.2212640     2.3282100     1.3272780
  H       -0.4870200     1.9493020     1.2305480
  H       -1.3139190     2.6883760    -0.1607770
  H        0.6536140     1.6152250    -1.2478990
  H        0.8812590    -1.9928010     1.0799670
  H        3.1173860     1.8412050    -1.1464900
  H        3.3610660    -1.8124130     1.1137600
  H        4.4833320     0.1209150     0.0205430
units angstrom
no_reorient  #important for SAPT in psi4, default
symmetry c1  #important for SAPT in psi4, default
}

set PROPERTIES_ORIGIN ["COM"]
properties('MP2/aug-cc-pvtz', properties = ['dipole'])
--------------------------------------------------------------------------

    Molecular point group: c1
  Charge       = 0
  Multiplicity = 1
  Basis Set: AUG-CC-PVTZ
    Blend: AUG-CC-PVTZ
  Basis Set: (AUG-CC-PVTZ AUX)
    Blend: AUG-CC-PVTZ-JKFIT

    Orbital Energies [Eh]
    ---------------------

    Doubly Occupied:

       1A    -15.609282     2A    -11.271299     3A    -11.256933
       4A    -11.250263     5A    -11.247471     6A    -11.240576
       7A    -11.239669     8A    -11.239112     9A    -11.238069
      10A    -11.237436    11A    -11.208757    12A    -11.207133
      13A     -1.302365    14A     -1.155129    15A     -1.072454
      16A     -1.044192    17A     -1.016237    18A     -0.956156
      19A     -0.934163    20A     -0.833390    21A     -0.830680
      22A     -0.771301    23A     -0.742920    24A     -0.712712
      25A     -0.677982    26A     -0.641166    27A     -0.632437
      28A     -0.622649    29A     -0.597356    30A     -0.587341
      31A     -0.571712    32A     -0.567055    33A     -0.537265
      34A     -0.527322    35A     -0.524274    36A     -0.502664
      37A     -0.494325    38A     -0.491520    39A     -0.353288
      40A     -0.340396    41A     -0.335642    42A     -0.273917

  @DF-RHF Final Energy:  -477.54535559027437

   => Energetics <=

    Nuclear Repulsion Energy =            639.1281477566725471
    One-Electron Energy =               -1913.5549804883214620
    Two-Electron Energy =                 796.8814771413747167
    Total Energy =                       -477.5453555902743119
  Basis Set: (AUG-CC-PVTZ AUX)
    Blend: AUG-CC-PVTZ-RI
    Molecular point group: c1

    Geometry (in Angstrom), charge = 0, multiplicity = 1:

       Center              X                  Y                   Z               Mass
    ------------   -----------------  -----------------  -----------------  -----------------
         N           -1.755633662197     0.668247177118     0.207037097942    14.003074004430
         C           -0.862708362197    -0.318545522882    -0.121216502058    12.000000000000
         C            0.593364337803    -0.174941822882    -0.060185902058    12.000000000000
         C           -1.612031662197    -1.463545822882    -0.445946902058    12.000000000000
         C           -3.038962662197     0.199317177118     0.067537097942    12.000000000000
         C           -2.977538662197    -1.122784822882    -0.339841902058    12.000000000000
         C           -1.423766662197     2.003367177118     0.677641097942    12.000000000000
         C            1.239420337803     0.903992177118    -0.688505902058    12.000000000000
         C            1.376186337803    -1.142916822882     0.592019097942    12.000000000000
         C            2.629046337803     1.020838177118    -0.646179902058    12.000000000000
         C            2.766418337803    -1.035171822882     0.613946097942    12.000000000000
         C            3.397393337803     0.051597177118     0.003124097942    12.000000000000
         H           -1.195605662197    -2.410997822882    -0.765526902058     1.007825032230
         H           -3.884848662197     0.839447177118     0.282479097942     1.007825032230
         H           -3.827833662197    -1.762217822882    -0.539185902058     1.007825032230
         H           -2.223788662197     2.347699177118     1.335726097942     1.007825032230
         H           -0.489544662197     1.968791177118     1.238996097942     1.007825032230
         H           -1.316443662197     2.707865177118    -0.152328902058     1.007825032230
         H            0.651089337803     1.634714177118    -1.239450902058     1.007825032230
         H            0.878734337803    -1.973311822882     1.088415097942     1.007825032230
         H            3.114861337803     1.860694177118    -1.138041902058     1.007825032230
         H            3.358541337803    -1.792923822882     1.122208097942     1.007825032230
         H            4.480807337803     0.140404177118     0.028991097942     1.007825032230

  Basis Set: AUG-CC-PVTZ
    Blend: AUG-CC-PVTZ
  Basis Set: (AUG-CC-PVTZ AUX)
    Blend: AUG-CC-PVTZ-JKFIT
	 Reference Energy          =    -477.5453555902743688 [Eh]
	 Singles Energy            =      -0.0000000000000000 [Eh]
	 Same-Spin Energy          =      -0.5393632621488402 [Eh]
	 Opposite-Spin Energy      =      -1.6833564384574453 [Eh]
	 Correlation Energy        =      -2.2227197006062855 [Eh]
	 Total Energy              =    -479.7680752908806312 [Eh]

	 ================> DF-SCS-MP2 Energies <==================
	-----------------------------------------------------------
	 SCS Same-Spin Scale       =       0.3333333333333333 [-]
	 SCS Opposite-Spin Scale   =       1.2000000000000000 [-]
	 SCS Same-Spin Energy      =      -0.1797877540496134 [Eh]
	 SCS Opposite-Spin Energy  =      -2.0200277261489341 [Eh]
	 SCS Correlation Energy    =      -2.1998154801985477 [Eh]
	 SCS Total Energy          =    -479.7451710704729066 [Eh]
	-----------------------------------------------------------

  Dipole Moment: [D]
     X:     0.4591      Y:     1.8829      Z:     0.6933     Total:     2.0583

*** Psi4 exiting successfully. Buy a developer a beer!
