                               Psi4 1.3.2 release

  ==> Input File <==

--------------------------------------------------------------------------
#psi4
#
memory 32 gb

molecule  {
0 1
  N       -1.7531090     0.6487580     0.1985890
  C       -0.8584400    -0.3593730    -0.1157050
  C        0.5958890    -0.1944310    -0.0686340
  C       -1.7173142    -1.6443241    -0.5030102
  C       -3.0364380     0.1798280     0.0590890
  C       -2.9750140    -1.1422740    -0.3482900
  C       -1.4212420     1.9838780     0.6691930
  C        1.2419450     0.8845030    -0.6969540
  C        1.3787110    -1.1624060     0.5835710
  C        2.6315710     1.0013490    -0.6546280
  C        2.7689430    -1.0546610     0.6054980
  C        3.3999180     0.0321080    -0.0053240
  H       -1.1930810    -2.4304870    -0.7739750
  H       -3.8823240     0.8199580     0.2740310
  H       -3.8253090    -1.7817070    -0.5476340
  H       -2.2212640     2.3282100     1.3272780
  H       -0.4870200     1.9493020     1.2305480
  H       -1.3139190     2.6883760    -0.1607770
  H        0.6536140     1.6152250    -1.2478990
  H        0.8812590    -1.9928010     1.0799670
  H        3.1173860     1.8412050    -1.1464900
  H        3.3610660    -1.8124130     1.1137600
  H        4.4833320     0.1209150     0.0205430
units angstrom
no_reorient  #important for SAPT in psi4, default
symmetry c1  #important for SAPT in psi4, default
}

set PROPERTIES_ORIGIN ["COM"]
properties('MP2/aug-cc-pvtz', properties = ['dipole'])
--------------------------------------------------------------------------

    Molecular point group: c1
  Charge       = 0
  Multiplicity = 1
  Basis Set: AUG-CC-PVTZ
    Blend: AUG-CC-PVTZ
  Basis Set: (AUG-CC-PVTZ AUX)
    Blend: AUG-CC-PVTZ-JKFIT

    Orbital Energies [Eh]
    ---------------------

    Doubly Occupied:

       1A    -15.624458     2A    -11.275728     3A    -11.273406
       4A    -11.251122     5A    -11.242355     6A    -11.241132
       7A    -11.239928     8A    -11.239659     9A    -11.238152
      10A    -11.237278    11A    -11.215981    12A    -11.212102
      13A     -1.297738    14A     -1.155291    15A     -1.070416
      16A     -1.042846    17A     -1.016566    18A     -0.948461
      19A     -0.943635    20A     -0.834529    21A     -0.830569
      22A     -0.779139    23A     -0.743420    24A     -0.712086
      25A     -0.678484    26A     -0.644827    27A     -0.637060
      28A     -0.623409    29A     -0.602559    30A     -0.588283
      31A     -0.581145    32A     -0.567873    33A     -0.556536
      34A     -0.523394    35A     -0.513330    36A     -0.502683
      37A     -0.492841    38A     -0.468090    39A     -0.352929
      40A     -0.345787    41A     -0.339935    42A     -0.254700

  @DF-RHF Final Energy:  -477.49804623312610

   => Energetics <=

    Nuclear Repulsion Energy =            635.4719885454700261
    One-Electron Energy =               -1906.0603476413821227
    Two-Electron Energy =                 793.0903128627858223
    Total Energy =                       -477.4980462331261606
  Basis Set: (AUG-CC-PVTZ AUX)
    Blend: AUG-CC-PVTZ-RI
    Molecular point group: c1

    Geometry (in Angstrom), charge = 0, multiplicity = 1:

       Center              X                  Y                   Z               Mass
    ------------   -----------------  -----------------  -----------------  -----------------
         N           -1.747531498520     0.682198037562     0.209684430375    14.003074004430
         C           -0.852862498520    -0.325932962438    -0.104609569625    12.000000000000
         C            0.601466501480    -0.160990962438    -0.057538569625    12.000000000000
         C           -1.711736698520    -1.610884062438    -0.491914769625    12.000000000000
         C           -3.030860498520     0.213268037562     0.070184430375    12.000000000000
         C           -2.969436498520    -1.108833962438    -0.337194569625    12.000000000000
         C           -1.415664498520     2.017318037562     0.680288430375    12.000000000000
         C            1.247522501480     0.917943037562    -0.685858569625    12.000000000000
         C            1.384288501480    -1.128965962438     0.594666430375    12.000000000000
         C            2.637148501480     1.034789037562    -0.643532569625    12.000000000000
         C            2.774520501480    -1.021220962438     0.616593430375    12.000000000000
         C            3.405495501480     0.065548037562     0.005771430375    12.000000000000
         H           -1.187503498520    -2.397046962438    -0.762879569625     1.007825032230
         H           -3.876746498520     0.853398037562     0.285126430375     1.007825032230
         H           -3.819731498520    -1.748266962438    -0.536538569625     1.007825032230
         H           -2.215686498520     2.361650037562     1.338373430375     1.007825032230
         H           -0.481442498520     1.982742037562     1.241643430375     1.007825032230
         H           -1.308341498520     2.721816037562    -0.149681569625     1.007825032230
         H            0.659191501480     1.648665037562    -1.236803569625     1.007825032230
         H            0.886836501480    -1.959360962438     1.091062430375     1.007825032230
         H            3.122963501480     1.874645037562    -1.135394569625     1.007825032230
         H            3.366643501480    -1.778972962438     1.124855430375     1.007825032230
         H            4.488909501480     0.154355037562     0.031638430375     1.007825032230

  Basis Set: AUG-CC-PVTZ
    Blend: AUG-CC-PVTZ
  Basis Set: (AUG-CC-PVTZ AUX)
    Blend: AUG-CC-PVTZ-JKFIT
	 Reference Energy          =    -477.4980462331261037 [Eh]
	 Singles Energy            =      -0.0000000000000000 [Eh]
	 Same-Spin Energy          =      -0.5427857341778086 [Eh]
	 Opposite-Spin Energy      =      -1.6895804155478236 [Eh]
	 Correlation Energy        =      -2.2323661497256322 [Eh]
	 Total Energy              =    -479.7304123828517390 [Eh]

	 ================> DF-SCS-MP2 Energies <==================
	-----------------------------------------------------------
	 SCS Same-Spin Scale       =       0.3333333333333333 [-]
	 SCS Opposite-Spin Scale   =       1.2000000000000000 [-]
	 SCS Same-Spin Energy      =      -0.1809285780592695 [Eh]
	 SCS Opposite-Spin Energy  =      -2.0274964986573880 [Eh]
	 SCS Correlation Energy    =      -2.2084250767166576 [Eh]
	 SCS Total Energy          =    -479.7064713098427546 [Eh]
	-----------------------------------------------------------

  Dipole Moment: [D]
     X:     0.3066      Y:     1.9763      Z:     0.7001     Total:     2.1189

*** Psi4 exiting successfully. Buy a developer a beer!
