                               Psi4 1.3.2 release

  ==> Input File <==

--------------------------------------------------------------------------
#psi4
#
memory 32 gb

molecule  {
0 1
  N       -1.7531090     0.6487580     0.1985890
  C       -0.8584400    -0.3593730    -0.1157050
  C        0.7945123    -0.1719042    -0.0622053
  C       -1.6095070    -1.4830350    -0.4543950
  C       -3.0364380     0.1798280     0.0590890
  C       -2.9750140    -1.1422740    -0.3482900
  C       -1.4212420     1.9838780     0.6691930
  C        1.2419450     0.8845030    -0.6969540
  C        1.3787110    -1.1624060     0.5835710
  C        2.6315710     1.0013490    -0.6546280
  C        2.7689430    -1.0546610     0.6054980
  C        3.3999180     0.0321080    -0.0053240
  H       -1.1930810    -2.4304870    -0.7739750
  H       -3.8823240     0.8199580     0.2740310
  H       -3.8253090    -1.7817070    -0.5476340
  H       -2.2212640     2.3282100     1.3272780
  H       -0.4870200     1.9493020     1.2305480
  H       -1.3139190     2.6883760    -0.1607770
  H        0.6536140     1.6152250    -1.2478990
  H        0.8812590    -1.9928010     1.0799670
  H        3.1173860     1.8412050    -1.1464900
  H        3.3610660    -1.8124130     1.1137600
  H        4.4833320     0.1209150     0.0205430
units angstrom
no_reorient  #important for SAPT in psi4, default
symmetry c1  #important for SAPT in psi4, default
}

set PROPERTIES_ORIGIN ["COM"]
properties('MP2/aug-cc-pvtz', properties = ['dipole'])
--------------------------------------------------------------------------

    Molecular point group: c1
  Charge       = 0
  Multiplicity = 1
  Basis Set: AUG-CC-PVTZ
    Blend: AUG-CC-PVTZ
  Basis Set: (AUG-CC-PVTZ AUX)
    Blend: AUG-CC-PVTZ-JKFIT

    Orbital Energies [Eh]
    ---------------------

    Doubly Occupied:

       1A    -15.602905     2A    -11.268807     3A    -11.258143
       4A    -11.248134     5A    -11.243626     6A    -11.242463
       7A    -11.241970     8A    -11.237701     9A    -11.232292
      10A    -11.230783    11A    -11.203505    12A    -11.200151
      13A     -1.291651    14A     -1.179378    15A     -1.067349
      16A     -1.035127    17A     -1.032751    18A     -0.952588
      19A     -0.929530    20A     -0.844767    21A     -0.821357
      22A     -0.764660    23A     -0.739189    24A     -0.711503
      25A     -0.670300    26A     -0.646000    27A     -0.634622
      28A     -0.628870    29A     -0.600952    30A     -0.589470
      31A     -0.564859    32A     -0.561553    33A     -0.535429
      34A     -0.523074    35A     -0.520982    36A     -0.515585
      37A     -0.510871    38A     -0.451011    39A     -0.357212
      40A     -0.346364    41A     -0.331088    42A     -0.278367

  @DF-RHF Final Energy:  -477.50627243106737

   => Energetics <=

    Nuclear Repulsion Energy =            639.1811921155253913
    One-Electron Energy =               -1913.6810503037522722
    Two-Electron Energy =                 796.9935857571595079
    Total Energy =                       -477.5062724310673730
  Basis Set: (AUG-CC-PVTZ AUX)
    Blend: AUG-CC-PVTZ-RI
    Molecular point group: c1

    Geometry (in Angstrom), charge = 0, multiplicity = 1:

       Center              X                  Y                   Z               Mass
    ------------   -----------------  -----------------  -----------------  -----------------
         N           -1.770939646154     0.668156387907     0.205479640912    14.003074004430
         C           -0.876270646154    -0.339974612093    -0.108814359088    12.000000000000
         C            0.776681653846    -0.152505812093    -0.055314659088    12.000000000000
         C           -1.627337646154    -1.463636612093    -0.447504359088    12.000000000000
         C           -3.054268646154     0.199226387907     0.065979640912    12.000000000000
         C           -2.992844646154    -1.122875612093    -0.341399359088    12.000000000000
         C           -1.439072646154     2.003276387907     0.676083640912    12.000000000000
         C            1.224114353846     0.903901387907    -0.690063359088    12.000000000000
         C            1.360880353846    -1.143007612093     0.590461640912    12.000000000000
         C            2.613740353846     1.020747387907    -0.647737359088    12.000000000000
         C            2.751112353846    -1.035262612093     0.612388640912    12.000000000000
         C            3.382087353846     0.051506387907     0.001566640912    12.000000000000
         H           -1.210911646154    -2.411088612093    -0.767084359088     1.007825032230
         H           -3.900154646154     0.839356387907     0.280921640912     1.007825032230
         H           -3.843139646154    -1.762308612093    -0.540743359088     1.007825032230
         H           -2.239094646154     2.347608387907     1.334168640912     1.007825032230
         H           -0.504850646154     1.968700387907     1.237438640912     1.007825032230
         H           -1.331749646154     2.707774387907    -0.153886359088     1.007825032230
         H            0.635783353846     1.634623387907    -1.241008359088     1.007825032230
         H            0.863428353846    -1.973402612093     1.086857640912     1.007825032230
         H            3.099555353846     1.860603387907    -1.139599359088     1.007825032230
         H            3.343235353846    -1.793014612093     1.120650640912     1.007825032230
         H            4.465501353846     0.140313387907     0.027433640912     1.007825032230

  Basis Set: AUG-CC-PVTZ
    Blend: AUG-CC-PVTZ
  Basis Set: (AUG-CC-PVTZ AUX)
    Blend: AUG-CC-PVTZ-JKFIT
	 Reference Energy          =    -477.5062724310673730 [Eh]
	 Singles Energy            =      -0.0000000000000000 [Eh]
	 Same-Spin Energy          =      -0.5384435416874920 [Eh]
	 Opposite-Spin Energy      =      -1.6826839572384433 [Eh]
	 Correlation Energy        =      -2.2211274989259353 [Eh]
	 Total Energy              =    -479.7273999299932825 [Eh]

	 ================> DF-SCS-MP2 Energies <==================
	-----------------------------------------------------------
	 SCS Same-Spin Scale       =       0.3333333333333333 [-]
	 SCS Opposite-Spin Scale   =       1.2000000000000000 [-]
	 SCS Same-Spin Energy      =      -0.1794811805624973 [Eh]
	 SCS Opposite-Spin Energy  =      -2.0192207486861320 [Eh]
	 SCS Correlation Energy    =      -2.1987019292486294 [Eh]
	 SCS Total Energy          =    -479.7049743603159868 [Eh]
	-----------------------------------------------------------

  Dipole Moment: [D]
     X:     0.9945      Y:     1.8938      Z:     0.6981     Total:     2.2501

*** Psi4 exiting successfully. Buy a developer a beer!
