                               Psi4 1.3.2 release

  ==> Input File <==

--------------------------------------------------------------------------
#psi4
#
memory 32 gb

molecule  {
0 1
  N       -1.7368220     0.6059022     0.1845796
  C       -0.8584400    -0.3593730    -0.1157050
  C        0.5958890    -0.1944310    -0.0686340
  C       -1.6095070    -1.4830350    -0.4543950
  C       -3.0364380     0.1798280     0.0590890
  C       -2.9750140    -1.1422740    -0.3482900
  C       -1.4212420     1.9838780     0.6691930
  C        1.2419450     0.8845030    -0.6969540
  C        1.3787110    -1.1624060     0.5835710
  C        2.6315710     1.0013490    -0.6546280
  C        2.7689430    -1.0546610     0.6054980
  C        3.3999180     0.0321080    -0.0053240
  H       -1.1930810    -2.4304870    -0.7739750
  H       -3.8823240     0.8199580     0.2740310
  H       -3.8253090    -1.7817070    -0.5476340
  H       -2.2212640     2.3282100     1.3272780
  H       -0.4870200     1.9493020     1.2305480
  H       -1.3139190     2.6883760    -0.1607770
  H        0.6536140     1.6152250    -1.2478990
  H        0.8812590    -1.9928010     1.0799670
  H        3.1173860     1.8412050    -1.1464900
  H        3.3610660    -1.8124130     1.1137600
  H        4.4833320     0.1209150     0.0205430
units angstrom
no_reorient  #important for SAPT in psi4, default
symmetry c1  #important for SAPT in psi4, default
}

set PROPERTIES_ORIGIN ["COM"]
properties('MP2/aug-cc-pvtz', properties = ['dipole'])
--------------------------------------------------------------------------

    Molecular point group: c1
  Charge       = 0
  Multiplicity = 1
  Basis Set: AUG-CC-PVTZ
    Blend: AUG-CC-PVTZ
  Basis Set: (AUG-CC-PVTZ AUX)
    Blend: AUG-CC-PVTZ-JKFIT

    Orbital Energies [Eh]
    ---------------------

    Doubly Occupied:

       1A    -15.608900     2A    -11.274835     3A    -11.253220
       4A    -11.250626     5A    -11.244428     6A    -11.241218
       7A    -11.240077     8A    -11.239713     9A    -11.238410
      10A    -11.237475    11A    -11.207177    12A    -11.202111
      13A     -1.306271    14A     -1.155392    15A     -1.065709
      16A     -1.045260    17A     -1.016557    18A     -0.961311
      19A     -0.932991    20A     -0.834327    21A     -0.831063
      22A     -0.772221    23A     -0.741331    24A     -0.711409
      25A     -0.678857    26A     -0.640274    27A     -0.633149
      28A     -0.621713    29A     -0.595867    30A     -0.587600
      31A     -0.575811    32A     -0.556705    33A     -0.539667
      34A     -0.530247    35A     -0.524888    36A     -0.503544
      37A     -0.494565    38A     -0.492668    39A     -0.353309
      40A     -0.340618    41A     -0.334616    42A     -0.275277

  @DF-RHF Final Energy:  -477.54358016895492

   => Energetics <=

    Nuclear Repulsion Energy =            639.7109380407252957
    One-Electron Energy =               -1914.7262215676410051
    Two-Electron Energy =                 797.4717033579607914
    Total Energy =                       -477.5435801689549180
  Basis Set: (AUG-CC-PVTZ AUX)
    Blend: AUG-CC-PVTZ-RI
    Molecular point group: c1

    Geometry (in Angstrom), charge = 0, multiplicity = 1:

       Center              X                  Y                   Z               Mass
    ------------   -----------------  -----------------  -----------------  -----------------
         N           -1.740931701439     0.630841610584     0.193210138710    14.003074004430
         C           -0.862549701439    -0.334433589416    -0.107074461290    12.000000000000
         C            0.591779298561    -0.169491589416    -0.060003461290    12.000000000000
         C           -1.613616701439    -1.458095589416    -0.445764461290    12.000000000000
         C           -3.040547701439     0.204767410584     0.067719538710    12.000000000000
         C           -2.979123701439    -1.117334589416    -0.339659461290    12.000000000000
         C           -1.425351701439     2.008817410584     0.677823538710    12.000000000000
         C            1.237835298561     0.909442410584    -0.688323461290    12.000000000000
         C            1.374601298561    -1.137466589416     0.592201538710    12.000000000000
         C            2.627461298561     1.026288410584    -0.645997461290    12.000000000000
         C            2.764833298561    -1.029721589416     0.614128538710    12.000000000000
         C            3.395808298561     0.057047410584     0.003306538710    12.000000000000
         H           -1.197190701439    -2.405547589416    -0.765344461290     1.007825032230
         H           -3.886433701439     0.844897410584     0.282661538710     1.007825032230
         H           -3.829418701439    -1.756767589416    -0.539003461290     1.007825032230
         H           -2.225373701439     2.353149410584     1.335908538710     1.007825032230
         H           -0.491129701439     1.974241410584     1.239178538710     1.007825032230
         H           -1.318028701439     2.713315410584    -0.152146461290     1.007825032230
         H            0.649504298561     1.640164410584    -1.239268461290     1.007825032230
         H            0.877149298561    -1.967861589416     1.088597538710     1.007825032230
         H            3.113276298561     1.866144410584    -1.137859461290     1.007825032230
         H            3.356956298561    -1.787473589416     1.122390538710     1.007825032230
         H            4.479222298561     0.145854410584     0.029173538710     1.007825032230

  Basis Set: AUG-CC-PVTZ
    Blend: AUG-CC-PVTZ
  Basis Set: (AUG-CC-PVTZ AUX)
    Blend: AUG-CC-PVTZ-JKFIT
	 Reference Energy          =    -477.5435801689549180 [Eh]
	 Singles Energy            =      -0.0000000000000000 [Eh]
	 Same-Spin Energy          =      -0.5391893258132407 [Eh]
	 Opposite-Spin Energy      =      -1.6829564365715257 [Eh]
	 Correlation Energy        =      -2.2221457623847662 [Eh]
	 Total Energy              =    -479.7657259313396594 [Eh]

	 ================> DF-SCS-MP2 Energies <==================
	-----------------------------------------------------------
	 SCS Same-Spin Scale       =       0.3333333333333333 [-]
	 SCS Opposite-Spin Scale   =       1.2000000000000000 [-]
	 SCS Same-Spin Energy      =      -0.1797297752710802 [Eh]
	 SCS Opposite-Spin Energy  =      -2.0195477238858306 [Eh]
	 SCS Correlation Energy    =      -2.1992774991569108 [Eh]
	 SCS Total Energy          =    -479.7428576681118102 [Eh]
	-----------------------------------------------------------

  Dipole Moment: [D]
     X:     0.4968      Y:     1.9998      Z:     0.7204     Total:     2.1829

*** Psi4 exiting successfully. Buy a developer a beer!
