                               Psi4 1.3.2 release

  ==> Input File <==

--------------------------------------------------------------------------
#psi4
#
memory 32 gb

molecule  {
0 1
  N       -1.7531090     0.6487580     0.1985890
  C       -0.8584400    -0.3593730    -0.1157050
  C        0.5958890    -0.1944310    -0.0686340
  C       -1.6095070    -1.4830350    -0.4543950
  C       -3.0364380     0.1798280     0.0590890
  C       -2.9750140    -1.1422740    -0.3482900
  C       -1.4440662     1.8920548     0.6368271
  C        1.2419450     0.8845030    -0.6969540
  C        1.3787110    -1.1624060     0.5835710
  C        2.6315710     1.0013490    -0.6546280
  C        2.7689430    -1.0546610     0.6054980
  C        3.3999180     0.0321080    -0.0053240
  H       -1.1930810    -2.4304870    -0.7739750
  H       -3.8823240     0.8199580     0.2740310
  H       -3.8253090    -1.7817070    -0.5476340
  H       -2.2212640     2.3282100     1.3272780
  H       -0.4870200     1.9493020     1.2305480
  H       -1.3139190     2.6883760    -0.1607770
  H        0.6536140     1.6152250    -1.2478990
  H        0.8812590    -1.9928010     1.0799670
  H        3.1173860     1.8412050    -1.1464900
  H        3.3610660    -1.8124130     1.1137600
  H        4.4833320     0.1209150     0.0205430
units angstrom
no_reorient  #important for SAPT in psi4, default
symmetry c1  #important for SAPT in psi4, default
}

set PROPERTIES_ORIGIN ["COM"]
properties('MP2/aug-cc-pvtz', properties = ['dipole'])
--------------------------------------------------------------------------

    Molecular point group: c1
  Charge       = 0
  Multiplicity = 1
  Basis Set: AUG-CC-PVTZ
    Blend: AUG-CC-PVTZ
  Basis Set: (AUG-CC-PVTZ AUX)
    Blend: AUG-CC-PVTZ-JKFIT

    Orbital Energies [Eh]
    ---------------------

    Doubly Occupied:

       1A    -15.608118     2A    -11.270334     3A    -11.259906
       4A    -11.251544     5A    -11.251016     6A    -11.241006
       7A    -11.240038     8A    -11.239642     9A    -11.238569
      10A    -11.237889    11A    -11.212035    12A    -11.210469
      13A     -1.318303    14A     -1.156105    15A     -1.088321
      16A     -1.045885    17A     -1.016709    18A     -0.959364
      19A     -0.925730    20A     -0.834564    21A     -0.831576
      22A     -0.777191    23A     -0.749109    24A     -0.721027
      25A     -0.680015    26A     -0.642666    27A     -0.633679
      28A     -0.622892    29A     -0.593749    30A     -0.588355
      31A     -0.587586    32A     -0.564961    33A     -0.538852
      34A     -0.516624    35A     -0.511422    36A     -0.501869
      37A     -0.495556    38A     -0.488620    39A     -0.355227
      40A     -0.340502    41A     -0.335567    42A     -0.277891

  @DF-RHF Final Energy:  -477.53522173517513

   => Energetics <=

    Nuclear Repulsion Energy =            641.0679359683133498
    One-Electron Energy =               -1917.2853406359245128
    Two-Electron Energy =                 798.6821829324360351
    Total Energy =                       -477.5352217351751278
  Basis Set: (AUG-CC-PVTZ AUX)
    Blend: AUG-CC-PVTZ-RI
    Molecular point group: c1

    Geometry (in Angstrom), charge = 0, multiplicity = 1:

       Center              X                  Y                   Z               Mass
    ------------   -----------------  -----------------  -----------------  -----------------
         N           -1.754023328186     0.676891555203     0.208443150498    14.003074004430
         C           -0.859354328186    -0.331239444797    -0.105850849502    12.000000000000
         C            0.594974671814    -0.166297444797    -0.058779849502    12.000000000000
         C           -1.610421328186    -1.454901444797    -0.444540849502    12.000000000000
         C           -3.037352328186     0.207961555203     0.068943150498    12.000000000000
         C           -2.975928328186    -1.114140444797    -0.338435849502    12.000000000000
         C           -1.444980528186     1.920188355203     0.646681250498    12.000000000000
         C            1.241030671814     0.912636555203    -0.687099849502    12.000000000000
         C            1.377796671814    -1.134272444797     0.593425150498    12.000000000000
         C            2.630656671814     1.029482555203    -0.644773849502    12.000000000000
         C            2.768028671814    -1.026527444797     0.615352150498    12.000000000000
         C            3.399003671814     0.060241555203     0.004530150498    12.000000000000
         H           -1.193995328186    -2.402353444797    -0.764120849502     1.007825032230
         H           -3.883238328186     0.848091555203     0.283885150498     1.007825032230
         H           -3.826223328186    -1.753573444797    -0.537779849502     1.007825032230
         H           -2.222178328186     2.356343555203     1.337132150498     1.007825032230
         H           -0.487934328186     1.977435555203     1.240402150498     1.007825032230
         H           -1.314833328186     2.716509555203    -0.150922849502     1.007825032230
         H            0.652699671814     1.643358555203    -1.238044849502     1.007825032230
         H            0.880344671814    -1.964667444797     1.089821150498     1.007825032230
         H            3.116471671814     1.869338555203    -1.136635849502     1.007825032230
         H            3.360151671814    -1.784279444797     1.123614150498     1.007825032230
         H            4.482417671814     0.149048555203     0.030397150498     1.007825032230

  Basis Set: AUG-CC-PVTZ
    Blend: AUG-CC-PVTZ
  Basis Set: (AUG-CC-PVTZ AUX)
    Blend: AUG-CC-PVTZ-JKFIT
	 Reference Energy          =    -477.5352217351751278 [Eh]
	 Singles Energy            =      -0.0000000000000000 [Eh]
	 Same-Spin Energy          =      -0.5399851404025375 [Eh]
	 Opposite-Spin Energy      =      -1.6837951944449974 [Eh]
	 Correlation Energy        =      -2.2237803348475351 [Eh]
	 Total Energy              =    -479.7590020700226887 [Eh]

	 ================> DF-SCS-MP2 Energies <==================
	-----------------------------------------------------------
	 SCS Same-Spin Scale       =       0.3333333333333333 [-]
	 SCS Opposite-Spin Scale   =       1.2000000000000000 [-]
	 SCS Same-Spin Energy      =      -0.1799950468008458 [Eh]
	 SCS Opposite-Spin Energy  =      -2.0205542333339968 [Eh]
	 SCS Correlation Energy    =      -2.2005492801348425 [Eh]
	 SCS Total Energy          =    -479.7357710153099788 [Eh]
	-----------------------------------------------------------

  Dipole Moment: [D]
     X:     0.4433      Y:     1.5540      Z:     0.5940     Total:     1.7217

*** Psi4 exiting successfully. Buy a developer a beer!
