                               Psi4 1.4a3.dev225

  ==> Input File <==

--------------------------------------------------------------------------
#psi4
#
memory 32 gb

molecule  {
0 1
  N       -1.7531090     0.6487580     0.1985890
  C       -0.8584400    -0.3593730    -0.1157050
  C        0.5958890    -0.1944310    -0.0686340
  C       -1.6095070    -1.4830350    -0.4543950
  C       -3.0364380     0.1798280     0.0590890
  C       -2.9750140    -1.1422740    -0.3482900
  C       -1.4212420     1.9838780     0.6691930
  C        1.2419450     0.8845030    -0.6969540
  C        1.3787110    -1.1624060     0.5835710
  C        2.6315710     1.0013490    -0.6546280
  C        2.7689430    -1.0546610     0.6054980
  C        3.3999180     0.0321080    -0.0053240
  H       -1.1930810    -2.4304870    -0.7739750
  H       -3.9214002     0.8495292     0.2839604
  H       -3.8253090    -1.7817070    -0.5476340
  H       -2.2212640     2.3282100     1.3272780
  H       -0.4870200     1.9493020     1.2305480
  H       -1.3139190     2.6883760    -0.1607770
  H        0.6536140     1.6152250    -1.2478990
  H        0.8812590    -1.9928010     1.0799670
  H        3.1173860     1.8412050    -1.1464900
  H        3.3610660    -1.8124130     1.1137600
  H        4.4833320     0.1209150     0.0205430
units angstrom
no_reorient  #important for SAPT in psi4, default
symmetry c1  #important for SAPT in psi4, default
}

set PROPERTIES_ORIGIN ["COM"]
properties('MP2/aug-cc-pvtz', properties = ['dipole'])
--------------------------------------------------------------------------

    Molecular point group: c1
  Charge       = 0
  Multiplicity = 1
  Basis Set: AUG-CC-PVTZ
    Blend: AUG-CC-PVTZ
  Basis Set: (AUG-CC-PVTZ AUX)
    Blend: AUG-CC-PVTZ-JKFIT

    Orbital Energies [Eh]
    ---------------------

    Doubly Occupied:

       1A    -15.608054     2A    -11.270617     3A    -11.256687
       4A    -11.254165     5A    -11.250276     6A    -11.240772
       7A    -11.239622     8A    -11.239315     9A    -11.238012
      10A    -11.237121    11A    -11.208749    12A    -11.207295
      13A     -1.299100    14A     -1.155127    15A     -1.073599
      16A     -1.043739    17A     -1.016240    18A     -0.954333
      19A     -0.933452    20A     -0.832313    21A     -0.830614
      22A     -0.769464    23A     -0.741211    24A     -0.711864
      25A     -0.675875    26A     -0.639567    27A     -0.629802
      28A     -0.622357    29A     -0.595997    30A     -0.587203
      31A     -0.569781    32A     -0.566848    33A     -0.536190
      34A     -0.526980    35A     -0.523457    36A     -0.502114
      37A     -0.494936    38A     -0.491865    39A     -0.354053
      40A     -0.340354    41A     -0.335576    42A     -0.275276

  @DF-RHF Final Energy:  -477.54343301992418

   => Energetics <=

    Nuclear Repulsion Energy =            638.7846228697283095
    One-Electron Energy =               -1912.8961697514946536
    Two-Electron Energy =                 796.5681138618422210
    Total Energy =                       -477.5434330199241231
  Basis Set: (AUG-CC-PVTZ AUX)
    Blend: AUG-CC-PVTZ-RI
    Molecular point group: c1

    Geometry (in Angstrom), charge = 0, multiplicity = 1:

       Center              X                  Y                   Z               Mass
    ------------   -----------------  -----------------  -----------------  -----------------
         N           -1.755516164759     0.669687486684     0.205907024359    14.003074004430
         C           -0.860847164759    -0.338443513316    -0.108386975641    12.000000000000
         C            0.593481835241    -0.173501513316    -0.061315975641    12.000000000000
         C           -1.611914164759    -1.462105513316    -0.447076975641    12.000000000000
         C           -3.038845164759     0.200757486684     0.066407024359    12.000000000000
         C           -2.977421164759    -1.121344513316    -0.340971975641    12.000000000000
         C           -1.423649164759     2.004807486684     0.676511024359    12.000000000000
         C            1.239537835241     0.905432486684    -0.689635975641    12.000000000000
         C            1.376303835241    -1.141476513316     0.590889024359    12.000000000000
         C            2.629163835241     1.022278486684    -0.647309975641    12.000000000000
         C            2.766535835241    -1.033731513316     0.612816024359    12.000000000000
         C            3.397510835241     0.053037486684     0.001994024359    12.000000000000
         H           -1.195488164759    -2.409557513316    -0.766656975641     1.007825032230
         H           -3.923807364759     0.870458686684     0.291278424359     1.007825032230
         H           -3.827716164759    -1.760777513316    -0.540315975641     1.007825032230
         H           -2.223671164759     2.349139486684     1.334596024359     1.007825032230
         H           -0.489427164759     1.970231486684     1.237866024359     1.007825032230
         H           -1.316326164759     2.709305486684    -0.153458975641     1.007825032230
         H            0.651206835241     1.636154486684    -1.240580975641     1.007825032230
         H            0.878851835241    -1.971871513316     1.087285024359     1.007825032230
         H            3.114978835241     1.862134486684    -1.139171975641     1.007825032230
         H            3.358658835241    -1.791483513316     1.121078024359     1.007825032230
         H            4.480924835241     0.141844486684     0.027861024359     1.007825032230

  Basis Set: AUG-CC-PVTZ
    Blend: AUG-CC-PVTZ
  Basis Set: (AUG-CC-PVTZ AUX)
    Blend: AUG-CC-PVTZ-JKFIT
	 Reference Energy          =    -477.5434330199241799 [Eh]
	 Singles Energy            =      -0.0000000000000000 [Eh]
	 Same-Spin Energy          =      -0.5392997204460619 [Eh]
	 Opposite-Spin Energy      =      -1.6836859933481922 [Eh]
	 Correlation Energy        =      -2.2229857137942544 [Eh]
	 Total Energy              =    -479.7664187337184103 [Eh]

	 ================> DF-SCS-MP2 Energies <==================
	-----------------------------------------------------------
	 SCS Same-Spin Scale       =       0.3333333333333333 [-]
	 SCS Opposite-Spin Scale   =       1.2000000000000000 [-]
	 SCS Same-Spin Energy      =      -0.1797665734820206 [Eh]
	 SCS Opposite-Spin Energy  =      -2.0204231920178306 [Eh]
	 SCS Correlation Energy    =      -2.2001897654998510 [Eh]
	 SCS Total Energy          =    -479.7436227854240087 [Eh]
	-----------------------------------------------------------

  Dipole Moment: [D]
     X:     0.4776      Y:     1.8537      Z:     0.6750     Total:     2.0297

*** Psi4 exiting successfully. Buy a developer a beer!
