                               Psi4 1.3.2 release

  ==> Input File <==

--------------------------------------------------------------------------
#psi4
#
memory 32 gb

molecule  {
0 1
  N       -1.7531090     0.6487580     0.1985890
  C       -0.8584400    -0.3593730    -0.1157050
  C        0.5958890    -0.1944310    -0.0686340
  C       -1.6095070    -1.4830350    -0.4543950
  C       -2.9783556     0.0564315     0.0136324
  C       -2.9750140    -1.1422740    -0.3482900
  C       -1.4212420     1.9838780     0.6691930
  C        1.2419450     0.8845030    -0.6969540
  C        1.3787110    -1.1624060     0.5835710
  C        2.6315710     1.0013490    -0.6546280
  C        2.7689430    -1.0546610     0.6054980
  C        3.3999180     0.0321080    -0.0053240
  H       -1.1930810    -2.4304870    -0.7739750
  H       -3.8823240     0.8199580     0.2740310
  H       -3.8253090    -1.7817070    -0.5476340
  H       -2.2212640     2.3282100     1.3272780
  H       -0.4870200     1.9493020     1.2305480
  H       -1.3139190     2.6883760    -0.1607770
  H        0.6536140     1.6152250    -1.2478990
  H        0.8812590    -1.9928010     1.0799670
  H        3.1173860     1.8412050    -1.1464900
  H        3.3610660    -1.8124130     1.1137600
  H        4.4833320     0.1209150     0.0205430
units angstrom
no_reorient  #important for SAPT in psi4, default
symmetry c1  #important for SAPT in psi4, default
}

set PROPERTIES_ORIGIN ["COM"]
properties('MP2/aug-cc-pvtz', properties = ['dipole'])
--------------------------------------------------------------------------

    Molecular point group: c1
  Charge       = 0
  Multiplicity = 1
  Basis Set: AUG-CC-PVTZ
    Blend: AUG-CC-PVTZ
  Basis Set: (AUG-CC-PVTZ AUX)
    Blend: AUG-CC-PVTZ-JKFIT

    Orbital Energies [Eh]
    ---------------------

    Doubly Occupied:

       1A    -15.598540     2A    -11.272523     3A    -11.255687
       4A    -11.248871     5A    -11.244971     6A    -11.240331
       7A    -11.239125     8A    -11.238784     9A    -11.237515
      10A    -11.236364    11A    -11.204713    12A    -11.191986
      13A     -1.303702    14A     -1.154514    15A     -1.091817
      16A     -1.045493    17A     -1.015776    18A     -0.959588
      19A     -0.934419    20A     -0.835237    21A     -0.829183
      22A     -0.769038    23A     -0.738067    24A     -0.714051
      25A     -0.673693    26A     -0.639584    27A     -0.625878
      28A     -0.620031    29A     -0.596970    30A     -0.588259
      31A     -0.585713    32A     -0.561813    33A     -0.534070
      34A     -0.533088    35A     -0.511574    36A     -0.496453
      37A     -0.494744    38A     -0.489663    39A     -0.357553
      40A     -0.343816    41A     -0.338755    42A     -0.281565

  @DF-RHF Final Energy:  -477.51687040222447

   => Energetics <=

    Nuclear Repulsion Energy =            641.2573102067508444
    One-Electron Energy =               -1917.8013284798780660
    Two-Electron Energy =                 799.0271478709028088
    Total Energy =                       -477.5168704022244128
  Basis Set: (AUG-CC-PVTZ AUX)
    Blend: AUG-CC-PVTZ-RI
    Molecular point group: c1

    Geometry (in Angstrom), charge = 0, multiplicity = 1:

       Center              X                  Y                   Z               Mass
    ------------   -----------------  -----------------  -----------------  -----------------
         N           -1.760203762697     0.679303431526     0.209443145728    14.003074004430
         C           -0.865534762697    -0.328827568474    -0.104850854272    12.000000000000
         C            0.588794237303    -0.163885568474    -0.057779854272    12.000000000000
         C           -1.616601762697    -1.452489568474    -0.443540854272    12.000000000000
         C           -2.985450362697     0.086976931526     0.024486545728    12.000000000000
         C           -2.982108762697    -1.111728568474    -0.337435854272    12.000000000000
         C           -1.428336762697     2.014423431526     0.680047145728    12.000000000000
         C            1.234850237303     0.915048431526    -0.686099854272    12.000000000000
         C            1.371616237303    -1.131860568474     0.594425145728    12.000000000000
         C            2.624476237303     1.031894431526    -0.643773854272    12.000000000000
         C            2.761848237303    -1.024115568474     0.616352145728    12.000000000000
         C            3.392823237303     0.062653431526     0.005530145728    12.000000000000
         H           -1.200175762697    -2.399941568474    -0.763120854272     1.007825032230
         H           -3.889418762697     0.850503431526     0.284885145728     1.007825032230
         H           -3.832403762697    -1.751161568474    -0.536779854272     1.007825032230
         H           -2.228358762697     2.358755431526     1.338132145728     1.007825032230
         H           -0.494114762697     1.979847431526     1.241402145728     1.007825032230
         H           -1.321013762697     2.718921431526    -0.149922854272     1.007825032230
         H            0.646519237303     1.645770431526    -1.237044854272     1.007825032230
         H            0.874164237303    -1.962255568474     1.090821145728     1.007825032230
         H            3.110291237303     1.871750431526    -1.135635854272     1.007825032230
         H            3.353971237303    -1.781867568474     1.124614145728     1.007825032230
         H            4.476237237303     0.151460431526     0.031397145728     1.007825032230

  Basis Set: AUG-CC-PVTZ
    Blend: AUG-CC-PVTZ
  Basis Set: (AUG-CC-PVTZ AUX)
    Blend: AUG-CC-PVTZ-JKFIT
	 Reference Energy          =    -477.5168704022244697 [Eh]
	 Singles Energy            =      -0.0000000000000000 [Eh]
	 Same-Spin Energy          =      -0.5380018816732041 [Eh]
	 Opposite-Spin Energy      =      -1.6817281468605376 [Eh]
	 Correlation Energy        =      -2.2197300285337418 [Eh]
	 Total Energy              =    -479.7366004307581875 [Eh]

	 ================> DF-SCS-MP2 Energies <==================
	-----------------------------------------------------------
	 SCS Same-Spin Scale       =       0.3333333333333333 [-]
	 SCS Opposite-Spin Scale   =       1.2000000000000000 [-]
	 SCS Same-Spin Energy      =      -0.1793339605577347 [Eh]
	 SCS Opposite-Spin Energy  =      -2.0180737762326451 [Eh]
	 SCS Correlation Energy    =      -2.1974077367903799 [Eh]
	 SCS Total Energy          =    -479.7142781390148230 [Eh]
	-----------------------------------------------------------

  Dipole Moment: [D]
     X:     0.3708      Y:     1.7378      Z:     0.6465     Total:     1.8908

*** Psi4 exiting successfully. Buy a developer a beer!
