                               Psi4 1.3.2 release

  ==> Input File <==

--------------------------------------------------------------------------
#psi4
#
memory 32 gb

molecule  {
0 1
  N       -1.7531090     0.6487580     0.1985890
  C       -0.8584400    -0.3593730    -0.1157050
  C        0.5958890    -0.1944310    -0.0686340
  C       -1.6095070    -1.4830350    -0.4543950
  C       -3.0364380     0.1798280     0.0590890
  C       -2.9750140    -1.1422740    -0.3482900
  C       -1.4668905     1.8002316     0.6044612
  C        1.2419450     0.8845030    -0.6969540
  C        1.3787110    -1.1624060     0.5835710
  C        2.6315710     1.0013490    -0.6546280
  C        2.7689430    -1.0546610     0.6054980
  C        3.3999180     0.0321080    -0.0053240
  H       -1.1930810    -2.4304870    -0.7739750
  H       -3.8823240     0.8199580     0.2740310
  H       -3.8253090    -1.7817070    -0.5476340
  H       -2.2212640     2.3282100     1.3272780
  H       -0.4870200     1.9493020     1.2305480
  H       -1.3139190     2.6883760    -0.1607770
  H        0.6536140     1.6152250    -1.2478990
  H        0.8812590    -1.9928010     1.0799670
  H        3.1173860     1.8412050    -1.1464900
  H        3.3610660    -1.8124130     1.1137600
  H        4.4833320     0.1209150     0.0205430
units angstrom
no_reorient  #important for SAPT in psi4, default
symmetry c1  #important for SAPT in psi4, default
}

set PROPERTIES_ORIGIN ["COM"]
properties('MP2/aug-cc-pvtz', properties = ['dipole'])
--------------------------------------------------------------------------

    Molecular point group: c1
  Charge       = 0
  Multiplicity = 1
  Basis Set: AUG-CC-PVTZ
    Blend: AUG-CC-PVTZ
  Basis Set: (AUG-CC-PVTZ AUX)
    Blend: AUG-CC-PVTZ-JKFIT

    Orbital Energies [Eh]
    ---------------------

    Doubly Occupied:

       1A    -15.607244     2A    -11.272755     3A    -11.263952
       4A    -11.255073     5A    -11.252009     6A    -11.241390
       7A    -11.240630     8A    -11.240106     9A    -11.239373
      10A    -11.238738    11A    -11.216691    12A    -11.214884
      13A     -1.345629    14A     -1.157513    15A     -1.106146
      16A     -1.048311    17A     -1.017303    18A     -0.963625
      19A     -0.920361    20A     -0.835927    21A     -0.832883
      22A     -0.785253    23A     -0.756022    24A     -0.727099
      25A     -0.682210    26A     -0.650550    27A     -0.636612
      28A     -0.625947    29A     -0.603020    30A     -0.595164
      31A     -0.588323    32A     -0.564462    33A     -0.542007
      34A     -0.507801    35A     -0.505915    36A     -0.496465
      37A     -0.487280    38A     -0.478362    39A     -0.356647
      40A     -0.340529    41A     -0.333210    42A     -0.281211

  @DF-RHF Final Energy:  -477.49626107568662

   => Energetics <=

    Nuclear Repulsion Energy =            643.2812565398255629
    One-Electron Energy =               -1921.4457736186116108
    Two-Electron Energy =                 800.6682560030993727
    Total Energy =                       -477.4962610756866752
  Basis Set: (AUG-CC-PVTZ AUX)
    Blend: AUG-CC-PVTZ-RI
    Molecular point group: c1

    Geometry (in Angstrom), charge = 0, multiplicity = 1:

       Center              X                  Y                   Z               Mass
    ------------   -----------------  -----------------  -----------------  -----------------
         N           -1.752279785738     0.683905906000     0.210915573333    14.003074004430
         C           -0.857610785738    -0.324225094000    -0.103378426667    12.000000000000
         C            0.596718214262    -0.159283094000    -0.056307426667    12.000000000000
         C           -1.608677785738    -1.447887094000    -0.442068426667    12.000000000000
         C           -3.035608785738     0.214975906000     0.071415573333    12.000000000000
         C           -2.974184785738    -1.107126094000    -0.335963426667    12.000000000000
         C           -1.466061285738     1.835379506000     0.616787773333    12.000000000000
         C            1.242774214262     0.919650906000    -0.684627426667    12.000000000000
         C            1.379540214262    -1.127258094000     0.595897573333    12.000000000000
         C            2.632400214262     1.036496906000    -0.642301426667    12.000000000000
         C            2.769772214262    -1.019513094000     0.617824573333    12.000000000000
         C            3.400747214262     0.067255906000     0.007002573333    12.000000000000
         H           -1.192251785738    -2.395339094000    -0.761648426667     1.007825032230
         H           -3.881494785738     0.855105906000     0.286357573333     1.007825032230
         H           -3.824479785738    -1.746559094000    -0.535307426667     1.007825032230
         H           -2.220434785738     2.363357906000     1.339604573333     1.007825032230
         H           -0.486190785738     1.984449906000     1.242874573333     1.007825032230
         H           -1.313089785738     2.723523906000    -0.148450426667     1.007825032230
         H            0.654443214262     1.650372906000    -1.235572426667     1.007825032230
         H            0.882088214262    -1.957653094000     1.092293573333     1.007825032230
         H            3.118215214262     1.876352906000    -1.134163426667     1.007825032230
         H            3.361895214262    -1.777265094000     1.126086573333     1.007825032230
         H            4.484161214262     0.156062906000     0.032869573333     1.007825032230

  Basis Set: AUG-CC-PVTZ
    Blend: AUG-CC-PVTZ
  Basis Set: (AUG-CC-PVTZ AUX)
    Blend: AUG-CC-PVTZ-JKFIT
	 Reference Energy          =    -477.4962610756866184 [Eh]
	 Singles Energy            =      -0.0000000000000000 [Eh]
	 Same-Spin Energy          =      -0.5415887843101119 [Eh]
	 Opposite-Spin Energy      =      -1.6857532703428570 [Eh]
	 Correlation Energy        =      -2.2273420546529690 [Eh]
	 Total Energy              =    -479.7236031303395976 [Eh]

	 ================> DF-SCS-MP2 Energies <==================
	-----------------------------------------------------------
	 SCS Same-Spin Scale       =       0.3333333333333333 [-]
	 SCS Opposite-Spin Scale   =       1.2000000000000000 [-]
	 SCS Same-Spin Energy      =      -0.1805295947700373 [Eh]
	 SCS Opposite-Spin Energy  =      -2.0229039244114282 [Eh]
	 SCS Correlation Energy    =      -2.2034335191814653 [Eh]
	 SCS Total Energy          =    -479.6996945948681059 [Eh]
	-----------------------------------------------------------

  Dipole Moment: [D]
     X:     0.4112      Y:     1.1706      Z:     0.4970     Total:     1.3366

*** Psi4 exiting successfully. Buy a developer a beer!
