                               Psi4 1.4a3.dev225

  ==> Input File <==

--------------------------------------------------------------------------
#psi4
#
memory 32 gb

molecule  {
0 1
  N       -1.7531090     0.6487580     0.1985890
  C       -0.8584400    -0.3593730    -0.1157050
  C        0.5958890    -0.1944310    -0.0686340
  C       -1.6095070    -1.4830350    -0.4543950
  C       -3.0364380     0.1798280     0.0590890
  C       -2.9750140    -1.1422740    -0.3482900
  C       -1.4212420     1.9838780     0.6691930
  C        1.2419450     0.8845030    -0.6969540
  C        1.3787110    -1.1624060     0.5835710
  C        2.6315710     1.0013490    -0.6546280
  C        2.7689430    -1.0546610     0.6054980
  C        3.3999180     0.0321080    -0.0053240
  H       -1.1853918    -2.4479814    -0.7798760
  H       -3.8823240     0.8199580     0.2740310
  H       -3.8253090    -1.7817070    -0.5476340
  H       -2.2212640     2.3282100     1.3272780
  H       -0.4870200     1.9493020     1.2305480
  H       -1.3139190     2.6883760    -0.1607770
  H        0.6536140     1.6152250    -1.2478990
  H        0.8812590    -1.9928010     1.0799670
  H        3.1173860     1.8412050    -1.1464900
  H        3.3610660    -1.8124130     1.1137600
  H        4.4833320     0.1209150     0.0205430
units angstrom
no_reorient  #important for SAPT in psi4, default
symmetry c1  #important for SAPT in psi4, default
}

set PROPERTIES_ORIGIN ["COM"]
properties('MP2/aug-cc-pvtz', properties = ['dipole'])
--------------------------------------------------------------------------

    Molecular point group: c1
  Charge       = 0
  Multiplicity = 1
  Basis Set: AUG-CC-PVTZ
    Blend: AUG-CC-PVTZ
  Basis Set: (AUG-CC-PVTZ AUX)
    Blend: AUG-CC-PVTZ-JKFIT

    Orbital Energies [Eh]
    ---------------------

    Doubly Occupied:

       1A    -15.607727     2A    -11.270745     3A    -11.256637
       4A    -11.250163     5A    -11.248694     6A    -11.240704
       7A    -11.239550     8A    -11.239242     9A    -11.237939
      10A    -11.237023    11A    -11.209762    12A    -11.208103
      13A     -1.299013    14A     -1.155057    15A     -1.073244
      16A     -1.043959    17A     -1.016162    18A     -0.955891
      19A     -0.932979    20A     -0.833211    21A     -0.830556
      22A     -0.769779    23A     -0.742792    24A     -0.711421
      25A     -0.677810    26A     -0.639967    27A     -0.631947
      28A     -0.622419    29A     -0.596376    30A     -0.587145
      31A     -0.569441    32A     -0.567555    33A     -0.538039
      34A     -0.525958    35A     -0.523477    36A     -0.502194
      37A     -0.494924    38A     -0.491748    39A     -0.353975
      40A     -0.340265    41A     -0.335420    42A     -0.275229

  @DF-RHF Final Energy:  -477.54533482711133

   => Energetics <=

    Nuclear Repulsion Energy =            638.9436188437040300
    One-Electron Energy =               -1913.2094219863445232
    Two-Electron Energy =                 796.7204683155290468
    Total Energy =                       -477.5453348271113327
  Basis Set: (AUG-CC-PVTZ AUX)
    Blend: AUG-CC-PVTZ-RI
    Molecular point group: c1

    Geometry (in Angstrom), charge = 0, multiplicity = 1:

       Center              X                  Y                   Z               Mass
    ------------   -----------------  -----------------  -----------------  -----------------
         N           -1.755816194016     0.669989441911     0.206008586265    14.003074004430
         C           -0.861147194016    -0.338141558089    -0.108285413735    12.000000000000
         C            0.593181805984    -0.173199558089    -0.061214413735    12.000000000000
         C           -1.612214194016    -1.461803558089    -0.446975413735    12.000000000000
         C           -3.039145194016     0.201059441911     0.066508586265    12.000000000000
         C           -2.977721194016    -1.121042558089    -0.340870413735    12.000000000000
         C           -1.423949194016     2.005109441911     0.676612586265    12.000000000000
         C            1.239237805984     0.905734441911    -0.689534413735    12.000000000000
         C            1.376003805984    -1.141174558089     0.590990586265    12.000000000000
         C            2.628863805984     1.022580441911    -0.647208413735    12.000000000000
         C            2.766235805984    -1.033429558089     0.612917586265    12.000000000000
         C            3.397210805984     0.053339441911     0.002095586265    12.000000000000
         H           -1.188098994016    -2.426749958089    -0.772456413735     1.007825032230
         H           -3.885031194016     0.841189441911     0.281450586265     1.007825032230
         H           -3.828016194016    -1.760475558089    -0.540214413735     1.007825032230
         H           -2.223971194016     2.349441441911     1.334697586265     1.007825032230
         H           -0.489727194016     1.970533441911     1.237967586265     1.007825032230
         H           -1.316626194016     2.709607441911    -0.153357413735     1.007825032230
         H            0.650906805984     1.636456441911    -1.240479413735     1.007825032230
         H            0.878551805984    -1.971569558089     1.087386586265     1.007825032230
         H            3.114678805984     1.862436441911    -1.139070413735     1.007825032230
         H            3.358358805984    -1.791181558089     1.121179586265     1.007825032230
         H            4.480624805984     0.142146441911     0.027962586265     1.007825032230

  Basis Set: AUG-CC-PVTZ
    Blend: AUG-CC-PVTZ
  Basis Set: (AUG-CC-PVTZ AUX)
    Blend: AUG-CC-PVTZ-JKFIT
	 Reference Energy          =    -477.5453348271113327 [Eh]
	 Singles Energy            =      -0.0000000000000000 [Eh]
	 Same-Spin Energy          =      -0.5392118348818453 [Eh]
	 Opposite-Spin Energy      =      -1.6833840345439723 [Eh]
	 Correlation Energy        =      -2.2225958694258177 [Eh]
	 Total Energy              =    -479.7679306965371779 [Eh]

	 ================> DF-SCS-MP2 Energies <==================
	-----------------------------------------------------------
	 SCS Same-Spin Scale       =       0.3333333333333333 [-]
	 SCS Opposite-Spin Scale   =       1.2000000000000000 [-]
	 SCS Same-Spin Energy      =      -0.1797372782939484 [Eh]
	 SCS Opposite-Spin Energy  =      -2.0200608414527665 [Eh]
	 SCS Correlation Energy    =      -2.1997981197467151 [Eh]
	 SCS Total Energy          =    -479.7451329468580639 [Eh]
	-----------------------------------------------------------

  Dipole Moment: [D]
     X:     0.4665      Y:     1.8619      Z:     0.6779     Total:     2.0356

*** Psi4 exiting successfully. Buy a developer a beer!
