                               Psi4 1.3.2 release

  ==> Input File <==

--------------------------------------------------------------------------
#psi4
#
memory 32 gb

molecule  {
0 1
  N       -1.7531090     0.6487580     0.1985890
  C       -0.8584400    -0.3593730    -0.1157050
  C        0.5958890    -0.1944310    -0.0686340
  C       -1.6095070    -1.4830350    -0.4543950
  C       -3.0364380     0.1798280     0.0590890
  C       -3.1685139    -1.0939863    -0.3332543
  C       -1.4212420     1.9838780     0.6691930
  C        1.2419450     0.8845030    -0.6969540
  C        1.3787110    -1.1624060     0.5835710
  C        2.6315710     1.0013490    -0.6546280
  C        2.7689430    -1.0546610     0.6054980
  C        3.3999180     0.0321080    -0.0053240
  H       -1.1930810    -2.4304870    -0.7739750
  H       -3.8823240     0.8199580     0.2740310
  H       -3.8253090    -1.7817070    -0.5476340
  H       -2.2212640     2.3282100     1.3272780
  H       -0.4870200     1.9493020     1.2305480
  H       -1.3139190     2.6883760    -0.1607770
  H        0.6536140     1.6152250    -1.2478990
  H        0.8812590    -1.9928010     1.0799670
  H        3.1173860     1.8412050    -1.1464900
  H        3.3610660    -1.8124130     1.1137600
  H        4.4833320     0.1209150     0.0205430
units angstrom
no_reorient  #important for SAPT in psi4, default
symmetry c1  #important for SAPT in psi4, default
}

set PROPERTIES_ORIGIN ["COM"]
properties('MP2/aug-cc-pvtz', properties = ['dipole'])
--------------------------------------------------------------------------

    Molecular point group: c1
  Charge       = 0
  Multiplicity = 1
  Basis Set: AUG-CC-PVTZ
    Blend: AUG-CC-PVTZ
  Basis Set: (AUG-CC-PVTZ AUX)
    Blend: AUG-CC-PVTZ-JKFIT

    Orbital Energies [Eh]
    ---------------------

    Doubly Occupied:

       1A    -15.600036     2A    -11.270084     3A    -11.261608
       4A    -11.254662     5A    -11.251631     6A    -11.241871
       7A    -11.240803     8A    -11.240177     9A    -11.239127
      10A    -11.238200    11A    -11.218384    12A    -11.212050
      13A     -1.293775    14A     -1.156212    15A     -1.058753
      16A     -1.046320    17A     -1.017092    18A     -0.965319
      19A     -0.922030    20A     -0.835812    21A     -0.831176
      22A     -0.784462    23A     -0.740808    24A     -0.714796
      25A     -0.677546    26A     -0.640265    27A     -0.633989
      28A     -0.624380    29A     -0.613147    30A     -0.588485
      31A     -0.583016    32A     -0.568277    33A     -0.541985
      34A     -0.522564    35A     -0.505010    36A     -0.502941
      37A     -0.492389    38A     -0.464987    39A     -0.357345
      40A     -0.340666    41A     -0.321739    42A     -0.287368

  @DF-RHF Final Energy:  -477.51089761556801

   => Energetics <=

    Nuclear Repulsion Energy =            636.2900526702236448
    One-Electron Energy =               -1907.7993289466460283
    Two-Electron Energy =                 793.9983786608545415
    Total Energy =                       -477.5108976155679557
  Basis Set: (AUG-CC-PVTZ AUX)
    Blend: AUG-CC-PVTZ-RI
    Molecular point group: c1

    Geometry (in Angstrom), charge = 0, multiplicity = 1:

       Center              X                  Y                   Z               Mass
    ------------   -----------------  -----------------  -----------------  -----------------
         N           -1.740985455052     0.666188519335     0.204822154380    14.003074004430
         C           -0.846316455052    -0.341942480665    -0.109471845620    12.000000000000
         C            0.608012544948    -0.177000480665    -0.062400845620    12.000000000000
         C           -1.597383455052    -1.465604480665    -0.448161845620    12.000000000000
         C           -3.024314455052     0.197258519335     0.065322154380    12.000000000000
         C           -3.156390355052    -1.076555780665    -0.327021145620    12.000000000000
         C           -1.409118455052     2.001308519335     0.675426154380    12.000000000000
         C            1.254068544948     0.901933519335    -0.690720845620    12.000000000000
         C            1.390834544948    -1.144975480665     0.589804154380    12.000000000000
         C            2.643694544948     1.018779519335    -0.648394845620    12.000000000000
         C            2.781066544948    -1.037230480665     0.611731154380    12.000000000000
         C            3.412041544948     0.049538519335     0.000909154380    12.000000000000
         H           -1.180957455052    -2.413056480665    -0.767741845620     1.007825032230
         H           -3.870200455052     0.837388519335     0.280264154380     1.007825032230
         H           -3.813185455052    -1.764276480665    -0.541400845620     1.007825032230
         H           -2.209140455052     2.345640519335     1.333511154380     1.007825032230
         H           -0.474896455052     1.966732519335     1.236781154380     1.007825032230
         H           -1.301795455052     2.705806519335    -0.154543845620     1.007825032230
         H            0.665737544948     1.632655519335    -1.241665845620     1.007825032230
         H            0.893382544948    -1.975370480665     1.086200154380     1.007825032230
         H            3.129509544948     1.858635519335    -1.140256845620     1.007825032230
         H            3.373189544948    -1.794982480665     1.119993154380     1.007825032230
         H            4.495455544948     0.138345519335     0.026776154380     1.007825032230

  Basis Set: AUG-CC-PVTZ
    Blend: AUG-CC-PVTZ
  Basis Set: (AUG-CC-PVTZ AUX)
    Blend: AUG-CC-PVTZ-JKFIT
	 Reference Energy          =    -477.5108976155680125 [Eh]
	 Singles Energy            =      -0.0000000000000000 [Eh]
	 Same-Spin Energy          =      -0.5368975332271611 [Eh]
	 Opposite-Spin Energy      =      -1.6831168294647092 [Eh]
	 Correlation Energy        =      -2.2200143626918702 [Eh]
	 Total Energy              =    -479.7309119782598827 [Eh]

	 ================> DF-SCS-MP2 Energies <==================
	-----------------------------------------------------------
	 SCS Same-Spin Scale       =       0.3333333333333333 [-]
	 SCS Opposite-Spin Scale   =       1.2000000000000000 [-]
	 SCS Same-Spin Energy      =      -0.1789658444090537 [Eh]
	 SCS Opposite-Spin Energy  =      -2.0197401953576510 [Eh]
	 SCS Correlation Energy    =      -2.1987060397667046 [Eh]
	 SCS Total Energy          =    -479.7096036553347176 [Eh]
	-----------------------------------------------------------

  Dipole Moment: [D]
     X:     0.5932      Y:     1.8338      Z:     0.6754     Total:     2.0423

*** Psi4 exiting successfully. Buy a developer a beer!
