                               Psi4 1.3.2 release

  ==> Input File <==

--------------------------------------------------------------------------
#psi4
#
memory 32 gb

molecule  {
0 1
  N       -1.7531090     0.6487580     0.1985890
  C       -0.8584400    -0.3593730    -0.1157050
  C        0.5958890    -0.1944310    -0.0686340
  C       -1.6095070    -1.4830350    -0.4543950
  C       -3.0364380     0.1798280     0.0590890
  C       -2.9750140    -1.1422740    -0.3482900
  C       -1.4212420     1.9838780     0.6691930
  C        1.2419450     0.8845030    -0.6969540
  C        1.3787110    -1.1624060     0.5835710
  C        2.6315710     1.0013490    -0.6546280
  C        2.7689430    -1.0546610     0.6054980
  C        3.3999180     0.0321080    -0.0053240
  H       -1.1161891    -2.6054313    -0.8329845
  H       -3.8823240     0.8199580     0.2740310
  H       -3.8253090    -1.7817070    -0.5476340
  H       -2.2212640     2.3282100     1.3272780
  H       -0.4870200     1.9493020     1.2305480
  H       -1.3139190     2.6883760    -0.1607770
  H        0.6536140     1.6152250    -1.2478990
  H        0.8812590    -1.9928010     1.0799670
  H        3.1173860     1.8412050    -1.1464900
  H        3.3610660    -1.8124130     1.1137600
  H        4.4833320     0.1209150     0.0205430
units angstrom
no_reorient  #important for SAPT in psi4, default
symmetry c1  #important for SAPT in psi4, default
}

set PROPERTIES_ORIGIN ["COM"]
properties('MP2/aug-cc-pvtz', properties = ['dipole'])
--------------------------------------------------------------------------

    Molecular point group: c1
  Charge       = 0
  Multiplicity = 1
  Basis Set: AUG-CC-PVTZ
    Blend: AUG-CC-PVTZ
  Basis Set: (AUG-CC-PVTZ AUX)
    Blend: AUG-CC-PVTZ-JKFIT

    Orbital Energies [Eh]
    ---------------------

    Doubly Occupied:

       1A    -15.609129     2A    -11.271598     3A    -11.258653
       4A    -11.250217     5A    -11.250197     6A    -11.240654
       7A    -11.239516     8A    -11.239138     9A    -11.237875
      10A    -11.236853    11A    -11.228742    12A    -11.210522
      13A     -1.300491    14A     -1.155000    15A     -1.073128
      16A     -1.044333    17A     -1.016062    18A     -0.956101
      19A     -0.930914    20A     -0.832921    21A     -0.830266
      22A     -0.765097    23A     -0.740938    24A     -0.704852
      25A     -0.677211    26A     -0.640155    27A     -0.631426
      28A     -0.622004    29A     -0.594769    30A     -0.586977
      31A     -0.570006    32A     -0.561310    33A     -0.538660
      34A     -0.525580    35A     -0.503791    36A     -0.501716
      37A     -0.495334    38A     -0.490464    39A     -0.354265
      40A     -0.340312    41A     -0.336678    42A     -0.276331

  @DF-RHF Final Energy:  -477.52325609019533

   => Energetics <=

    Nuclear Repulsion Energy =            638.1262577536799654
    One-Electron Energy =               -1911.5586505298963402
    Two-Electron Energy =                 795.9091366860210428
    Total Energy =                       -477.5232560901953320
  Basis Set: (AUG-CC-PVTZ AUX)
    Blend: AUG-CC-PVTZ-RI
    Molecular point group: c1

    Geometry (in Angstrom), charge = 0, multiplicity = 1:

       Center              X                  Y                   Z               Mass
    ------------   -----------------  -----------------  -----------------  -----------------
         N           -1.756260172570     0.670999581384     0.206349310471    14.003074004430
         C           -0.861591172570    -0.337131418616    -0.107944689529    12.000000000000
         C            0.592737827430    -0.172189418616    -0.060873689529    12.000000000000
         C           -1.612658172570    -1.460793418616    -0.446634689529    12.000000000000
         C           -3.039589172570     0.202069581384     0.066849310471    12.000000000000
         C           -2.978165172570    -1.120032418616    -0.340529689529    12.000000000000
         C           -1.424393172570     2.006119581384     0.676953310471    12.000000000000
         C            1.238793827430     0.906744581384    -0.689193689529    12.000000000000
         C            1.375559827430    -1.140164418616     0.591331310471    12.000000000000
         C            2.628419827430     1.023590581384    -0.646867689529    12.000000000000
         C            2.765791827430    -1.032419418616     0.613258310471    12.000000000000
         C            3.396766827430     0.054349581384     0.002436310471    12.000000000000
         H           -1.119340272570    -2.583189718616    -0.825224189529     1.007825032230
         H           -3.885475172570     0.842199581384     0.281791310471     1.007825032230
         H           -3.828460172570    -1.759465418616    -0.539873689529     1.007825032230
         H           -2.224415172570     2.350451581384     1.335038310471     1.007825032230
         H           -0.490171172570     1.971543581384     1.238308310471     1.007825032230
         H           -1.317070172570     2.710617581384    -0.153016689529     1.007825032230
         H            0.650462827430     1.637466581384    -1.240138689529     1.007825032230
         H            0.878107827430    -1.970559418616     1.087727310471     1.007825032230
         H            3.114234827430     1.863446581384    -1.138729689529     1.007825032230
         H            3.357914827430    -1.790171418616     1.121520310471     1.007825032230
         H            4.480180827430     0.143156581384     0.028303310471     1.007825032230

  Basis Set: AUG-CC-PVTZ
    Blend: AUG-CC-PVTZ
  Basis Set: (AUG-CC-PVTZ AUX)
    Blend: AUG-CC-PVTZ-JKFIT
	 Reference Energy          =    -477.5232560901953320 [Eh]
	 Singles Energy            =      -0.0000000000000000 [Eh]
	 Same-Spin Energy          =      -0.5396326599390197 [Eh]
	 Opposite-Spin Energy      =      -1.6854398932977506 [Eh]
	 Correlation Energy        =      -2.2250725532367701 [Eh]
	 Total Energy              =    -479.7483286434321030 [Eh]

	 ================> DF-SCS-MP2 Energies <==================
	-----------------------------------------------------------
	 SCS Same-Spin Scale       =       0.3333333333333333 [-]
	 SCS Opposite-Spin Scale   =       1.2000000000000000 [-]
	 SCS Same-Spin Energy      =      -0.1798775533130065 [Eh]
	 SCS Opposite-Spin Energy  =      -2.0225278719573008 [Eh]
	 SCS Correlation Energy    =      -2.2024054252703071 [Eh]
	 SCS Total Energy          =    -479.7256615154656174 [Eh]
	-----------------------------------------------------------

  Dipole Moment: [D]
     X:     0.4314      Y:     1.9077      Z:     0.6950     Total:     2.0757

*** Psi4 exiting successfully. Buy a developer a beer!
