                               Psi4 1.3.2 release

  ==> Input File <==

--------------------------------------------------------------------------
#psi4
#
memory 32 gb

molecule  {
0 1
  N       -1.7531090     0.6487580     0.1985890
  C       -0.8584400    -0.3593730    -0.1157050
  C        0.5958890    -0.1944310    -0.0686340
  C       -1.6095070    -1.4830350    -0.4543950
  C       -3.0364380     0.1798280     0.0590890
  C       -2.9750140    -1.1422740    -0.3482900
  C       -1.4212420     1.9838780     0.6691930
  C        1.2419450     0.8845030    -0.6969540
  C        1.3787110    -1.1624060     0.5835710
  C        2.6315710     1.0013490    -0.6546280
  C        2.7689430    -1.0546610     0.6054980
  C        3.3999180     0.0321080    -0.0053240
  H       -1.1930810    -2.4304870    -0.7739750
  H       -3.8041715     0.7608156     0.2541722
  H       -3.8253090    -1.7817070    -0.5476340
  H       -2.2212640     2.3282100     1.3272780
  H       -0.4870200     1.9493020     1.2305480
  H       -1.3139190     2.6883760    -0.1607770
  H        0.6536140     1.6152250    -1.2478990
  H        0.8812590    -1.9928010     1.0799670
  H        3.1173860     1.8412050    -1.1464900
  H        3.3610660    -1.8124130     1.1137600
  H        4.4833320     0.1209150     0.0205430
units angstrom
no_reorient  #important for SAPT in psi4, default
symmetry c1  #important for SAPT in psi4, default
}

set PROPERTIES_ORIGIN ["COM"]
properties('MP2/aug-cc-pvtz', properties = ['dipole'])
--------------------------------------------------------------------------

    Molecular point group: c1
  Charge       = 0
  Multiplicity = 1
  Basis Set: AUG-CC-PVTZ
    Blend: AUG-CC-PVTZ
  Basis Set: (AUG-CC-PVTZ AUX)
    Blend: AUG-CC-PVTZ-JKFIT

    Orbital Energies [Eh]
    ---------------------

    Doubly Occupied:

       1A    -15.606874     2A    -11.270783     3A    -11.256161
       4A    -11.250014     5A    -11.240655     6A    -11.239496
       7A    -11.239189     8A    -11.237886     9A    -11.236961
      10A    -11.236806    11A    -11.207808    12A    -11.206450
      13A     -1.298636    14A     -1.155028    15A     -1.072991
      16A     -1.044658    17A     -1.016106    18A     -0.960569
      19A     -0.933274    20A     -0.836450    21A     -0.830547
      22A     -0.775255    23A     -0.747381    24A     -0.713254
      25A     -0.682544    26A     -0.642138    27A     -0.635347
      28A     -0.622627    29A     -0.598126    30A     -0.587163
      31A     -0.571621    32A     -0.568684    33A     -0.541132
      34A     -0.527429    35A     -0.523866    36A     -0.502295
      37A     -0.494815    38A     -0.491684    39A     -0.353838
      40A     -0.340171    41A     -0.334865    42A     -0.275021

  @DF-RHF Final Energy:  -477.53992308930606

   => Energetics <=

    Nuclear Repulsion Energy =            639.6124154079786877
    One-Electron Energy =               -1914.4914877584758415
    Two-Electron Energy =                 797.3391492611910962
    Total Energy =                       -477.5399230893060576
  Basis Set: (AUG-CC-PVTZ AUX)
    Blend: AUG-CC-PVTZ-RI
    Molecular point group: c1

    Geometry (in Angstrom), charge = 0, multiplicity = 1:

       Center              X                  Y                   Z               Mass
    ------------   -----------------  -----------------  -----------------  -----------------
         N           -1.756268260107     0.670256639850     0.206098134272    14.003074004430
         C           -0.861599260107    -0.337874360150    -0.108195865728    12.000000000000
         C            0.592729739893    -0.172932360150    -0.061124865728    12.000000000000
         C           -1.612666260107    -1.461536360150    -0.446885865728    12.000000000000
         C           -3.039597260107     0.201326639850     0.066598134272    12.000000000000
         C           -2.978173260107    -1.120775360150    -0.340780865728    12.000000000000
         C           -1.424401260107     2.005376639850     0.676702134272    12.000000000000
         C            1.238785739893     0.906001639850    -0.689444865728    12.000000000000
         C            1.375551739893    -1.140907360150     0.591080134272    12.000000000000
         C            2.628411739893     1.022847639850    -0.647118865728    12.000000000000
         C            2.765783739893    -1.033162360150     0.613007134272    12.000000000000
         C            3.396758739893     0.053606639850     0.002185134272    12.000000000000
         H           -1.196240260107    -2.408988360150    -0.766465865728     1.007825032230
         H           -3.807330760107     0.782314239850     0.261681334272     1.007825032230
         H           -3.828468260107    -1.760208360150    -0.540124865728     1.007825032230
         H           -2.224423260107     2.349708639850     1.334787134272     1.007825032230
         H           -0.490179260107     1.970800639850     1.238057134272     1.007825032230
         H           -1.317078260107     2.709874639850    -0.153267865728     1.007825032230
         H            0.650454739893     1.636723639850    -1.240389865728     1.007825032230
         H            0.878099739893    -1.971302360150     1.087476134272     1.007825032230
         H            3.114226739893     1.862703639850    -1.138980865728     1.007825032230
         H            3.357906739893    -1.790914360150     1.121269134272     1.007825032230
         H            4.480172739893     0.142413639850     0.028052134272     1.007825032230

  Basis Set: AUG-CC-PVTZ
    Blend: AUG-CC-PVTZ
  Basis Set: (AUG-CC-PVTZ AUX)
    Blend: AUG-CC-PVTZ-JKFIT
	 Reference Energy          =    -477.5399230893060576 [Eh]
	 Singles Energy            =      -0.0000000000000000 [Eh]
	 Same-Spin Energy          =      -0.5389848461659669 [Eh]
	 Opposite-Spin Energy      =      -1.6826204557873841 [Eh]
	 Correlation Energy        =      -2.2216053019533510 [Eh]
	 Total Energy              =    -479.7615283912593895 [Eh]

	 ================> DF-SCS-MP2 Energies <==================
	-----------------------------------------------------------
	 SCS Same-Spin Scale       =       0.3333333333333333 [-]
	 SCS Opposite-Spin Scale   =       1.2000000000000000 [-]
	 SCS Same-Spin Energy      =      -0.1796616153886556 [Eh]
	 SCS Opposite-Spin Energy  =      -2.0191445469448608 [Eh]
	 SCS Correlation Energy    =      -2.1988061623335162 [Eh]
	 SCS Total Energy          =    -479.7387292516395974 [Eh]
	-----------------------------------------------------------

  Dipole Moment: [D]
     X:     0.4631      Y:     1.8652      Z:     0.6790     Total:     2.0383

*** Psi4 exiting successfully. Buy a developer a beer!
