                               Psi4 1.3.2 release

  ==> Input File <==

--------------------------------------------------------------------------
#psi4
#
memory 32 gb

molecule  {
0 1
  N       -1.7531090     0.6487580     0.1985890
  C       -0.9342086    -0.4151631    -0.1375888
  C        0.5958890    -0.1944310    -0.0686340
  C       -1.6095070    -1.4830350    -0.4543950
  C       -3.0364380     0.1798280     0.0590890
  C       -2.9750140    -1.1422740    -0.3482900
  C       -1.4212420     1.9838780     0.6691930
  C        1.2419450     0.8845030    -0.6969540
  C        1.3787110    -1.1624060     0.5835710
  C        2.6315710     1.0013490    -0.6546280
  C        2.7689430    -1.0546610     0.6054980
  C        3.3999180     0.0321080    -0.0053240
  H       -1.1930810    -2.4304870    -0.7739750
  H       -3.8823240     0.8199580     0.2740310
  H       -3.8253090    -1.7817070    -0.5476340
  H       -2.2212640     2.3282100     1.3272780
  H       -0.4870200     1.9493020     1.2305480
  H       -1.3139190     2.6883760    -0.1607770
  H        0.6536140     1.6152250    -1.2478990
  H        0.8812590    -1.9928010     1.0799670
  H        3.1173860     1.8412050    -1.1464900
  H        3.3610660    -1.8124130     1.1137600
  H        4.4833320     0.1209150     0.0205430
units angstrom
no_reorient  #important for SAPT in psi4, default
symmetry c1  #important for SAPT in psi4, default
}

set PROPERTIES_ORIGIN ["COM"]
properties('MP2/aug-cc-pvtz', properties = ['dipole'])
--------------------------------------------------------------------------

    Molecular point group: c1
  Charge       = 0
  Multiplicity = 1
  Basis Set: AUG-CC-PVTZ
    Blend: AUG-CC-PVTZ
  Basis Set: (AUG-CC-PVTZ AUX)
    Blend: AUG-CC-PVTZ-JKFIT

    Orbital Energies [Eh]
    ---------------------

    Doubly Occupied:

       1A    -15.601174     2A    -11.271943     3A    -11.253246
       4A    -11.252418     5A    -11.248065     6A    -11.240245
       7A    -11.239002     8A    -11.238525     9A    -11.237127
      10A    -11.235795    11A    -11.205992    12A    -11.197360
      13A     -1.301254    14A     -1.151880    15A     -1.085241
      16A     -1.034048    17A     -1.015180    18A     -0.959814
      19A     -0.935900    20A     -0.828524    21A     -0.825425
      22A     -0.775971    23A     -0.739071    24A     -0.713499
      25A     -0.676368    26A     -0.638822    27A     -0.628017
      28A     -0.621032    29A     -0.594995    30A     -0.586421
      31A     -0.581182    32A     -0.560597    33A     -0.538715
      34A     -0.531257    35A     -0.527210    36A     -0.500131
      37A     -0.492183    38A     -0.484141    39A     -0.353327
      40A     -0.339513    41A     -0.336766    42A     -0.285392

  @DF-RHF Final Energy:  -477.53762669122756

   => Energetics <=

    Nuclear Repulsion Energy =            639.0001825980519925
    One-Electron Energy =               -1913.3500767937061937
    Two-Electron Energy =                 796.8122675044264724
    Total Energy =                       -477.5376266912276151
  Basis Set: (AUG-CC-PVTZ AUX)
    Blend: AUG-CC-PVTZ-RI
    Molecular point group: c1

    Geometry (in Angstrom), charge = 0, multiplicity = 1:

       Center              X                  Y                   Z               Mass
    ------------   -----------------  -----------------  -----------------  -----------------
         N           -1.749978918991     0.674138995896     0.207642425556    14.003074004430
         C           -0.931078518991    -0.389782104104    -0.128535374444    12.000000000000
         C            0.599019081009    -0.169050004104    -0.059580574444    12.000000000000
         C           -1.606376918991    -1.457654004104    -0.445341574444    12.000000000000
         C           -3.033307918991     0.205208995896     0.068142425556    12.000000000000
         C           -2.971883918991    -1.116893004104    -0.339236574444    12.000000000000
         C           -1.418111918991     2.009258995896     0.678246425556    12.000000000000
         C            1.245075081009     0.909883995896    -0.687900574444    12.000000000000
         C            1.381841081009    -1.137025004104     0.592624425556    12.000000000000
         C            2.634701081009     1.026729995896    -0.645574574444    12.000000000000
         C            2.772073081009    -1.029280004104     0.614551425556    12.000000000000
         C            3.403048081009     0.057488995896     0.003729425556    12.000000000000
         H           -1.189950918991    -2.405106004104    -0.764921574444     1.007825032230
         H           -3.879193918991     0.845338995896     0.283084425556     1.007825032230
         H           -3.822178918991    -1.756326004104    -0.538580574444     1.007825032230
         H           -2.218133918991     2.353590995896     1.336331425556     1.007825032230
         H           -0.483889918991     1.974682995896     1.239601425556     1.007825032230
         H           -1.310788918991     2.713756995896    -0.151723574444     1.007825032230
         H            0.656744081009     1.640605995896    -1.238845574444     1.007825032230
         H            0.884389081009    -1.967420004104     1.089020425556     1.007825032230
         H            3.120516081009     1.866585995896    -1.137436574444     1.007825032230
         H            3.364196081009    -1.787032004104     1.122813425556     1.007825032230
         H            4.486462081009     0.146295995896     0.029596425556     1.007825032230

  Basis Set: AUG-CC-PVTZ
    Blend: AUG-CC-PVTZ
  Basis Set: (AUG-CC-PVTZ AUX)
    Blend: AUG-CC-PVTZ-JKFIT
	 Reference Energy          =    -477.5376266912275582 [Eh]
	 Singles Energy            =      -0.0000000000000000 [Eh]
	 Same-Spin Energy          =      -0.5370292969019892 [Eh]
	 Opposite-Spin Energy      =      -1.6805480835924920 [Eh]
	 Correlation Energy        =      -2.2175773804944812 [Eh]
	 Total Energy              =    -479.7552040717220621 [Eh]

	 ================> DF-SCS-MP2 Energies <==================
	-----------------------------------------------------------
	 SCS Same-Spin Scale       =       0.3333333333333333 [-]
	 SCS Opposite-Spin Scale   =       1.2000000000000000 [-]
	 SCS Same-Spin Energy      =      -0.1790097656339964 [Eh]
	 SCS Opposite-Spin Energy  =      -2.0166577003109905 [Eh]
	 SCS Correlation Energy    =      -2.1956674659449869 [Eh]
	 SCS Total Energy          =    -479.7332941571725655 [Eh]
	-----------------------------------------------------------

  Dipole Moment: [D]
     X:     0.5371      Y:     1.7925      Z:     0.6541     Total:     1.9823

*** Psi4 exiting successfully. Buy a developer a beer!
