                               Psi4 1.3.2 release

  ==> Input File <==

--------------------------------------------------------------------------
#psi4
#
memory 32 gb

molecule  {
0 1
  N       -1.7531090     0.6487580     0.1985890
  C       -0.7398806    -0.4405941    -0.1405546
  C        0.5958890    -0.1944310    -0.0686340
  C       -1.6095070    -1.4830350    -0.4543950
  C       -3.0364380     0.1798280     0.0590890
  C       -2.9750140    -1.1422740    -0.3482900
  C       -1.4212420     1.9838780     0.6691930
  C        1.2419450     0.8845030    -0.6969540
  C        1.3787110    -1.1624060     0.5835710
  C        2.6315710     1.0013490    -0.6546280
  C        2.7689430    -1.0546610     0.6054980
  C        3.3999180     0.0321080    -0.0053240
  H       -1.1930810    -2.4304870    -0.7739750
  H       -3.8823240     0.8199580     0.2740310
  H       -3.8253090    -1.7817070    -0.5476340
  H       -2.2212640     2.3282100     1.3272780
  H       -0.4870200     1.9493020     1.2305480
  H       -1.3139190     2.6883760    -0.1607770
  H        0.6536140     1.6152250    -1.2478990
  H        0.8812590    -1.9928010     1.0799670
  H        3.1173860     1.8412050    -1.1464900
  H        3.3610660    -1.8124130     1.1137600
  H        4.4833320     0.1209150     0.0205430
units angstrom
no_reorient  #important for SAPT in psi4, default
symmetry c1  #important for SAPT in psi4, default
}

set PROPERTIES_ORIGIN ["COM"]
properties('MP2/aug-cc-pvtz', properties = ['dipole'])
--------------------------------------------------------------------------

    Molecular point group: c1
  Charge       = 0
  Multiplicity = 1
  Basis Set: AUG-CC-PVTZ
    Blend: AUG-CC-PVTZ
  Basis Set: (AUG-CC-PVTZ AUX)
    Blend: AUG-CC-PVTZ-JKFIT

    Orbital Energies [Eh]
    ---------------------

    Doubly Occupied:

       1A    -15.598105     2A    -11.262956     3A    -11.259433
       4A    -11.258039     5A    -11.243465     6A    -11.242003
       7A    -11.240908     8A    -11.239815     9A    -11.238768
      10A    -11.237387    11A    -11.218973    12A    -11.206985
      13A     -1.267185    14A     -1.160806    15A     -1.072753
      16A     -1.054159    17A     -1.017303    18A     -0.954000
      19A     -0.920119    20A     -0.845098    21A     -0.832984
      22A     -0.759635    23A     -0.749357    24A     -0.705449
      25A     -0.678632    26A     -0.639275    27A     -0.633041
      28A     -0.618288    29A     -0.596932    30A     -0.587895
      31A     -0.576369    32A     -0.553291    33A     -0.545150
      34A     -0.518323    35A     -0.516338    36A     -0.506775
      37A     -0.493420    38A     -0.485297    39A     -0.363266
      40A     -0.340892    41A     -0.330912    42A     -0.270161

  @DF-RHF Final Energy:  -477.51604183965406

   => Energetics <=

    Nuclear Repulsion Energy =            638.4366514047294459
    One-Electron Energy =               -1912.2255031109052652
    Two-Electron Energy =                 796.2728098665218113
    Total Energy =                       -477.5160418396540081
  Basis Set: (AUG-CC-PVTZ AUX)
    Blend: AUG-CC-PVTZ-RI
    Molecular point group: c1

    Geometry (in Angstrom), charge = 0, multiplicity = 1:

       Center              X                  Y                   Z               Mass
    ------------   -----------------  -----------------  -----------------  -----------------
         N           -1.764823585281     0.676081663491     0.207868982261    14.003074004430
         C           -0.751595185281    -0.413270436509    -0.131274617739    12.000000000000
         C            0.584174414719    -0.167107336509    -0.059354017739    12.000000000000
         C           -1.621221585281    -1.455711336509    -0.445115017739    12.000000000000
         C           -3.048152585281     0.207151663491     0.068368982261    12.000000000000
         C           -2.986728585281    -1.114950336509    -0.339010017739    12.000000000000
         C           -1.432956585281     2.011201663491     0.678472982261    12.000000000000
         C            1.230230414719     0.911826663491    -0.687674017739    12.000000000000
         C            1.366996414719    -1.135082336509     0.592850982261    12.000000000000
         C            2.619856414719     1.028672663491    -0.645348017739    12.000000000000
         C            2.757228414719    -1.027337336509     0.614777982261    12.000000000000
         C            3.388203414719     0.059431663491     0.003955982261    12.000000000000
         H           -1.204795585281    -2.403163336509    -0.764695017739     1.007825032230
         H           -3.894038585281     0.847281663491     0.283310982261     1.007825032230
         H           -3.837023585281    -1.754383336509    -0.538354017739     1.007825032230
         H           -2.232978585281     2.355533663491     1.336557982261     1.007825032230
         H           -0.498734585281     1.976625663491     1.239827982261     1.007825032230
         H           -1.325633585281     2.715699663491    -0.151497017739     1.007825032230
         H            0.641899414719     1.642548663491    -1.238619017739     1.007825032230
         H            0.869544414719    -1.965477336509     1.089246982261     1.007825032230
         H            3.105671414719     1.868528663491    -1.137210017739     1.007825032230
         H            3.349351414719    -1.785089336509     1.123039982261     1.007825032230
         H            4.471617414719     0.148238663491     0.029822982261     1.007825032230

  Basis Set: AUG-CC-PVTZ
    Blend: AUG-CC-PVTZ
  Basis Set: (AUG-CC-PVTZ AUX)
    Blend: AUG-CC-PVTZ-JKFIT
	 Reference Energy          =    -477.5160418396540649 [Eh]
	 Singles Energy            =      -0.0000000000000000 [Eh]
	 Same-Spin Energy          =      -0.5416273085464098 [Eh]
	 Opposite-Spin Energy      =      -1.6882035797544539 [Eh]
	 Correlation Energy        =      -2.2298308883008637 [Eh]
	 Total Energy              =    -479.7458727279549180 [Eh]

	 ================> DF-SCS-MP2 Energies <==================
	-----------------------------------------------------------
	 SCS Same-Spin Scale       =       0.3333333333333333 [-]
	 SCS Opposite-Spin Scale   =       1.2000000000000000 [-]
	 SCS Same-Spin Energy      =      -0.1805424361821366 [Eh]
	 SCS Opposite-Spin Energy  =      -2.0258442957053444 [Eh]
	 SCS Correlation Energy    =      -2.2063867318874810 [Eh]
	 SCS Total Energy          =    -479.7224285715415704 [Eh]
	-----------------------------------------------------------

  Dipole Moment: [D]
     X:     0.5684      Y:     1.6872      Z:     0.6006     Total:     1.8790

*** Psi4 exiting successfully. Buy a developer a beer!
