                               Psi4 1.4a3.dev225

  ==> Input File <==

--------------------------------------------------------------------------
#psi4
#
memory 32 gb

molecule  {
0 1
  N       -1.7531090     0.6487580     0.1985890
  C       -0.8584400    -0.3593730    -0.1157050
  C        0.5958890    -0.1944310    -0.0686340
  C       -1.6095070    -1.4830350    -0.4543950
  C       -2.9897179     0.1968996     0.0641676
  C       -2.9750140    -1.1422740    -0.3482900
  C       -1.4212420     1.9838780     0.6691930
  C        1.2419450     0.8845030    -0.6969540
  C        1.3787110    -1.1624060     0.5835710
  C        2.6315710     1.0013490    -0.6546280
  C        2.7689430    -1.0546610     0.6054980
  C        3.3999180     0.0321080    -0.0053240
  H       -1.1930810    -2.4304870    -0.7739750
  H       -3.8823240     0.8199580     0.2740310
  H       -3.8253090    -1.7817070    -0.5476340
  H       -2.2212640     2.3282100     1.3272780
  H       -0.4870200     1.9493020     1.2305480
  H       -1.3139190     2.6883760    -0.1607770
  H        0.6536140     1.6152250    -1.2478990
  H        0.8812590    -1.9928010     1.0799670
  H        3.1173860     1.8412050    -1.1464900
  H        3.3610660    -1.8124130     1.1137600
  H        4.4833320     0.1209150     0.0205430
units angstrom
no_reorient  #important for SAPT in psi4, default
symmetry c1  #important for SAPT in psi4, default
}

set PROPERTIES_ORIGIN ["COM"]
properties('MP2/aug-cc-pvtz', properties = ['dipole'])
--------------------------------------------------------------------------

    Molecular point group: c1
  Charge       = 0
  Multiplicity = 1
  Basis Set: AUG-CC-PVTZ
    Blend: AUG-CC-PVTZ
  Basis Set: (AUG-CC-PVTZ AUX)
    Blend: AUG-CC-PVTZ-JKFIT

    Orbital Energies [Eh]
    ---------------------

    Doubly Occupied:

       1A    -15.611324     2A    -11.273514     3A    -11.252343
       4A    -11.250038     5A    -11.249301     6A    -11.239925
       7A    -11.238658     8A    -11.238276     9A    -11.236884
      10A    -11.235824    11A    -11.208770    12A    -11.205950
      13A     -1.313939    14A     -1.154498    15A     -1.074973
      16A     -1.043602    17A     -1.015326    18A     -0.955414
      19A     -0.938757    20A     -0.830938    21A     -0.830046
      22A     -0.774045    23A     -0.741386    24A     -0.714696
      25A     -0.677432    26A     -0.643765    27A     -0.632334
      28A     -0.622876    29A     -0.597515    30A     -0.586563
      31A     -0.576441    32A     -0.566122    33A     -0.537433
      34A     -0.529205    35A     -0.520972    36A     -0.501657
      37A     -0.493869    38A     -0.491642    39A     -0.354978
      40A     -0.339582    41A     -0.335661    42A     -0.271884

  @DF-RHF Final Energy:  -477.54342650373991

   => Energetics <=

    Nuclear Repulsion Energy =            640.0374988894326407
    One-Electron Energy =               -1915.3451314114415709
    Two-Electron Energy =                 797.7642060182690784
    Total Energy =                       -477.5434265037399655
  Basis Set: (AUG-CC-PVTZ AUX)
    Blend: AUG-CC-PVTZ-RI
    Molecular point group: c1

    Geometry (in Angstrom), charge = 0, multiplicity = 1:

       Center              X                  Y                   Z               Mass
    ------------   -----------------  -----------------  -----------------  -----------------
         N           -1.759335799502     0.668573109242     0.205582774706    14.003074004430
         C           -0.864666799502    -0.339557890758    -0.108711225294    12.000000000000
         C            0.589662200498    -0.174615890758    -0.061640225294    12.000000000000
         C           -1.615733799502    -1.463219890758    -0.447401225294    12.000000000000
         C           -2.995944699502     0.216714709242     0.071161374706    12.000000000000
         C           -2.981240799502    -1.122458890758    -0.341296225294    12.000000000000
         C           -1.427468799502     2.003693109242     0.676186774706    12.000000000000
         C            1.235718200498     0.904318109242    -0.689960225294    12.000000000000
         C            1.372484200498    -1.142590890758     0.590564774706    12.000000000000
         C            2.625344200498     1.021164109242    -0.647634225294    12.000000000000
         C            2.762716200498    -1.034845890758     0.612491774706    12.000000000000
         C            3.393691200498     0.051923109242     0.001669774706    12.000000000000
         H           -1.199307799502    -2.410671890758    -0.766981225294     1.007825032230
         H           -3.888550799502     0.839773109242     0.281024774706     1.007825032230
         H           -3.831535799502    -1.761891890758    -0.540640225294     1.007825032230
         H           -2.227490799502     2.348025109242     1.334271774706     1.007825032230
         H           -0.493246799502     1.969117109242     1.237541774706     1.007825032230
         H           -1.320145799502     2.708191109242    -0.153783225294     1.007825032230
         H            0.647387200498     1.635040109242    -1.240905225294     1.007825032230
         H            0.875032200498    -1.972985890758     1.086960774706     1.007825032230
         H            3.111159200498     1.861020109242    -1.139496225294     1.007825032230
         H            3.354839200498    -1.792597890758     1.120753774706     1.007825032230
         H            4.477105200498     0.140730109242     0.027536774706     1.007825032230

  Basis Set: AUG-CC-PVTZ
    Blend: AUG-CC-PVTZ
  Basis Set: (AUG-CC-PVTZ AUX)
    Blend: AUG-CC-PVTZ-JKFIT
	 Reference Energy          =    -477.5434265037399086 [Eh]
	 Singles Energy            =      -0.0000000000000000 [Eh]
	 Same-Spin Energy          =      -0.5394540445140330 [Eh]
	 Opposite-Spin Energy      =      -1.6829526883102219 [Eh]
	 Correlation Energy        =      -2.2224067328242549 [Eh]
	 Total Energy              =    -479.7658332365641627 [Eh]

	 ================> DF-SCS-MP2 Energies <==================
	-----------------------------------------------------------
	 SCS Same-Spin Scale       =       0.3333333333333333 [-]
	 SCS Opposite-Spin Scale   =       1.2000000000000000 [-]
	 SCS Same-Spin Energy      =      -0.1798180148380110 [Eh]
	 SCS Opposite-Spin Energy  =      -2.0195432259722663 [Eh]
	 SCS Correlation Energy    =      -2.1993612408102772 [Eh]
	 SCS Total Energy          =    -479.7427877445501849 [Eh]
	-----------------------------------------------------------

  Dipole Moment: [D]
     X:     0.4586      Y:     1.9276      Z:     0.6993     Total:     2.1012

*** Psi4 exiting successfully. Buy a developer a beer!
