                               Psi4 1.3.2 release

  ==> Input File <==

--------------------------------------------------------------------------
#psi4
#
memory 32 gb

molecule  {
0 1
  N       -1.7903519     0.7327042     0.2260810
  C       -0.8584400    -0.3593730    -0.1157050
  C        0.5958890    -0.1944310    -0.0686340
  C       -1.6095070    -1.4830350    -0.4543950
  C       -3.0364380     0.1798280     0.0590890
  C       -2.9750140    -1.1422740    -0.3482900
  C       -1.4212420     1.9838780     0.6691930
  C        1.2419450     0.8845030    -0.6969540
  C        1.3787110    -1.1624060     0.5835710
  C        2.6315710     1.0013490    -0.6546280
  C        2.7689430    -1.0546610     0.6054980
  C        3.3999180     0.0321080    -0.0053240
  H       -1.1930810    -2.4304870    -0.7739750
  H       -3.8823240     0.8199580     0.2740310
  H       -3.8253090    -1.7817070    -0.5476340
  H       -2.2212640     2.3282100     1.3272780
  H       -0.4870200     1.9493020     1.2305480
  H       -1.3139190     2.6883760    -0.1607770
  H        0.6536140     1.6152250    -1.2478990
  H        0.8812590    -1.9928010     1.0799670
  H        3.1173860     1.8412050    -1.1464900
  H        3.3610660    -1.8124130     1.1137600
  H        4.4833320     0.1209150     0.0205430
units angstrom
no_reorient  #important for SAPT in psi4, default
symmetry c1  #important for SAPT in psi4, default
}

set PROPERTIES_ORIGIN ["COM"]
properties('MP2/aug-cc-pvtz', properties = ['dipole'])
--------------------------------------------------------------------------

    Molecular point group: c1
  Charge       = 0
  Multiplicity = 1
  Basis Set: AUG-CC-PVTZ
    Blend: AUG-CC-PVTZ
  Basis Set: (AUG-CC-PVTZ AUX)
    Blend: AUG-CC-PVTZ-JKFIT

    Orbital Energies [Eh]
    ---------------------

    Doubly Occupied:

       1A    -15.604644     2A    -11.262589     3A    -11.262351
       4A    -11.257121     5A    -11.249656     6A    -11.240021
       7A    -11.238973     8A    -11.238507     9A    -11.237359
      10A    -11.236570    11A    -11.217052    12A    -11.210062
      13A     -1.290884    14A     -1.154893    15A     -1.088157
      16A     -1.042193    17A     -1.015668    18A     -0.953035
      19A     -0.929209    20A     -0.832073    21A     -0.829565
      22A     -0.768044    23A     -0.747111    24A     -0.713190
      25A     -0.676564    26A     -0.641691    27A     -0.631164
      28A     -0.624706    29A     -0.599425    30A     -0.591113
      31A     -0.586744    32A     -0.558924    33A     -0.538284
      34A     -0.521468    35A     -0.514456    36A     -0.497458
      37A     -0.495006    38A     -0.488615    39A     -0.356738
      40A     -0.339707    41A     -0.335811    42A     -0.273992

  @DF-RHF Final Energy:  -477.53212803378312

   => Energetics <=

    Nuclear Repulsion Energy =            637.8179082522210592
    One-Electron Energy =               -1910.9184864969868158
    Two-Electron Energy =                 795.5684502109826326
    Total Energy =                       -477.5321280337831240
  Basis Set: (AUG-CC-PVTZ AUX)
    Blend: AUG-CC-PVTZ-RI
    Molecular point group: c1

    Geometry (in Angstrom), charge = 0, multiplicity = 1:

       Center              X                  Y                   Z               Mass
    ------------   -----------------  -----------------  -----------------  -----------------
         N           -1.789689895983     0.746340361460     0.231012065017    14.003074004430
         C           -0.857777995983    -0.345736838540    -0.110773934983    12.000000000000
         C            0.596551004017    -0.180794838540    -0.063702934983    12.000000000000
         C           -1.608844995983    -1.469398838540    -0.449463934983    12.000000000000
         C           -3.035775995983     0.193464161460     0.064020065017    12.000000000000
         C           -2.974351995983    -1.128637838540    -0.343358934983    12.000000000000
         C           -1.420579995983     1.997514161460     0.674124065017    12.000000000000
         C            1.242607004017     0.898139161460    -0.692022934983    12.000000000000
         C            1.379373004017    -1.148769838540     0.588502065017    12.000000000000
         C            2.632233004017     1.014985161460    -0.649696934983    12.000000000000
         C            2.769605004017    -1.041024838540     0.610429065017    12.000000000000
         C            3.400580004017     0.045744161460    -0.000392934983    12.000000000000
         H           -1.192418995983    -2.416850838540    -0.769043934983     1.007825032230
         H           -3.881661995983     0.833594161460     0.278962065017     1.007825032230
         H           -3.824646995983    -1.768070838540    -0.542702934983     1.007825032230
         H           -2.220601995983     2.341846161460     1.332209065017     1.007825032230
         H           -0.486357995983     1.962938161460     1.235479065017     1.007825032230
         H           -1.313256995983     2.702012161460    -0.155845934983     1.007825032230
         H            0.654276004017     1.628861161460    -1.242967934983     1.007825032230
         H            0.881921004017    -1.979164838540     1.084898065017     1.007825032230
         H            3.118048004017     1.854841161460    -1.141558934983     1.007825032230
         H            3.361728004017    -1.798776838540     1.118691065017     1.007825032230
         H            4.483994004017     0.134551161460     0.025474065017     1.007825032230

  Basis Set: AUG-CC-PVTZ
    Blend: AUG-CC-PVTZ
  Basis Set: (AUG-CC-PVTZ AUX)
    Blend: AUG-CC-PVTZ-JKFIT
	 Reference Energy          =    -477.5321280337831240 [Eh]
	 Singles Energy            =      -0.0000000000000000 [Eh]
	 Same-Spin Energy          =      -0.5396425981705161 [Eh]
	 Opposite-Spin Energy      =      -1.6848360118968222 [Eh]
	 Correlation Energy        =      -2.2244786100673384 [Eh]
	 Total Energy              =    -479.7566066438504890 [Eh]

	 ================> DF-SCS-MP2 Energies <==================
	-----------------------------------------------------------
	 SCS Same-Spin Scale       =       0.3333333333333333 [-]
	 SCS Opposite-Spin Scale   =       1.2000000000000000 [-]
	 SCS Same-Spin Energy      =      -0.1798808660568387 [Eh]
	 SCS Opposite-Spin Energy  =      -2.0218032142761864 [Eh]
	 SCS Correlation Energy    =      -2.2016840803330249 [Eh]
	 SCS Total Energy          =    -479.7338121141161764 [Eh]
	-----------------------------------------------------------

  Dipole Moment: [D]
     X:     0.4617      Y:     1.5773      Z:     0.5904     Total:     1.7463

*** Psi4 exiting successfully. Buy a developer a beer!
