                               Psi4 1.3.2 release

  ==> Input File <==

--------------------------------------------------------------------------
#psi4
#
memory 32 gb

molecule  {
0 1
  N       -1.8803666     0.6599036     0.2813196
  C       -0.8584400    -0.3593730    -0.1157050
  C        0.5958890    -0.1944310    -0.0686340
  C       -1.6095070    -1.4830350    -0.4543950
  C       -3.0364380     0.1798280     0.0590890
  C       -2.9750140    -1.1422740    -0.3482900
  C       -1.4212420     1.9838780     0.6691930
  C        1.2419450     0.8845030    -0.6969540
  C        1.3787110    -1.1624060     0.5835710
  C        2.6315710     1.0013490    -0.6546280
  C        2.7689430    -1.0546610     0.6054980
  C        3.3999180     0.0321080    -0.0053240
  H       -1.1930810    -2.4304870    -0.7739750
  H       -3.8823240     0.8199580     0.2740310
  H       -3.8253090    -1.7817070    -0.5476340
  H       -2.2212640     2.3282100     1.3272780
  H       -0.4870200     1.9493020     1.2305480
  H       -1.3139190     2.6883760    -0.1607770
  H        0.6536140     1.6152250    -1.2478990
  H        0.8812590    -1.9928010     1.0799670
  H        3.1173860     1.8412050    -1.1464900
  H        3.3610660    -1.8124130     1.1137600
  H        4.4833320     0.1209150     0.0205430
units angstrom
no_reorient  #important for SAPT in psi4, default
symmetry c1  #important for SAPT in psi4, default
}

set PROPERTIES_ORIGIN ["COM"]
properties('MP2/aug-cc-pvtz', properties = ['dipole'])
--------------------------------------------------------------------------

    Molecular point group: c1
  Charge       = 0
  Multiplicity = 1
  Basis Set: AUG-CC-PVTZ
    Blend: AUG-CC-PVTZ
  Basis Set: (AUG-CC-PVTZ AUX)
    Blend: AUG-CC-PVTZ-JKFIT

    Orbital Energies [Eh]
    ---------------------

    Doubly Occupied:

       1A    -15.608672     2A    -11.273367     3A    -11.253343
       4A    -11.250726     5A    -11.250347     6A    -11.239572
       7A    -11.238508     8A    -11.237870     9A    -11.236906
      10A    -11.235953    11A    -11.216551    12A    -11.198391
      13A     -1.306806    14A     -1.154797    15A     -1.075209
      16A     -1.043914    17A     -1.015186    18A     -0.965982
      19A     -0.925579    20A     -0.831171    21A     -0.828965
      22A     -0.771100    23A     -0.743156    24A     -0.712681
      25A     -0.679696    26A     -0.640116    27A     -0.633191
      28A     -0.622713    29A     -0.598832    30A     -0.590587
      31A     -0.586378    32A     -0.549686    33A     -0.536821
      34A     -0.528546    35A     -0.518136    36A     -0.498803
      37A     -0.494607    38A     -0.489339    39A     -0.362153
      40A     -0.339000    41A     -0.333960    42A     -0.268967

  @DF-RHF Final Energy:  -477.52314368347197

   => Energetics <=

    Nuclear Repulsion Energy =            637.7911858408443777
    One-Electron Energy =               -1910.8560965078888785
    Two-Electron Energy =                 795.5417669835724155
    Total Energy =                       -477.5231436834719716
  Basis Set: (AUG-CC-PVTZ AUX)
    Blend: AUG-CC-PVTZ-RI
    Molecular point group: c1

    Geometry (in Angstrom), charge = 0, multiplicity = 1:

       Center              X                  Y                   Z               Mass
    ------------   -----------------  -----------------  -----------------  -----------------
         N           -1.871680601259     0.680029275176     0.281326644441    14.003074004430
         C           -0.849754001259    -0.339247324824    -0.115697955559    12.000000000000
         C            0.604574998741    -0.174305324824    -0.068626955559    12.000000000000
         C           -1.600821001259    -1.462909324824    -0.454387955559    12.000000000000
         C           -3.027752001259     0.199953675176     0.059096044441    12.000000000000
         C           -2.966328001259    -1.122148324824    -0.348282955559    12.000000000000
         C           -1.412556001259     2.004003675176     0.669200044441    12.000000000000
         C            1.250630998741     0.904628675176    -0.696946955559    12.000000000000
         C            1.387396998741    -1.142280324824     0.583578044441    12.000000000000
         C            2.640256998741     1.021474675176    -0.654620955559    12.000000000000
         C            2.777628998741    -1.034535324824     0.605505044441    12.000000000000
         C            3.408603998741     0.052233675176    -0.005316955559    12.000000000000
         H           -1.184395001259    -2.410361324824    -0.773967955559     1.007825032230
         H           -3.873638001259     0.840083675176     0.274038044441     1.007825032230
         H           -3.816623001259    -1.761581324824    -0.547626955559     1.007825032230
         H           -2.212578001259     2.348335675176     1.327285044441     1.007825032230
         H           -0.478334001259     1.969427675176     1.230555044441     1.007825032230
         H           -1.305233001259     2.708501675176    -0.160769955559     1.007825032230
         H            0.662299998741     1.635350675176    -1.247891955559     1.007825032230
         H            0.889944998741    -1.972675324824     1.079974044441     1.007825032230
         H            3.126071998741     1.861330675176    -1.146482955559     1.007825032230
         H            3.369751998741    -1.792287324824     1.113767044441     1.007825032230
         H            4.492017998741     0.141040675176     0.020550044441     1.007825032230

  Basis Set: AUG-CC-PVTZ
    Blend: AUG-CC-PVTZ
  Basis Set: (AUG-CC-PVTZ AUX)
    Blend: AUG-CC-PVTZ-JKFIT
	 Reference Energy          =    -477.5231436834719716 [Eh]
	 Singles Energy            =      -0.0000000000000000 [Eh]
	 Same-Spin Energy          =      -0.5395475338764196 [Eh]
	 Opposite-Spin Energy      =      -1.6841461439986181 [Eh]
	 Correlation Energy        =      -2.2236936778750378 [Eh]
	 Total Energy              =    -479.7468373613469907 [Eh]

	 ================> DF-SCS-MP2 Energies <==================
	-----------------------------------------------------------
	 SCS Same-Spin Scale       =       0.3333333333333333 [-]
	 SCS Opposite-Spin Scale   =       1.2000000000000000 [-]
	 SCS Same-Spin Energy      =      -0.1798491779588065 [Eh]
	 SCS Opposite-Spin Energy  =      -2.0209753727983415 [Eh]
	 SCS Correlation Energy    =      -2.2008245507571482 [Eh]
	 SCS Total Energy          =    -479.7239682342291189 [Eh]
	-----------------------------------------------------------

  Dipole Moment: [D]
     X:     0.6058      Y:     1.9071      Z:     0.6547     Total:     2.1054

*** Psi4 exiting successfully. Buy a developer a beer!
