                               Psi4 1.3.2 release

  ==> Input File <==

--------------------------------------------------------------------------
#psi4
#
memory 32 gb

molecule  {
0 1
  N       -1.8245911     0.5866241     0.1795624
  C       -0.8584400    -0.3593730    -0.1157050
  C        0.5958890    -0.1944310    -0.0686340
  C       -1.6095070    -1.4830350    -0.4543950
  C       -3.0364380     0.1798280     0.0590890
  C       -2.9750140    -1.1422740    -0.3482900
  C       -1.4212420     1.9838780     0.6691930
  C        1.2419450     0.8845030    -0.6969540
  C        1.3787110    -1.1624060     0.5835710
  C        2.6315710     1.0013490    -0.6546280
  C        2.7689430    -1.0546610     0.6054980
  C        3.3999180     0.0321080    -0.0053240
  H       -1.1930810    -2.4304870    -0.7739750
  H       -3.8823240     0.8199580     0.2740310
  H       -3.8253090    -1.7817070    -0.5476340
  H       -2.2212640     2.3282100     1.3272780
  H       -0.4870200     1.9493020     1.2305480
  H       -1.3139190     2.6883760    -0.1607770
  H        0.6536140     1.6152250    -1.2478990
  H        0.8812590    -1.9928010     1.0799670
  H        3.1173860     1.8412050    -1.1464900
  H        3.3610660    -1.8124130     1.1137600
  H        4.4833320     0.1209150     0.0205430
units angstrom
no_reorient  #important for SAPT in psi4, default
symmetry c1  #important for SAPT in psi4, default
}

set PROPERTIES_ORIGIN ["COM"]
properties('MP2/aug-cc-pvtz', properties = ['dipole'])
--------------------------------------------------------------------------

    Molecular point group: c1
  Charge       = 0
  Multiplicity = 1
  Basis Set: AUG-CC-PVTZ
    Blend: AUG-CC-PVTZ
  Basis Set: (AUG-CC-PVTZ AUX)
    Blend: AUG-CC-PVTZ-JKFIT

    Orbital Energies [Eh]
    ---------------------

    Doubly Occupied:

       1A    -15.611050     2A    -11.279227     3A    -11.251590
       4A    -11.248298     5A    -11.242476     6A    -11.240308
       7A    -11.239148     8A    -11.238696     9A    -11.237368
      10A    -11.236561    11A    -11.205902    12A    -11.198324
      13A     -1.316571    14A     -1.155282    15A     -1.060995
      16A     -1.045724    17A     -1.015701    18A     -0.964957
      19A     -0.934388    20A     -0.833619    21A     -0.830128
      22A     -0.774339    23A     -0.739834    24A     -0.709873
      25A     -0.681253    26A     -0.640192    27A     -0.634981
      28A     -0.621573    29A     -0.595212    30A     -0.587205
      31A     -0.581933    32A     -0.547294    33A     -0.539514
      34A     -0.530101    35A     -0.528071    36A     -0.503845
      37A     -0.494983    38A     -0.491174    39A     -0.356910
      40A     -0.339702    41A     -0.331670    42A     -0.273075

  @DF-RHF Final Energy:  -477.53333095209365

   => Energetics <=

    Nuclear Repulsion Energy =            639.4155435612061638
    One-Electron Energy =               -1914.1196599736297230
    Two-Electron Energy =                 797.1707854603298529
    Total Energy =                       -477.5333309520935927
  Basis Set: (AUG-CC-PVTZ AUX)
    Blend: AUG-CC-PVTZ-RI
    Molecular point group: c1

    Geometry (in Angstrom), charge = 0, multiplicity = 1:

       Center              X                  Y                   Z               Mass
    ------------   -----------------  -----------------  -----------------  -----------------
         N           -1.820876981605     0.613281978486     0.188640176620    14.003074004430
         C           -0.854725881605    -0.332715121514    -0.106627223380    12.000000000000
         C            0.599603118395    -0.167773121514    -0.059556223380    12.000000000000
         C           -1.605792881605    -1.456377121514    -0.445317223380    12.000000000000
         C           -3.032723881605     0.206485878486     0.068166776620    12.000000000000
         C           -2.971299881605    -1.115616121514    -0.339212223380    12.000000000000
         C           -1.417527881605     2.010535878486     0.678270776620    12.000000000000
         C            1.245659118395     0.911160878486    -0.687876223380    12.000000000000
         C            1.382425118395    -1.135748121514     0.592648776620    12.000000000000
         C            2.635285118395     1.028006878486    -0.645550223380    12.000000000000
         C            2.772657118395    -1.028003121514     0.614575776620    12.000000000000
         C            3.403632118395     0.058765878486     0.003753776620    12.000000000000
         H           -1.189366881605    -2.403829121514    -0.764897223380     1.007825032230
         H           -3.878609881605     0.846615878486     0.283108776620     1.007825032230
         H           -3.821594881605    -1.755049121514    -0.538556223380     1.007825032230
         H           -2.217549881605     2.354867878486     1.336355776620     1.007825032230
         H           -0.483305881605     1.975959878486     1.239625776620     1.007825032230
         H           -1.310204881605     2.715033878486    -0.151699223380     1.007825032230
         H            0.657328118395     1.641882878486    -1.238821223380     1.007825032230
         H            0.884973118395    -1.966143121514     1.089044776620     1.007825032230
         H            3.121100118395     1.867862878486    -1.137412223380     1.007825032230
         H            3.364780118395    -1.785755121514     1.122837776620     1.007825032230
         H            4.487046118395     0.147572878486     0.029620776620     1.007825032230

  Basis Set: AUG-CC-PVTZ
    Blend: AUG-CC-PVTZ
  Basis Set: (AUG-CC-PVTZ AUX)
    Blend: AUG-CC-PVTZ-JKFIT
	 Reference Energy          =    -477.5333309520936496 [Eh]
	 Singles Energy            =      -0.0000000000000000 [Eh]
	 Same-Spin Energy          =      -0.5395255027142951 [Eh]
	 Opposite-Spin Energy      =      -1.6830167273855290 [Eh]
	 Correlation Energy        =      -2.2225422300998243 [Eh]
	 Total Energy              =    -479.7558731821934543 [Eh]

	 ================> DF-SCS-MP2 Energies <==================
	-----------------------------------------------------------
	 SCS Same-Spin Scale       =       0.3333333333333333 [-]
	 SCS Opposite-Spin Scale   =       1.2000000000000000 [-]
	 SCS Same-Spin Energy      =      -0.1798418342380984 [Eh]
	 SCS Opposite-Spin Energy  =      -2.0196200728626348 [Eh]
	 SCS Correlation Energy    =      -2.1994619071007331 [Eh]
	 SCS Total Energy          =    -479.7327928591943760 [Eh]
	-----------------------------------------------------------

  Dipole Moment: [D]
     X:     0.5474      Y:     2.1502      Z:     0.7649     Total:     2.3469

*** Psi4 exiting successfully. Buy a developer a beer!
