                               Psi4 1.4a3.dev225

  ==> Input File <==

--------------------------------------------------------------------------
#psi4
#
memory 32 gb

molecule  {
0 1
  N       -1.7531090     0.6487580     0.1985890
  C       -0.8584400    -0.3593730    -0.1157050
  C        0.5958890    -0.1944310    -0.0686340
  C       -1.6095070    -1.4830350    -0.4543950
  C       -3.0364380     0.1798280     0.0590890
  C       -2.9750140    -1.1422740    -0.3482900
  C       -1.4212420     1.9838780     0.6691930
  C        1.2419450     0.8845030    -0.6969540
  C        1.3787110    -1.1624060     0.5835710
  C        2.6315710     1.0013490    -0.6546280
  C        2.7689430    -1.0546610     0.6054980
  C        3.3999180     0.0321080    -0.0053240
  H       -1.2123040    -2.3867509    -0.7592226
  H       -3.8823240     0.8199580     0.2740310
  H       -3.8253090    -1.7817070    -0.5476340
  H       -2.2212640     2.3282100     1.3272780
  H       -0.4870200     1.9493020     1.2305480
  H       -1.3139190     2.6883760    -0.1607770
  H        0.6536140     1.6152250    -1.2478990
  H        0.8812590    -1.9928010     1.0799670
  H        3.1173860     1.8412050    -1.1464900
  H        3.3610660    -1.8124130     1.1137600
  H        4.4833320     0.1209150     0.0205430
units angstrom
no_reorient  #important for SAPT in psi4, default
symmetry c1  #important for SAPT in psi4, default
}

set PROPERTIES_ORIGIN ["COM"]
properties('MP2/aug-cc-pvtz', properties = ['dipole'])
--------------------------------------------------------------------------

    Molecular point group: c1
  Charge       = 0
  Multiplicity = 1
  Basis Set: AUG-CC-PVTZ
    Blend: AUG-CC-PVTZ
  Basis Set: (AUG-CC-PVTZ AUX)
    Blend: AUG-CC-PVTZ-JKFIT

    Orbital Energies [Eh]
    ---------------------

    Doubly Occupied:

       1A    -15.607330     2A    -11.270503     3A    -11.256100
       4A    -11.250192     5A    -11.248227     6A    -11.240757
       7A    -11.239606     8A    -11.239299     9A    -11.237995
      10A    -11.237119    11A    -11.207696    12A    -11.201290
      13A     -1.298585    14A     -1.155118    15A     -1.073807
      16A     -1.043880    17A     -1.016228    18A     -0.956222
      19A     -0.934509    20A     -0.833633    21A     -0.830716
      22A     -0.773859    23A     -0.743890    24A     -0.714447
      25A     -0.678110    26A     -0.640153    27A     -0.632337
      28A     -0.622730    29A     -0.597800    30A     -0.587265
      31A     -0.571838    32A     -0.568669    33A     -0.538463
      34A     -0.530238    35A     -0.523769    36A     -0.502209
      37A     -0.494799    38A     -0.491870    39A     -0.353924
      40A     -0.340308    41A     -0.335081    42A     -0.274945

  @DF-RHF Final Energy:  -477.54515968848227

   => Energetics <=

    Nuclear Repulsion Energy =            639.3071573865775008
    One-Electron Energy =               -1913.9136055412152473
    Two-Electron Energy =                 797.0612884661554745
    Total Energy =                       -477.5451596884822720
  Basis Set: (AUG-CC-PVTZ AUX)
    Blend: AUG-CC-PVTZ-RI
    Molecular point group: c1

    Geometry (in Angstrom), charge = 0, multiplicity = 1:

       Center              X                  Y                   Z               Mass
    ------------   -----------------  -----------------  -----------------  -----------------
         N           -1.755643535440     0.669596610001     0.205876081801    14.003074004430
         C           -0.860974535440    -0.338534389999    -0.108417918199    12.000000000000
         C            0.593354464560    -0.173592389999    -0.061346918199    12.000000000000
         C           -1.612041535440    -1.462196389999    -0.447107918199    12.000000000000
         C           -3.038972535440     0.200666610001     0.066376081801    12.000000000000
         C           -2.977548535440    -1.121435389999    -0.341002918199    12.000000000000
         C           -1.423776535440     2.004716610001     0.676480081801    12.000000000000
         C            1.239410464560     0.905341610001    -0.689666918199    12.000000000000
         C            1.376176464560    -1.141567389999     0.590858081801    12.000000000000
         C            2.629036464560     1.022187610001    -0.647340918199    12.000000000000
         C            2.766408464560    -1.033822389999     0.612785081801    12.000000000000
         C            3.397383464560     0.052946610001     0.001963081801    12.000000000000
         H           -1.214838535440    -2.365912289999    -0.751935518199     1.007825032230
         H           -3.884858535440     0.840796610001     0.281318081801     1.007825032230
         H           -3.827843535440    -1.760868389999    -0.540346918199     1.007825032230
         H           -2.223798535440     2.349048610001     1.334565081801     1.007825032230
         H           -0.489554535440     1.970140610001     1.237835081801     1.007825032230
         H           -1.316453535440     2.709214610001    -0.153489918199     1.007825032230
         H            0.651079464560     1.636063610001    -1.240611918199     1.007825032230
         H            0.878724464560    -1.971962389999     1.087254081801     1.007825032230
         H            3.114851464560     1.862043610001    -1.139202918199     1.007825032230
         H            3.358531464560    -1.791574389999     1.121047081801     1.007825032230
         H            4.480797464560     0.141753610001     0.027830081801     1.007825032230

  Basis Set: AUG-CC-PVTZ
    Blend: AUG-CC-PVTZ
  Basis Set: (AUG-CC-PVTZ AUX)
    Blend: AUG-CC-PVTZ-JKFIT
	 Reference Energy          =    -477.5451596884822720 [Eh]
	 Singles Energy            =      -0.0000000000000000 [Eh]
	 Same-Spin Energy          =      -0.5390872107858398 [Eh]
	 Opposite-Spin Energy      =      -1.6828862869355925 [Eh]
	 Correlation Energy        =      -2.2219734977214323 [Eh]
	 Total Energy              =    -479.7671331862036936 [Eh]

	 ================> DF-SCS-MP2 Energies <==================
	-----------------------------------------------------------
	 SCS Same-Spin Scale       =       0.3333333333333333 [-]
	 SCS Opposite-Spin Scale   =       1.2000000000000000 [-]
	 SCS Same-Spin Energy      =      -0.1796957369286132 [Eh]
	 SCS Opposite-Spin Energy  =      -2.0194635443227109 [Eh]
	 SCS Correlation Energy    =      -2.1991592812513243 [Eh]
	 SCS Total Energy          =    -479.7443189697335697 [Eh]
	-----------------------------------------------------------

  Dipole Moment: [D]
     X:     0.4777      Y:     1.8530      Z:     0.6745     Total:     2.0290

*** Psi4 exiting successfully. Buy a developer a beer!
