                               Psi4 1.3.2 release

  ==> Input File <==

--------------------------------------------------------------------------
#psi4
#
memory 32 gb

molecule  {
0 1
  N       -1.7531090     0.6487580     0.1985890
  C       -0.8584400    -0.3593730    -0.1157050
  C        0.5958890    -0.1944310    -0.0686340
  C       -1.6095070    -1.4830350    -0.4543950
  C       -3.0364380     0.1798280     0.0590890
  C       -3.0233225    -1.1438120    -0.3477148
  C       -1.4212420     1.9838780     0.6691930
  C        1.2419450     0.8845030    -0.6969540
  C        1.3787110    -1.1624060     0.5835710
  C        2.6315710     1.0013490    -0.6546280
  C        2.7689430    -1.0546610     0.6054980
  C        3.3999180     0.0321080    -0.0053240
  H       -1.1930810    -2.4304870    -0.7739750
  H       -3.8823240     0.8199580     0.2740310
  H       -3.8253090    -1.7817070    -0.5476340
  H       -2.2212640     2.3282100     1.3272780
  H       -0.4870200     1.9493020     1.2305480
  H       -1.3139190     2.6883760    -0.1607770
  H        0.6536140     1.6152250    -1.2478990
  H        0.8812590    -1.9928010     1.0799670
  H        3.1173860     1.8412050    -1.1464900
  H        3.3610660    -1.8124130     1.1137600
  H        4.4833320     0.1209150     0.0205430
units angstrom
no_reorient  #important for SAPT in psi4, default
symmetry c1  #important for SAPT in psi4, default
}

set PROPERTIES_ORIGIN ["COM"]
properties('MP2/aug-cc-pvtz', properties = ['dipole'])
--------------------------------------------------------------------------

    Molecular point group: c1
  Charge       = 0
  Multiplicity = 1
  Basis Set: AUG-CC-PVTZ
    Blend: AUG-CC-PVTZ
  Basis Set: (AUG-CC-PVTZ AUX)
    Blend: AUG-CC-PVTZ-JKFIT

    Orbital Energies [Eh]
    ---------------------

    Doubly Occupied:

       1A    -15.606436     2A    -11.270805     3A    -11.257515
       4A    -11.251307     5A    -11.250543     6A    -11.240966
       7A    -11.239832     8A    -11.239478     9A    -11.238215
      10A    -11.237290    11A    -11.211150    12A    -11.209215
      13A     -1.297205    14A     -1.155316    15A     -1.068236
      16A     -1.043936    17A     -1.016368    18A     -0.957300
      19A     -0.930655    20A     -0.833524    21A     -0.830900
      22A     -0.775072    23A     -0.741557    24A     -0.712800
      25A     -0.677884    26A     -0.639888    27A     -0.631993
      28A     -0.622994    29A     -0.599781    30A     -0.587417
      31A     -0.574308    32A     -0.568178    33A     -0.537106
      34A     -0.526607    35A     -0.518972    36A     -0.502328
      37A     -0.493498    38A     -0.491874    39A     -0.354469
      40A     -0.340185    41A     -0.330578    42A     -0.277806

  @DF-RHF Final Energy:  -477.54371432390201

   => Energetics <=

    Nuclear Repulsion Energy =            638.1380547794915401
    One-Electron Energy =               -1911.5805623737344376
    Two-Electron Energy =                 795.8987932703408887
    Total Energy =                       -477.5437143239020088
  Basis Set: (AUG-CC-PVTZ AUX)
    Blend: AUG-CC-PVTZ-RI
    Molecular point group: c1

    Geometry (in Angstrom), charge = 0, multiplicity = 1:

       Center              X                  Y                   Z               Mass
    ------------   -----------------  -----------------  -----------------  -----------------
         N           -1.752076589017     0.669994691833     0.205926788282    14.003074004430
         C           -0.857407589017    -0.338136308167    -0.108367211718    12.000000000000
         C            0.596921410983    -0.173194308167    -0.061296211718    12.000000000000
         C           -1.608474589017    -1.461798308167    -0.447057211718    12.000000000000
         C           -3.035405589017     0.201064691833     0.066426788282    12.000000000000
         C           -3.022290089017    -1.122575308167    -0.340377011718    12.000000000000
         C           -1.420209589017     2.005114691833     0.676530788282    12.000000000000
         C            1.242977410983     0.905739691833    -0.689616211718    12.000000000000
         C            1.379743410983    -1.141169308167     0.590908788282    12.000000000000
         C            2.632603410983     1.022585691833    -0.647290211718    12.000000000000
         C            2.769975410983    -1.033424308167     0.612835788282    12.000000000000
         C            3.400950410983     0.053344691833     0.002013788282    12.000000000000
         H           -1.192048589017    -2.409250308167    -0.766637211718     1.007825032230
         H           -3.881291589017     0.841194691833     0.281368788282     1.007825032230
         H           -3.824276589017    -1.760470308167    -0.540296211718     1.007825032230
         H           -2.220231589017     2.349446691833     1.334615788282     1.007825032230
         H           -0.485987589017     1.970538691833     1.237885788282     1.007825032230
         H           -1.312886589017     2.709612691833    -0.153439211718     1.007825032230
         H            0.654646410983     1.636461691833    -1.240561211718     1.007825032230
         H            0.882291410983    -1.971564308167     1.087304788282     1.007825032230
         H            3.118418410983     1.862441691833    -1.139152211718     1.007825032230
         H            3.362098410983    -1.791176308167     1.121097788282     1.007825032230
         H            4.484364410983     0.142151691833     0.027880788282     1.007825032230

  Basis Set: AUG-CC-PVTZ
    Blend: AUG-CC-PVTZ
  Basis Set: (AUG-CC-PVTZ AUX)
    Blend: AUG-CC-PVTZ-JKFIT
	 Reference Energy          =    -477.5437143239020088 [Eh]
	 Singles Energy            =      -0.0000000000000000 [Eh]
	 Same-Spin Energy          =      -0.5385834787936046 [Eh]
	 Opposite-Spin Energy      =      -1.6829993724440779 [Eh]
	 Correlation Energy        =      -2.2215828512376827 [Eh]
	 Total Energy              =    -479.7652971751396649 [Eh]

	 ================> DF-SCS-MP2 Energies <==================
	-----------------------------------------------------------
	 SCS Same-Spin Scale       =       0.3333333333333333 [-]
	 SCS Opposite-Spin Scale   =       1.2000000000000000 [-]
	 SCS Same-Spin Energy      =      -0.1795278262645348 [Eh]
	 SCS Opposite-Spin Energy  =      -2.0195992469328936 [Eh]
	 SCS Correlation Energy    =      -2.1991270731974284 [Eh]
	 SCS Total Energy          =    -479.7428413970994256 [Eh]
	-----------------------------------------------------------

  Dipole Moment: [D]
     X:     0.5016      Y:     1.8651      Z:     0.6794     Total:     2.0474

*** Psi4 exiting successfully. Buy a developer a beer!
