                               Psi4 1.3.2 release

  ==> Input File <==

--------------------------------------------------------------------------
#psi4
#
memory 32 gb

molecule  {
0 1
  N       -1.8585880     0.5538091     0.1695036
  C       -0.8584400    -0.3593730    -0.1157050
  C        0.5958890    -0.1944310    -0.0686340
  C       -1.6095070    -1.4830350    -0.4543950
  C       -3.0364380     0.1798280     0.0590890
  C       -2.9750140    -1.1422740    -0.3482900
  C       -1.4212420     1.9838780     0.6691930
  C        1.2419450     0.8845030    -0.6969540
  C        1.3787110    -1.1624060     0.5835710
  C        2.6315710     1.0013490    -0.6546280
  C        2.7689430    -1.0546610     0.6054980
  C        3.3999180     0.0321080    -0.0053240
  H       -1.1930810    -2.4304870    -0.7739750
  H       -3.8823240     0.8199580     0.2740310
  H       -3.8253090    -1.7817070    -0.5476340
  H       -2.2212640     2.3282100     1.3272780
  H       -0.4870200     1.9493020     1.2305480
  H       -1.3139190     2.6883760    -0.1607770
  H        0.6536140     1.6152250    -1.2478990
  H        0.8812590    -1.9928010     1.0799670
  H        3.1173860     1.8412050    -1.1464900
  H        3.3610660    -1.8124130     1.1137600
  H        4.4833320     0.1209150     0.0205430
units angstrom
no_reorient  #important for SAPT in psi4, default
symmetry c1  #important for SAPT in psi4, default
}

set PROPERTIES_ORIGIN ["COM"]
properties('MP2/aug-cc-pvtz', properties = ['dipole'])
--------------------------------------------------------------------------

    Molecular point group: c1
  Charge       = 0
  Multiplicity = 1
  Basis Set: AUG-CC-PVTZ
    Blend: AUG-CC-PVTZ
  Basis Set: (AUG-CC-PVTZ AUX)
    Blend: AUG-CC-PVTZ-JKFIT

    Orbital Energies [Eh]
    ---------------------

    Doubly Occupied:

       1A    -15.612595     2A    -11.283207     3A    -11.252247
       4A    -11.244656     5A    -11.240079     6A    -11.239431
       7A    -11.238950     8A    -11.238313     9A    -11.237019
      10A    -11.236267    11A    -11.205323    12A    -11.193685
      13A     -1.328932    14A     -1.155386    15A     -1.057886
      16A     -1.044740    17A     -1.015409    18A     -0.970669
      19A     -0.933757    20A     -0.834016    21A     -0.829785
      22A     -0.776237    23A     -0.738827    24A     -0.708136
      25A     -0.683551    26A     -0.641405    27A     -0.637049
      28A     -0.621435    29A     -0.594696    30A     -0.589349
      31A     -0.585686    32A     -0.547332    33A     -0.539984
      34A     -0.528898    35A     -0.521500    36A     -0.503967
      37A     -0.495137    38A     -0.489231    39A     -0.358695
      40A     -0.339479    41A     -0.329998    42A     -0.271498

  @DF-RHF Final Energy:  -477.51555038967433

   => Energetics <=

    Nuclear Repulsion Energy =            639.7026059560965905
    One-Electron Energy =               -1914.6474257915062935
    Two-Electron Energy =                 797.4292694457354855
    Total Energy =                       -477.5155503896743312
  Basis Set: (AUG-CC-PVTZ AUX)
    Blend: AUG-CC-PVTZ-RI
    Molecular point group: c1

    Geometry (in Angstrom), charge = 0, multiplicity = 1:

       Center              X                  Y                   Z               Mass
    ------------   -----------------  -----------------  -----------------  -----------------
         N           -1.851843366075     0.583392138342     0.179478027479    14.003074004430
         C           -0.851695366075    -0.329789961658    -0.105730572521    12.000000000000
         C            0.602633633925    -0.164847961658    -0.058659572521    12.000000000000
         C           -1.602762366075    -1.453451961658    -0.444420572521    12.000000000000
         C           -3.029693366075     0.209411038342     0.069063427479    12.000000000000
         C           -2.968269366075    -1.112690961658    -0.338315572521    12.000000000000
         C           -1.414497366075     2.013461038342     0.679167427479    12.000000000000
         C            1.248689633925     0.914086038342    -0.686979572521    12.000000000000
         C            1.385455633925    -1.132822961658     0.593545427479    12.000000000000
         C            2.638315633925     1.030932038342    -0.644653572521    12.000000000000
         C            2.775687633925    -1.025077961658     0.615472427479    12.000000000000
         C            3.406662633925     0.061691038342     0.004650427479    12.000000000000
         H           -1.186336366075    -2.400903961658    -0.764000572521     1.007825032230
         H           -3.875579366075     0.849541038342     0.284005427479     1.007825032230
         H           -3.818564366075    -1.752123961658    -0.537659572521     1.007825032230
         H           -2.214519366075     2.357793038342     1.337252427479     1.007825032230
         H           -0.480275366075     1.978885038342     1.240522427479     1.007825032230
         H           -1.307174366075     2.717959038342    -0.150802572521     1.007825032230
         H            0.660358633925     1.644808038342    -1.237924572521     1.007825032230
         H            0.888003633925    -1.963217961658     1.089941427479     1.007825032230
         H            3.124130633925     1.870788038342    -1.136515572521     1.007825032230
         H            3.367810633925    -1.782829961658     1.123734427479     1.007825032230
         H            4.490076633925     0.150498038342     0.030517427479     1.007825032230

  Basis Set: AUG-CC-PVTZ
    Blend: AUG-CC-PVTZ
  Basis Set: (AUG-CC-PVTZ AUX)
    Blend: AUG-CC-PVTZ-JKFIT
	 Reference Energy          =    -477.5155503896743312 [Eh]
	 Singles Energy            =      -0.0000000000000000 [Eh]
	 Same-Spin Energy          =      -0.5399205239985534 [Eh]
	 Opposite-Spin Energy      =      -1.6834428240872095 [Eh]
	 Correlation Energy        =      -2.2233633480857629 [Eh]
	 Total Energy              =    -479.7389137377600719 [Eh]

	 ================> DF-SCS-MP2 Energies <==================
	-----------------------------------------------------------
	 SCS Same-Spin Scale       =       0.3333333333333333 [-]
	 SCS Opposite-Spin Scale   =       1.2000000000000000 [-]
	 SCS Same-Spin Energy      =      -0.1799735079995178 [Eh]
	 SCS Opposite-Spin Energy  =      -2.0201313889046513 [Eh]
	 SCS Correlation Energy    =      -2.2001048969041692 [Eh]
	 SCS Total Energy          =    -479.7156552865785102 [Eh]
	-----------------------------------------------------------

  Dipole Moment: [D]
     X:     0.5682      Y:     2.2891      Z:     0.8070     Total:     2.4929

*** Psi4 exiting successfully. Buy a developer a beer!
