                               Psi4 1.4a3.dev225

  ==> Input File <==

--------------------------------------------------------------------------
#psi4
#
memory 32 gb

molecule  {
0 1
  N       -1.7531090     0.6487580     0.1985890
  C       -0.8584400    -0.3593730    -0.1157050
  C        0.5958890    -0.1944310    -0.0686340
  C       -1.6095070    -1.4830350    -0.4543950
  C       -3.0364380     0.1798280     0.0590890
  C       -2.9750140    -1.1422740    -0.3482900
  C       -1.4212420     1.9838780     0.6691930
  C        1.2327537     0.8691532    -0.6880150
  C        1.3787110    -1.1624060     0.5835710
  C        2.6315710     1.0013490    -0.6546280
  C        2.7689430    -1.0546610     0.6054980
  C        3.3999180     0.0321080    -0.0053240
  H       -1.1930810    -2.4304870    -0.7739750
  H       -3.8823240     0.8199580     0.2740310
  H       -3.8253090    -1.7817070    -0.5476340
  H       -2.2212640     2.3282100     1.3272780
  H       -0.4870200     1.9493020     1.2305480
  H       -1.3139190     2.6883760    -0.1607770
  H        0.6536140     1.6152250    -1.2478990
  H        0.8812590    -1.9928010     1.0799670
  H        3.1173860     1.8412050    -1.1464900
  H        3.3610660    -1.8124130     1.1137600
  H        4.4833320     0.1209150     0.0205430
units angstrom
no_reorient  #important for SAPT in psi4, default
symmetry c1  #important for SAPT in psi4, default
}

set PROPERTIES_ORIGIN ["COM"]
properties('MP2/aug-cc-pvtz', properties = ['dipole'])
--------------------------------------------------------------------------

    Molecular point group: c1
  Charge       = 0
  Multiplicity = 1
  Basis Set: AUG-CC-PVTZ
    Blend: AUG-CC-PVTZ
  Basis Set: (AUG-CC-PVTZ AUX)
    Blend: AUG-CC-PVTZ-JKFIT

    Orbital Energies [Eh]
    ---------------------

    Doubly Occupied:

       1A    -15.607537     2A    -11.270559     3A    -11.256336
       4A    -11.248385     5A    -11.248111     6A    -11.241483
       7A    -11.239482     8A    -11.239271     9A    -11.238079
      10A    -11.237191    11A    -11.208260    12A    -11.206824
      13A     -1.298816    14A     -1.156387    15A     -1.073245
      16A     -1.045272    17A     -1.014733    18A     -0.956526
      19A     -0.933261    20A     -0.833028    21A     -0.830965
      22A     -0.770760    23A     -0.743663    24A     -0.712288
      25A     -0.676782    26A     -0.639670    27A     -0.632406
      28A     -0.623575    29A     -0.596879    30A     -0.585350
      31A     -0.569631    32A     -0.568565    33A     -0.538210
      34A     -0.527034    35A     -0.523658    36A     -0.502006
      37A     -0.495817    38A     -0.491187    39A     -0.355597
      40A     -0.338895    41A     -0.335144    42A     -0.275715

  @DF-RHF Final Energy:  -477.54563593587761

   => Energetics <=

    Nuclear Repulsion Energy =            639.3405381745171780
    One-Electron Energy =               -1913.9991795757307500
    Two-Electron Energy =                 797.1130054653359593
    Total Energy =                       -477.5456359358776126
  Basis Set: (AUG-CC-PVTZ AUX)
    Blend: AUG-CC-PVTZ-RI
    Molecular point group: c1

    Geometry (in Angstrom), charge = 0, multiplicity = 1:

       Center              X                  Y                   Z               Mass
    ------------   -----------------  -----------------  -----------------  -----------------
         N           -1.755064741935     0.671049771707     0.205287879736    14.003074004430
         C           -0.860395741935    -0.337081228293    -0.109006120264    12.000000000000
         C            0.593933258065    -0.172139228293    -0.061935120264    12.000000000000
         C           -1.611462741935    -1.460743228293    -0.447696120264    12.000000000000
         C           -3.038393741935     0.202119771707     0.065787879736    12.000000000000
         C           -2.976969741935    -1.119982228293    -0.341591120264    12.000000000000
         C           -1.423197741935     2.006169771707     0.675891879736    12.000000000000
         C            1.230797958065     0.891444971707    -0.681316120264    12.000000000000
         C            1.376755258065    -1.140114228293     0.590269879736    12.000000000000
         C            2.629615258065     1.023640771707    -0.647929120264    12.000000000000
         C            2.766987258065    -1.032369228293     0.612196879736    12.000000000000
         C            3.397962258065     0.054399771707     0.001374879736    12.000000000000
         H           -1.195036741935    -2.408195228293    -0.767276120264     1.007825032230
         H           -3.884279741935     0.842249771707     0.280729879736     1.007825032230
         H           -3.827264741935    -1.759415228293    -0.540935120264     1.007825032230
         H           -2.223219741935     2.350501771707     1.333976879736     1.007825032230
         H           -0.488975741935     1.971593771707     1.237246879736     1.007825032230
         H           -1.315874741935     2.710667771707    -0.154078120264     1.007825032230
         H            0.651658258065     1.637516771707    -1.241200120264     1.007825032230
         H            0.879303258065    -1.970509228293     1.086665879736     1.007825032230
         H            3.115430258065     1.863496771707    -1.139791120264     1.007825032230
         H            3.359110258065    -1.790121228293     1.120458879736     1.007825032230
         H            4.481376258065     0.143206771707     0.027241879736     1.007825032230

  Basis Set: AUG-CC-PVTZ
    Blend: AUG-CC-PVTZ
  Basis Set: (AUG-CC-PVTZ AUX)
    Blend: AUG-CC-PVTZ-JKFIT
	 Reference Energy          =    -477.5456359358776126 [Eh]
	 Singles Energy            =      -0.0000000000000000 [Eh]
	 Same-Spin Energy          =      -0.5391556542373512 [Eh]
	 Opposite-Spin Energy      =      -1.6832090300641829 [Eh]
	 Correlation Energy        =      -2.2223646843015343 [Eh]
	 Total Energy              =    -479.7680006201791230 [Eh]

	 ================> DF-SCS-MP2 Energies <==================
	-----------------------------------------------------------
	 SCS Same-Spin Scale       =       0.3333333333333333 [-]
	 SCS Opposite-Spin Scale   =       1.2000000000000000 [-]
	 SCS Same-Spin Energy      =      -0.1797185514124504 [Eh]
	 SCS Opposite-Spin Energy  =      -2.0198508360770195 [Eh]
	 SCS Correlation Energy    =      -2.1995693874894697 [Eh]
	 SCS Total Energy          =    -479.7452053233670881 [Eh]
	-----------------------------------------------------------

  Dipole Moment: [D]
     X:     0.4870      Y:     1.8611      Z:     0.6773     Total:     2.0395

*** Psi4 exiting successfully. Buy a developer a beer!
