                               Psi4 1.3.2 release

  ==> Input File <==

--------------------------------------------------------------------------
#psi4
#
memory 32 gb

molecule  {
0 1
  N       -1.7531090     0.6487580     0.1985890
  C       -0.8584400    -0.3593730    -0.1157050
  C        0.5958890    -0.1944310    -0.0686340
  C       -1.6095070    -1.4830350    -0.4543950
  C       -3.0364380     0.1798280     0.0590890
  C       -2.9750140    -1.1422740    -0.3482900
  C       -1.3755935     2.1675244     0.7339248
  C        1.2419450     0.8845030    -0.6969540
  C        1.3787110    -1.1624060     0.5835710
  C        2.6315710     1.0013490    -0.6546280
  C        2.7689430    -1.0546610     0.6054980
  C        3.3999180     0.0321080    -0.0053240
  H       -1.1930810    -2.4304870    -0.7739750
  H       -3.8823240     0.8199580     0.2740310
  H       -3.8253090    -1.7817070    -0.5476340
  H       -2.2212640     2.3282100     1.3272780
  H       -0.4870200     1.9493020     1.2305480
  H       -1.3139190     2.6883760    -0.1607770
  H        0.6536140     1.6152250    -1.2478990
  H        0.8812590    -1.9928010     1.0799670
  H        3.1173860     1.8412050    -1.1464900
  H        3.3610660    -1.8124130     1.1137600
  H        4.4833320     0.1209150     0.0205430
units angstrom
no_reorient  #important for SAPT in psi4, default
symmetry c1  #important for SAPT in psi4, default
}

set PROPERTIES_ORIGIN ["COM"]
properties('MP2/aug-cc-pvtz', properties = ['dipole'])
--------------------------------------------------------------------------

    Molecular point group: c1
  Charge       = 0
  Multiplicity = 1
  Basis Set: AUG-CC-PVTZ
    Blend: AUG-CC-PVTZ
  Basis Set: (AUG-CC-PVTZ AUX)
    Blend: AUG-CC-PVTZ-JKFIT

    Orbital Energies [Eh]
    ---------------------

    Doubly Occupied:

       1A    -15.600952     2A    -11.281971     3A    -11.249862
       4A    -11.248359     5A    -11.242631     6A    -11.240110
       7A    -11.238598     8A    -11.238359     9A    -11.236785
      10A    -11.235312    11A    -11.202088    12A    -11.200894
      13A     -1.273728    14A     -1.153318    15A     -1.052909
      16A     -1.040320    17A     -1.015035    18A     -0.950982
      19A     -0.948488    20A     -0.830820    21A     -0.828902
      22A     -0.760540    23A     -0.736412    24A     -0.695601
      25A     -0.673050    26A     -0.649174    27A     -0.636446
      28A     -0.624915    29A     -0.616257    30A     -0.586727
      31A     -0.571694    32A     -0.543567    33A     -0.533648
      34A     -0.529968    35A     -0.519015    36A     -0.500439
      37A     -0.493387    38A     -0.489989    39A     -0.351409
      40A     -0.339451    41A     -0.330737    42A     -0.270058

  @DF-RHF Final Energy:  -477.51754547224851

   => Energetics <=

    Nuclear Repulsion Energy =            635.3627040998220536
    One-Electron Energy =               -1906.2346803093084873
    Two-Electron Energy =                 793.3544307372379762
    Total Energy =                       -477.5175454722485711
  Basis Set: (AUG-CC-PVTZ AUX)
    Blend: AUG-CC-PVTZ-RI
    Molecular point group: c1

    Geometry (in Angstrom), charge = 0, multiplicity = 1:

       Center              X                  Y                   Z               Mass
    ------------   -----------------  -----------------  -----------------  -----------------
         N           -1.759253940251     0.655848502812     0.201025881993    14.003074004430
         C           -0.864584940251    -0.352282497188    -0.113268118007    12.000000000000
         C            0.589744059749    -0.187340497188    -0.066197118007    12.000000000000
         C           -1.615651940251    -1.475944497188    -0.451958118007    12.000000000000
         C           -3.042582940251     0.186918502812     0.061525881993    12.000000000000
         C           -2.981158940251    -1.135183497188    -0.345853118007    12.000000000000
         C           -1.381738440251     2.174614902812     0.736361681993    12.000000000000
         C            1.235800059749     0.891593502812    -0.694517118007    12.000000000000
         C            1.372566059749    -1.155315497188     0.586007881993    12.000000000000
         C            2.625426059749     1.008439502812    -0.652191118007    12.000000000000
         C            2.762798059749    -1.047570497188     0.607934881993    12.000000000000
         C            3.393773059749     0.039198502812    -0.002887118007    12.000000000000
         H           -1.199225940251    -2.423396497188    -0.771538118007     1.007825032230
         H           -3.888468940251     0.827048502812     0.276467881993     1.007825032230
         H           -3.831453940251    -1.774616497188    -0.545197118007     1.007825032230
         H           -2.227408940251     2.335300502812     1.329714881993     1.007825032230
         H           -0.493164940251     1.956392502812     1.232984881993     1.007825032230
         H           -1.320063940251     2.695466502812    -0.158340118007     1.007825032230
         H            0.647469059749     1.622315502812    -1.245462118007     1.007825032230
         H            0.875114059749    -1.985710497188     1.082403881993     1.007825032230
         H            3.111241059749     1.848295502812    -1.144053118007     1.007825032230
         H            3.354921059749    -1.805322497188     1.116196881993     1.007825032230
         H            4.477187059749     0.128005502812     0.022979881993     1.007825032230

  Basis Set: AUG-CC-PVTZ
    Blend: AUG-CC-PVTZ
  Basis Set: (AUG-CC-PVTZ AUX)
    Blend: AUG-CC-PVTZ-JKFIT
	 Reference Energy          =    -477.5175454722485142 [Eh]
	 Singles Energy            =      -0.0000000000000000 [Eh]
	 Same-Spin Energy          =      -0.5395117831999208 [Eh]
	 Opposite-Spin Energy      =      -1.6853768300616356 [Eh]
	 Correlation Energy        =      -2.2248886132615562 [Eh]
	 Total Energy              =    -479.7424340855100695 [Eh]

	 ================> DF-SCS-MP2 Energies <==================
	-----------------------------------------------------------
	 SCS Same-Spin Scale       =       0.3333333333333333 [-]
	 SCS Opposite-Spin Scale   =       1.2000000000000000 [-]
	 SCS Same-Spin Energy      =      -0.1798372610666402 [Eh]
	 SCS Opposite-Spin Energy  =      -2.0224521960739628 [Eh]
	 SCS Correlation Energy    =      -2.2022894571406031 [Eh]
	 SCS Total Energy          =    -479.7198349293890942 [Eh]
	-----------------------------------------------------------

  Dipole Moment: [D]
     X:     0.5133      Y:     2.3407      Z:     0.8241     Total:     2.5341

*** Psi4 exiting successfully. Buy a developer a beer!
