                               Psi4 1.3.2 release

  ==> Input File <==

--------------------------------------------------------------------------
#psi4
#
memory 32 gb

molecule  {
0 1
  N       -1.7531090     0.6487580     0.1985890
  C       -0.8584400    -0.3593730    -0.1157050
  C        0.5958890    -0.1944310    -0.0686340
  C       -1.6095070    -1.4830350    -0.4543950
  C       -3.0364380     0.1798280     0.0590890
  C       -2.9750140    -1.1422740    -0.3482900
  C       -1.4212420     1.9838780     0.6691930
  C        1.2419450     0.8845030    -0.6969540
  C        1.3787110    -1.1624060     0.5835710
  C        2.6315710     1.0013490    -0.6546280
  C        2.7689430    -1.0546610     0.6054980
  C        3.3999180     0.0321080    -0.0053240
  H       -1.1546351    -2.5179592    -0.8034798
  H       -3.8823240     0.8199580     0.2740310
  H       -3.8253090    -1.7817070    -0.5476340
  H       -2.2212640     2.3282100     1.3272780
  H       -0.4870200     1.9493020     1.2305480
  H       -1.3139190     2.6883760    -0.1607770
  H        0.6536140     1.6152250    -1.2478990
  H        0.8812590    -1.9928010     1.0799670
  H        3.1173860     1.8412050    -1.1464900
  H        3.3610660    -1.8124130     1.1137600
  H        4.4833320     0.1209150     0.0205430
units angstrom
no_reorient  #important for SAPT in psi4, default
symmetry c1  #important for SAPT in psi4, default
}

set PROPERTIES_ORIGIN ["COM"]
properties('MP2/aug-cc-pvtz', properties = ['dipole'])
--------------------------------------------------------------------------

    Molecular point group: c1
  Charge       = 0
  Multiplicity = 1
  Basis Set: AUG-CC-PVTZ
    Blend: AUG-CC-PVTZ
  Basis Set: (AUG-CC-PVTZ AUX)
    Blend: AUG-CC-PVTZ-JKFIT

    Orbital Energies [Eh]
    ---------------------

    Doubly Occupied:

       1A    -15.608281     2A    -11.271082     3A    -11.257424
       4A    -11.250157     5A    -11.249312     6A    -11.240665
       7A    -11.239513     8A    -11.239189     9A    -11.237895
      10A    -11.236933    11A    -11.218491    12A    -11.209180
      13A     -1.299603    14A     -1.155013    15A     -1.072990
      16A     -1.044093    17A     -1.016104    18A     -0.955839
      19A     -0.931765    20A     -0.832977    21A     -0.830400
      22A     -0.766905    23A     -0.741773    24A     -0.708176
      25A     -0.677504    26A     -0.639948    27A     -0.631631
      28A     -0.622167    29A     -0.595366    30A     -0.587046
      31A     -0.569530    32A     -0.564195    33A     -0.538117
      34A     -0.524961    35A     -0.516474    36A     -0.502187
      37A     -0.495105    38A     -0.491513    39A     -0.354074
      40A     -0.340250    41A     -0.335919    42A     -0.275654

  @DF-RHF Final Energy:  -477.53845189499577

   => Energetics <=

    Nuclear Repulsion Energy =            638.5617817179385156
    One-Electron Energy =               -1912.4496600909419612
    Two-Electron Energy =                 796.3494264780075582
    Total Energy =                       -477.5384518949957737
  Basis Set: (AUG-CC-PVTZ AUX)
    Blend: AUG-CC-PVTZ-RI
    Molecular point group: c1

    Geometry (in Angstrom), charge = 0, multiplicity = 1:

       Center              X                  Y                   Z               Mass
    ------------   -----------------  -----------------  -----------------  -----------------
         N           -1.756013517462     0.670438393216     0.206160019388    14.003074004430
         C           -0.861344517462    -0.337692606784    -0.108133980612    12.000000000000
         C            0.592984482538    -0.172750606784    -0.061062980612    12.000000000000
         C           -1.612411517462    -1.461354606784    -0.446823980612    12.000000000000
         C           -3.039342517462     0.201508393216     0.066660019388    12.000000000000
         C           -2.977918517462    -1.120593606784    -0.340718980612    12.000000000000
         C           -1.424146517462     2.005558393216     0.676764019388    12.000000000000
         C            1.239040482538     0.906183393216    -0.689382980612    12.000000000000
         C            1.375806482538    -1.140725606784     0.591142019388    12.000000000000
         C            2.628666482538     1.023029393216    -0.647056980612    12.000000000000
         C            2.766038482538    -1.032980606784     0.613069019388    12.000000000000
         C            3.397013482538     0.053788393216     0.002247019388    12.000000000000
         H           -1.157539617462    -2.496278806784    -0.795908780612     1.007825032230
         H           -3.885228517462     0.841638393216     0.281602019388     1.007825032230
         H           -3.828213517462    -1.760026606784    -0.540062980612     1.007825032230
         H           -2.224168517462     2.349890393216     1.334849019388     1.007825032230
         H           -0.489924517462     1.970982393216     1.238119019388     1.007825032230
         H           -1.316823517462     2.710056393216    -0.153205980612     1.007825032230
         H            0.650709482538     1.636905393216    -1.240327980612     1.007825032230
         H            0.878354482538    -1.971120606784     1.087538019388     1.007825032230
         H            3.114481482538     1.862885393216    -1.138918980612     1.007825032230
         H            3.358161482538    -1.790732606784     1.121331019388     1.007825032230
         H            4.480427482538     0.142595393216     0.028114019388     1.007825032230

  Basis Set: AUG-CC-PVTZ
    Blend: AUG-CC-PVTZ
  Basis Set: (AUG-CC-PVTZ AUX)
    Blend: AUG-CC-PVTZ-JKFIT
	 Reference Energy          =    -477.5384518949957737 [Eh]
	 Singles Energy            =      -0.0000000000000000 [Eh]
	 Same-Spin Energy          =      -0.5393861841528140 [Eh]
	 Opposite-Spin Energy      =      -1.6841826612911905 [Eh]
	 Correlation Energy        =      -2.2235688454440048 [Eh]
	 Total Energy              =    -479.7620207404397661 [Eh]

	 ================> DF-SCS-MP2 Energies <==================
	-----------------------------------------------------------
	 SCS Same-Spin Scale       =       0.3333333333333333 [-]
	 SCS Opposite-Spin Scale   =       1.2000000000000000 [-]
	 SCS Same-Spin Energy      =      -0.1797953947176047 [Eh]
	 SCS Opposite-Spin Energy  =      -2.0210191935494284 [Eh]
	 SCS Correlation Energy    =      -2.2008145882670331 [Eh]
	 SCS Total Energy          =    -479.7392664832627815 [Eh]
	-----------------------------------------------------------

  Dipole Moment: [D]
     X:     0.4520      Y:     1.8782      Z:     0.6841     Total:     2.0494

*** Psi4 exiting successfully. Buy a developer a beer!
