                               Psi4 1.3.2 release

  ==> Input File <==

--------------------------------------------------------------------------
#psi4
#
memory 32 gb

molecule  {
0 1
  N       -1.7531090     0.6487580     0.1985890
  C       -0.8584400    -0.3593730    -0.1157050
  C        0.5958890    -0.1944310    -0.0686340
  C       -1.6095070    -1.4830350    -0.4543950
  C       -3.0364380     0.1798280     0.0590890
  C       -2.9750140    -1.1422740    -0.3482900
  C       -1.4212420     1.9838780     0.6691930
  C        1.2419450     0.8845030    -0.6969540
  C        1.3787110    -1.1624060     0.5835710
  C        2.6315710     1.0013490    -0.6546280
  C        2.7689430    -1.0546610     0.6054980
  C        3.3999180     0.0321080    -0.0053240
  H       -1.2699729    -2.2555427    -0.7149655
  H       -3.8823240     0.8199580     0.2740310
  H       -3.8253090    -1.7817070    -0.5476340
  H       -2.2212640     2.3282100     1.3272780
  H       -0.4870200     1.9493020     1.2305480
  H       -1.3139190     2.6883760    -0.1607770
  H        0.6536140     1.6152250    -1.2478990
  H        0.8812590    -1.9928010     1.0799670
  H        3.1173860     1.8412050    -1.1464900
  H        3.3610660    -1.8124130     1.1137600
  H        4.4833320     0.1209150     0.0205430
units angstrom
no_reorient  #important for SAPT in psi4, default
symmetry c1  #important for SAPT in psi4, default
}

set PROPERTIES_ORIGIN ["COM"]
properties('MP2/aug-cc-pvtz', properties = ['dipole'])
--------------------------------------------------------------------------

    Molecular point group: c1
  Charge       = 0
  Multiplicity = 1
  Basis Set: AUG-CC-PVTZ
    Blend: AUG-CC-PVTZ
  Basis Set: (AUG-CC-PVTZ AUX)
    Blend: AUG-CC-PVTZ-JKFIT

    Orbital Energies [Eh]
    ---------------------

    Doubly Occupied:

       1A    -15.606752     2A    -11.270154     3A    -11.255467
       4A    -11.250322     5A    -11.247445     6A    -11.240916
       7A    -11.239783     8A    -11.239462     9A    -11.238170
      10A    -11.237365    11A    -11.206678    12A    -11.183438
      13A     -1.297941    14A     -1.155312    15A     -1.076511
      16A     -1.043823    17A     -1.016411    18A     -0.958707
      19A     -0.939315    20A     -0.835879    21A     -0.831067
      22A     -0.788787    23A     -0.746336    24A     -0.720185
      25A     -0.678789    26A     -0.641244    27A     -0.633443
      28A     -0.623631    29A     -0.602547    30A     -0.587603
      31A     -0.578623    32A     -0.568443    33A     -0.541130
      34A     -0.533870    35A     -0.523395    36A     -0.502296
      37A     -0.494671    38A     -0.492076    39A     -0.353918
      40A     -0.340462    41A     -0.334696    42A     -0.274602

  @DF-RHF Final Energy:  -477.51025736811164

   => Energetics <=

    Nuclear Repulsion Energy =            640.2060447522594586
    One-Electron Energy =               -1915.5692722382739248
    Two-Electron Energy =                 797.8529701179028280
    Total Energy =                       -477.5102573681116382
  Basis Set: (AUG-CC-PVTZ AUX)
    Blend: AUG-CC-PVTZ-RI
    Molecular point group: c1

    Geometry (in Angstrom), charge = 0, multiplicity = 1:

       Center              X                  Y                   Z               Mass
    ------------   -----------------  -----------------  -----------------  -----------------
         N           -1.755273553419     0.668754827427     0.205592144856    14.003074004430
         C           -0.860604553419    -0.339376172573    -0.108701855144    12.000000000000
         C            0.593724446581    -0.174434172573    -0.061630855144    12.000000000000
         C           -1.611671553419    -1.463038172573    -0.447391855144    12.000000000000
         C           -3.038602553419     0.199824827427     0.066092144856    12.000000000000
         C           -2.977178553419    -1.122277172573    -0.341286855144    12.000000000000
         C           -1.423406553419     2.003874827427     0.676196144856    12.000000000000
         C            1.239780446581     0.904499827427    -0.689950855144    12.000000000000
         C            1.376546446581    -1.142409172573     0.590574144856    12.000000000000
         C            2.629406446581     1.021345827427    -0.647624855144    12.000000000000
         C            2.766778446581    -1.034664172573     0.612501144856    12.000000000000
         C            3.397753446581     0.052104827427     0.001679144856    12.000000000000
         H           -1.272137453419    -2.235545872573    -0.707962355144     1.007825032230
         H           -3.884488553419     0.839954827427     0.281034144856     1.007825032230
         H           -3.827473553419    -1.761710172573    -0.540630855144     1.007825032230
         H           -2.223428553419     2.348206827427     1.334281144856     1.007825032230
         H           -0.489184553419     1.969298827427     1.237551144856     1.007825032230
         H           -1.316083553419     2.708372827427    -0.153773855144     1.007825032230
         H            0.651449446581     1.635221827427    -1.240895855144     1.007825032230
         H            0.879094446581    -1.972804172573     1.086970144856     1.007825032230
         H            3.115221446581     1.861201827427    -1.139486855144     1.007825032230
         H            3.358901446581    -1.792416172573     1.120763144856     1.007825032230
         H            4.481167446581     0.140911827427     0.027546144856     1.007825032230

  Basis Set: AUG-CC-PVTZ
    Blend: AUG-CC-PVTZ
  Basis Set: (AUG-CC-PVTZ AUX)
    Blend: AUG-CC-PVTZ-JKFIT
	 Reference Energy          =    -477.5102573681116382 [Eh]
	 Singles Energy            =      -0.0000000000000000 [Eh]
	 Same-Spin Energy          =      -0.5389629830549162 [Eh]
	 Opposite-Spin Energy      =      -1.6825743057839502 [Eh]
	 Correlation Energy        =      -2.2215372888388663 [Eh]
	 Total Energy              =    -479.7317946569505125 [Eh]

	 ================> DF-SCS-MP2 Energies <==================
	-----------------------------------------------------------
	 SCS Same-Spin Scale       =       0.3333333333333333 [-]
	 SCS Opposite-Spin Scale   =       1.2000000000000000 [-]
	 SCS Same-Spin Energy      =      -0.1796543276849721 [Eh]
	 SCS Opposite-Spin Energy  =      -2.0190891669407400 [Eh]
	 SCS Correlation Energy    =      -2.1987434946257123 [Eh]
	 SCS Total Energy          =    -479.7090008627373550 [Eh]
	-----------------------------------------------------------

  Dipole Moment: [D]
     X:     0.4970      Y:     1.8507      Z:     0.6733     Total:     2.0311

*** Psi4 exiting successfully. Buy a developer a beer!
