                               Psi4 1.3.2 release

  ==> Input File <==

--------------------------------------------------------------------------
#psi4
#
memory 32 gb

molecule  {
0 1
  N       -1.7531090     0.6487580     0.1985890
  C       -0.7870301    -0.2986714    -0.0922900
  C        0.5958890    -0.1944310    -0.0686340
  C       -1.6095070    -1.4830350    -0.4543950
  C       -3.0364380     0.1798280     0.0590890
  C       -2.9750140    -1.1422740    -0.3482900
  C       -1.4212420     1.9838780     0.6691930
  C        1.2419450     0.8845030    -0.6969540
  C        1.3787110    -1.1624060     0.5835710
  C        2.6315710     1.0013490    -0.6546280
  C        2.7689430    -1.0546610     0.6054980
  C        3.3999180     0.0321080    -0.0053240
  H       -1.1930810    -2.4304870    -0.7739750
  H       -3.8823240     0.8199580     0.2740310
  H       -3.8253090    -1.7817070    -0.5476340
  H       -2.2212640     2.3282100     1.3272780
  H       -0.4870200     1.9493020     1.2305480
  H       -1.3139190     2.6883760    -0.1607770
  H        0.6536140     1.6152250    -1.2478990
  H        0.8812590    -1.9928010     1.0799670
  H        3.1173860     1.8412050    -1.1464900
  H        3.3610660    -1.8124130     1.1137600
  H        4.4833320     0.1209150     0.0205430
units angstrom
no_reorient  #important for SAPT in psi4, default
symmetry c1  #important for SAPT in psi4, default
}

set PROPERTIES_ORIGIN ["COM"]
properties('MP2/aug-cc-pvtz', properties = ['dipole'])
--------------------------------------------------------------------------

    Molecular point group: c1
  Charge       = 0
  Multiplicity = 1
  Basis Set: AUG-CC-PVTZ
    Blend: AUG-CC-PVTZ
  Basis Set: (AUG-CC-PVTZ AUX)
    Blend: AUG-CC-PVTZ-JKFIT

    Orbital Energies [Eh]
    ---------------------

    Doubly Occupied:

       1A    -15.614841     2A    -11.269672     3A    -11.260244
       4A    -11.249641     5A    -11.245877     6A    -11.240739
       7A    -11.239974     8A    -11.239224     9A    -11.238300
      10A    -11.237838    11A    -11.216007    12A    -11.211070
      13A     -1.298149    14A     -1.158815    15A     -1.066107
      16A     -1.054760    17A     -1.016778    18A     -0.953430
      19A     -0.930425    20A     -0.842214    21A     -0.832456
      22A     -0.766991    23A     -0.746603    24A     -0.710378
      25A     -0.678970    26A     -0.642258    27A     -0.637281
      28A     -0.623687    29A     -0.599746    30A     -0.587883
      31A     -0.575666    32A     -0.562146    33A     -0.537421
      34A     -0.523214    35A     -0.520233    36A     -0.508137
      37A     -0.493719    38A     -0.487208    39A     -0.356484
      40A     -0.340840    41A     -0.334814    42A     -0.263196

  @DF-RHF Final Energy:  -477.52726746234578

   => Energetics <=

    Nuclear Repulsion Energy =            639.2708961673953354
    One-Electron Energy =               -1913.7694529186692307
    Two-Electron Energy =                 796.9712892889282330
    Total Energy =                       -477.5272674623457760
  Basis Set: (AUG-CC-PVTZ AUX)
    Blend: AUG-CC-PVTZ-RI
    Molecular point group: c1

    Geometry (in Angstrom), charge = 0, multiplicity = 1:

       Center              X                  Y                   Z               Mass
    ------------   -----------------  -----------------  -----------------  -----------------
         N           -1.761221847018     0.665240224684     0.204182061793    14.003074004430
         C           -0.795142947018    -0.282189175316    -0.086696938207    12.000000000000
         C            0.587776152982    -0.177948775316    -0.063040938207    12.000000000000
         C           -1.617619847018    -1.466552775316    -0.448801938207    12.000000000000
         C           -3.044550847018     0.196310224684     0.064682061793    12.000000000000
         C           -2.983126847018    -1.125791775316    -0.342696938207    12.000000000000
         C           -1.429354847018     2.000360224684     0.674786061793    12.000000000000
         C            1.233832152982     0.900985224684    -0.691360938207    12.000000000000
         C            1.370598152982    -1.145923775316     0.589164061793    12.000000000000
         C            2.623458152982     1.017831224684    -0.649034938207    12.000000000000
         C            2.760830152982    -1.038178775316     0.611091061793    12.000000000000
         C            3.391805152982     0.048590224684     0.000269061793    12.000000000000
         H           -1.201193847018    -2.414004775316    -0.768381938207     1.007825032230
         H           -3.890436847018     0.836440224684     0.279624061793     1.007825032230
         H           -3.833421847018    -1.765224775316    -0.542040938207     1.007825032230
         H           -2.229376847018     2.344692224684     1.332871061793     1.007825032230
         H           -0.495132847018     1.965784224684     1.236141061793     1.007825032230
         H           -1.322031847018     2.704858224684    -0.155183938207     1.007825032230
         H            0.645501152982     1.631707224684    -1.242305938207     1.007825032230
         H            0.873146152982    -1.976318775316     1.085560061793     1.007825032230
         H            3.109273152982     1.857687224684    -1.140896938207     1.007825032230
         H            3.352953152982    -1.795930775316     1.119353061793     1.007825032230
         H            4.475219152982     0.137397224684     0.026136061793     1.007825032230

  Basis Set: AUG-CC-PVTZ
    Blend: AUG-CC-PVTZ
  Basis Set: (AUG-CC-PVTZ AUX)
    Blend: AUG-CC-PVTZ-JKFIT
	 Reference Energy          =    -477.5272674623457760 [Eh]
	 Singles Energy            =      -0.0000000000000000 [Eh]
	 Same-Spin Energy          =      -0.5421893181592475 [Eh]
	 Opposite-Spin Energy      =      -1.6875889996986941 [Eh]
	 Correlation Energy        =      -2.2297783178579418 [Eh]
	 Total Energy              =    -479.7570457802037254 [Eh]

	 ================> DF-SCS-MP2 Energies <==================
	-----------------------------------------------------------
	 SCS Same-Spin Scale       =       0.3333333333333333 [-]
	 SCS Opposite-Spin Scale   =       1.2000000000000000 [-]
	 SCS Same-Spin Energy      =      -0.1807297727197492 [Eh]
	 SCS Opposite-Spin Energy  =      -2.0251067996384329 [Eh]
	 SCS Correlation Energy    =      -2.2058365723581819 [Eh]
	 SCS Total Energy          =    -479.7331040347039561 [Eh]
	-----------------------------------------------------------

  Dipole Moment: [D]
     X:     0.3315      Y:     1.8976      Z:     0.6874     Total:     2.0454

*** Psi4 exiting successfully. Buy a developer a beer!
