                               Psi4 1.3.2 release

  ==> Input File <==

--------------------------------------------------------------------------
#psi4
#
memory 32 gb

molecule  {
0 1
  N       -1.7709596     0.6910425     0.2124284
  C       -0.8584400    -0.3593730    -0.1157050
  C        0.5958890    -0.1944310    -0.0686340
  C       -1.6095070    -1.4830350    -0.4543950
  C       -3.0364380     0.1798280     0.0590890
  C       -2.9750140    -1.1422740    -0.3482900
  C       -1.4212420     1.9838780     0.6691930
  C        1.2419450     0.8845030    -0.6969540
  C        1.3787110    -1.1624060     0.5835710
  C        2.6315710     1.0013490    -0.6546280
  C        2.7689430    -1.0546610     0.6054980
  C        3.3999180     0.0321080    -0.0053240
  H       -1.1930810    -2.4304870    -0.7739750
  H       -3.8823240     0.8199580     0.2740310
  H       -3.8253090    -1.7817070    -0.5476340
  H       -2.2212640     2.3282100     1.3272780
  H       -0.4870200     1.9493020     1.2305480
  H       -1.3139190     2.6883760    -0.1607770
  H        0.6536140     1.6152250    -1.2478990
  H        0.8812590    -1.9928010     1.0799670
  H        3.1173860     1.8412050    -1.1464900
  H        3.3610660    -1.8124130     1.1137600
  H        4.4833320     0.1209150     0.0205430
units angstrom
no_reorient  #important for SAPT in psi4, default
symmetry c1  #important for SAPT in psi4, default
}

set PROPERTIES_ORIGIN ["COM"]
properties('MP2/aug-cc-pvtz', properties = ['dipole'])
--------------------------------------------------------------------------

    Molecular point group: c1
  Charge       = 0
  Multiplicity = 1
  Basis Set: AUG-CC-PVTZ
    Blend: AUG-CC-PVTZ
  Basis Set: (AUG-CC-PVTZ AUX)
    Blend: AUG-CC-PVTZ-JKFIT

    Orbital Energies [Eh]
    ---------------------

    Doubly Occupied:

       1A    -15.606170     2A    -11.266543     3A    -11.259542
       4A    -11.252792     5A    -11.249840     6A    -11.240321
       7A    -11.239204     8A    -11.238846     9A    -11.237603
      10A    -11.236749    11A    -11.212309    12A    -11.209015
      13A     -1.293761    14A     -1.154907    15A     -1.080918
      16A     -1.042923    17A     -1.015882    18A     -0.953101
      19A     -0.932154    20A     -0.832548    21A     -0.830117
      22A     -0.769376    23A     -0.745066    24A     -0.712842
      25A     -0.677123    26A     -0.640448    27A     -0.631409
      28A     -0.623503    29A     -0.597849    30A     -0.586916
      31A     -0.580777    32A     -0.562906    33A     -0.537438
      34A     -0.525841    35A     -0.518871    36A     -0.500328
      37A     -0.494993    38A     -0.490543    39A     -0.355133
      40A     -0.339980    41A     -0.335718    42A     -0.274690

  @DF-RHF Final Energy:  -477.54202702153253

   => Energetics <=

    Nuclear Repulsion Energy =            638.4143294704218761
    One-Electron Energy =               -1912.1387185301684895
    Two-Electron Energy =                 796.1823620382139097
    Total Energy =                       -477.5420270215325900
  Basis Set: (AUG-CC-PVTZ AUX)
    Blend: AUG-CC-PVTZ-RI
    Molecular point group: c1

    Geometry (in Angstrom), charge = 0, multiplicity = 1:

       Center              X                  Y                   Z               Mass
    ------------   -----------------  -----------------  -----------------  -----------------
         N           -1.772026243780     0.708392424445     0.218576470577    14.003074004430
         C           -0.859506643780    -0.342023075555    -0.109556929423    12.000000000000
         C            0.594822356220    -0.177081075555    -0.062485929423    12.000000000000
         C           -1.610573643780    -1.465685075555    -0.448246929423    12.000000000000
         C           -3.037504643780     0.197177924445     0.065237070577    12.000000000000
         C           -2.976080643780    -1.124924075555    -0.342141929423    12.000000000000
         C           -1.422308643780     2.001227924445     0.675341070577    12.000000000000
         C            1.240878356220     0.901852924445    -0.690805929423    12.000000000000
         C            1.377644356220    -1.145056075555     0.589719070577    12.000000000000
         C            2.630504356220     1.018698924445    -0.648479929423    12.000000000000
         C            2.767876356220    -1.037311075555     0.611646070577    12.000000000000
         C            3.398851356220     0.049457924445     0.000824070577    12.000000000000
         H           -1.194147643780    -2.413137075555    -0.767826929423     1.007825032230
         H           -3.883390643780     0.837307924445     0.280179070577     1.007825032230
         H           -3.826375643780    -1.764357075555    -0.541485929423     1.007825032230
         H           -2.222330643780     2.345559924445     1.333426070577     1.007825032230
         H           -0.488086643780     1.966651924445     1.236696070577     1.007825032230
         H           -1.314985643780     2.705725924445    -0.154628929423     1.007825032230
         H            0.652547356220     1.632574924445    -1.241750929423     1.007825032230
         H            0.880192356220    -1.975451075555     1.086115070577     1.007825032230
         H            3.116319356220     1.858554924445    -1.140341929423     1.007825032230
         H            3.359999356220    -1.795063075555     1.119908070577     1.007825032230
         H            4.482265356220     0.138264924445     0.026691070577     1.007825032230

  Basis Set: AUG-CC-PVTZ
    Blend: AUG-CC-PVTZ
  Basis Set: (AUG-CC-PVTZ AUX)
    Blend: AUG-CC-PVTZ-JKFIT
	 Reference Energy          =    -477.5420270215325331 [Eh]
	 Singles Energy            =      -0.0000000000000000 [Eh]
	 Same-Spin Energy          =      -0.5393190239456656 [Eh]
	 Opposite-Spin Energy      =      -1.6838447022172005 [Eh]
	 Correlation Energy        =      -2.2231637261628663 [Eh]
	 Total Energy              =    -479.7651907476953852 [Eh]

	 ================> DF-SCS-MP2 Energies <==================
	-----------------------------------------------------------
	 SCS Same-Spin Scale       =       0.3333333333333333 [-]
	 SCS Opposite-Spin Scale   =       1.2000000000000000 [-]
	 SCS Same-Spin Energy      =      -0.1797730079818885 [Eh]
	 SCS Opposite-Spin Energy  =      -2.0206136426606407 [Eh]
	 SCS Correlation Energy    =      -2.2003866506425291 [Eh]
	 SCS Total Energy          =    -479.7424136721750756 [Eh]
	-----------------------------------------------------------

  Dipole Moment: [D]
     X:     0.4587      Y:     1.7169      Z:     0.6331     Total:     1.8865

*** Psi4 exiting successfully. Buy a developer a beer!
