                               Psi4 1.4a3.dev225

  ==> Input File <==

--------------------------------------------------------------------------
#psi4
#
memory 32 gb

molecule  {
0 1
  N       -1.7531090     0.6487580     0.1985890
  C       -0.8584400    -0.3593730    -0.1157050
  C        0.5958890    -0.1944310    -0.0686340
  C       -1.6095070    -1.4830350    -0.4543950
  C       -3.0364380     0.1798280     0.0590890
  C       -2.9727962    -1.1900100    -0.3629989
  C       -1.4212420     1.9838780     0.6691930
  C        1.2419450     0.8845030    -0.6969540
  C        1.3787110    -1.1624060     0.5835710
  C        2.6315710     1.0013490    -0.6546280
  C        2.7689430    -1.0546610     0.6054980
  C        3.3999180     0.0321080    -0.0053240
  H       -1.1930810    -2.4304870    -0.7739750
  H       -3.8823240     0.8199580     0.2740310
  H       -3.8253090    -1.7817070    -0.5476340
  H       -2.2212640     2.3282100     1.3272780
  H       -0.4870200     1.9493020     1.2305480
  H       -1.3139190     2.6883760    -0.1607770
  H        0.6536140     1.6152250    -1.2478990
  H        0.8812590    -1.9928010     1.0799670
  H        3.1173860     1.8412050    -1.1464900
  H        3.3610660    -1.8124130     1.1137600
  H        4.4833320     0.1209150     0.0205430
units angstrom
no_reorient  #important for SAPT in psi4, default
symmetry c1  #important for SAPT in psi4, default
}

set PROPERTIES_ORIGIN ["COM"]
properties('MP2/aug-cc-pvtz', properties = ['dipole'])
--------------------------------------------------------------------------

    Molecular point group: c1
  Charge       = 0
  Multiplicity = 1
  Basis Set: AUG-CC-PVTZ
    Blend: AUG-CC-PVTZ
  Basis Set: (AUG-CC-PVTZ AUX)
    Blend: AUG-CC-PVTZ-JKFIT

    Orbital Energies [Eh]
    ---------------------

    Doubly Occupied:

       1A    -15.612349     2A    -11.272101     3A    -11.255139
       4A    -11.254201     5A    -11.250128     6A    -11.240465
       7A    -11.239254     8A    -11.238966     9A    -11.237582
      10A    -11.236638    11A    -11.210644    12A    -11.207973
      13A     -1.298609    14A     -1.154755    15A     -1.073324
      16A     -1.042047    17A     -1.015901    18A     -0.952359
      19A     -0.937260    20A     -0.831992    21A     -0.830375
      22A     -0.773635    23A     -0.742835    24A     -0.713345
      25A     -0.677631    26A     -0.640251    27A     -0.632001
      28A     -0.623213    29A     -0.599132    30A     -0.586942
      31A     -0.572802    32A     -0.568141    33A     -0.544711
      34A     -0.524529    35A     -0.516830    36A     -0.501872
      37A     -0.496073    38A     -0.491342    39A     -0.353568
      40A     -0.340304    41A     -0.336968    42A     -0.269870

  @DF-RHF Final Energy:  -477.54101092764313

   => Energetics <=

    Nuclear Repulsion Energy =            638.3974044952357190
    One-Electron Energy =               -1912.0807166052795765
    Two-Electron Energy =                 796.1423011824008427
    Total Energy =                       -477.5410109276431285
  Basis Set: (AUG-CC-PVTZ AUX)
    Blend: AUG-CC-PVTZ-RI
    Molecular point group: c1

    Geometry (in Angstrom), charge = 0, multiplicity = 1:

       Center              X                  Y                   Z               Mass
    ------------   -----------------  -----------------  -----------------  -----------------
         N           -1.755936280170     0.673523745254     0.207094336778    14.003074004430
         C           -0.861267280170    -0.334607254746    -0.107199663222    12.000000000000
         C            0.593061719830    -0.169665254746    -0.060128663222    12.000000000000
         C           -1.612334280170    -1.458269254746    -0.445889663222    12.000000000000
         C           -3.039265280170     0.204593745254     0.067594336778    12.000000000000
         C           -2.975623480170    -1.165244254746    -0.354493563222    12.000000000000
         C           -1.424069280170     2.008643745254     0.677698336778    12.000000000000
         C            1.239117719830     0.909268745254    -0.688448663222    12.000000000000
         C            1.375883719830    -1.137640254746     0.592076336778    12.000000000000
         C            2.628743719830     1.026114745254    -0.646122663222    12.000000000000
         C            2.766115719830    -1.029895254746     0.614003336778    12.000000000000
         C            3.397090719830     0.056873745254     0.003181336778    12.000000000000
         H           -1.195908280170    -2.405721254746    -0.765469663222     1.007825032230
         H           -3.885151280170     0.844723745254     0.282536336778     1.007825032230
         H           -3.828136280170    -1.756941254746    -0.539128663222     1.007825032230
         H           -2.224091280170     2.352975745254     1.335783336778     1.007825032230
         H           -0.489847280170     1.974067745254     1.239053336778     1.007825032230
         H           -1.316746280170     2.713141745254    -0.152271663222     1.007825032230
         H            0.650786719830     1.639990745254    -1.239393663222     1.007825032230
         H            0.878431719830    -1.968035254746     1.088472336778     1.007825032230
         H            3.114558719830     1.865970745254    -1.137984663222     1.007825032230
         H            3.358238719830    -1.787647254746     1.122265336778     1.007825032230
         H            4.480504719830     0.145680745254     0.029048336778     1.007825032230

  Basis Set: AUG-CC-PVTZ
    Blend: AUG-CC-PVTZ
  Basis Set: (AUG-CC-PVTZ AUX)
    Blend: AUG-CC-PVTZ-JKFIT
	 Reference Energy          =    -477.5410109276431285 [Eh]
	 Singles Energy            =      -0.0000000000000000 [Eh]
	 Same-Spin Energy          =      -0.5399575058950130 [Eh]
	 Opposite-Spin Energy      =      -1.6845558239871505 [Eh]
	 Correlation Energy        =      -2.2245133298821633 [Eh]
	 Total Energy              =    -479.7655242575252714 [Eh]

	 ================> DF-SCS-MP2 Energies <==================
	-----------------------------------------------------------
	 SCS Same-Spin Scale       =       0.3333333333333333 [-]
	 SCS Opposite-Spin Scale   =       1.2000000000000000 [-]
	 SCS Same-Spin Energy      =      -0.1799858352983377 [Eh]
	 SCS Opposite-Spin Energy  =      -2.0214669887845806 [Eh]
	 SCS Correlation Energy    =      -2.2014528240829181 [Eh]
	 SCS Total Energy          =    -479.7424637517260635 [Eh]
	-----------------------------------------------------------

  Dipole Moment: [D]
     X:     0.4791      Y:     1.8822      Z:     0.6845     Total:     2.0593

*** Psi4 exiting successfully. Buy a developer a beer!
