                               Psi4 1.4a3.dev225

  ==> Input File <==

--------------------------------------------------------------------------
#psi4
#
memory 32 gb

molecule  {
0 1
  N       -1.7531090     0.6487580     0.1985890
  C       -0.8584400    -0.3593730    -0.1157050
  C        0.5958890    -0.1944310    -0.0686340
  C       -1.6095070    -1.4830350    -0.4543950
  C       -3.0364380     0.1798280     0.0590890
  C       -2.9741269    -1.1613684    -0.3541736
  C       -1.4212420     1.9838780     0.6691930
  C        1.2419450     0.8845030    -0.6969540
  C        1.3787110    -1.1624060     0.5835710
  C        2.6315710     1.0013490    -0.6546280
  C        2.7689430    -1.0546610     0.6054980
  C        3.3999180     0.0321080    -0.0053240
  H       -1.1930810    -2.4304870    -0.7739750
  H       -3.8823240     0.8199580     0.2740310
  H       -3.8253090    -1.7817070    -0.5476340
  H       -2.2212640     2.3282100     1.3272780
  H       -0.4870200     1.9493020     1.2305480
  H       -1.3139190     2.6883760    -0.1607770
  H        0.6536140     1.6152250    -1.2478990
  H        0.8812590    -1.9928010     1.0799670
  H        3.1173860     1.8412050    -1.1464900
  H        3.3610660    -1.8124130     1.1137600
  H        4.4833320     0.1209150     0.0205430
units angstrom
no_reorient  #important for SAPT in psi4, default
symmetry c1  #important for SAPT in psi4, default
}

set PROPERTIES_ORIGIN ["COM"]
properties('MP2/aug-cc-pvtz', properties = ['dipole'])
--------------------------------------------------------------------------

    Molecular point group: c1
  Charge       = 0
  Multiplicity = 1
  Basis Set: AUG-CC-PVTZ
    Blend: AUG-CC-PVTZ
  Basis Set: (AUG-CC-PVTZ AUX)
    Blend: AUG-CC-PVTZ-JKFIT

    Orbital Energies [Eh]
    ---------------------

    Doubly Occupied:

       1A    -15.609505     2A    -11.271243     3A    -11.255935
       4A    -11.250881     5A    -11.250154     6A    -11.240618
       7A    -11.239441     8A    -11.239144     9A    -11.237808
      10A    -11.236888    11A    -11.209251    12A    -11.207360
      13A     -1.298733    14A     -1.154945    15A     -1.073310
      16A     -1.043149    17A     -1.016070    18A     -0.954451
      19A     -0.934933    20A     -0.832737    21A     -0.830527
      22A     -0.771795    23A     -0.743039    24A     -0.712768
      25A     -0.677774    26A     -0.640092    27A     -0.632022
      28A     -0.622748    29A     -0.597580    30A     -0.587084
      31A     -0.570758    32A     -0.568163    33A     -0.540727
      34A     -0.525368    35A     -0.522272    36A     -0.502066
      37A     -0.495442    38A     -0.491634    39A     -0.353737
      40A     -0.340260    41A     -0.335972    42A     -0.273022

  @DF-RHF Final Energy:  -477.54470913335251

   => Energetics <=

    Nuclear Repulsion Energy =            638.7828112171796420
    One-Electron Energy =               -1912.8722257679835366
    Two-Electron Energy =                 796.5447054174513823
    Total Energy =                       -477.5447091333525123
  Basis Set: (AUG-CC-PVTZ AUX)
    Blend: AUG-CC-PVTZ-RI
    Molecular point group: c1

    Geometry (in Angstrom), charge = 0, multiplicity = 1:

       Center              X                  Y                   Z               Mass
    ------------   -----------------  -----------------  -----------------  -----------------
         N           -1.755834628337     0.671335820745     0.206420174365    14.003074004430
         C           -0.861165628337    -0.336795179255    -0.107873825635    12.000000000000
         C            0.593163371663    -0.171853179255    -0.060802825635    12.000000000000
         C           -1.612232628337    -1.460457179255    -0.446563825635    12.000000000000
         C           -3.039163628337     0.202405820745     0.066920174365    12.000000000000
         C           -2.976852528337    -1.138790579255    -0.346342425635    12.000000000000
         C           -1.423967628337     2.006455820745     0.677024174365    12.000000000000
         C            1.239219371663     0.907080820745    -0.689122825635    12.000000000000
         C            1.375985371663    -1.139828179255     0.591402174365    12.000000000000
         C            2.628845371663     1.023926820745    -0.646796825635    12.000000000000
         C            2.766217371663    -1.032083179255     0.613329174365    12.000000000000
         C            3.397192371663     0.054685820745     0.002507174365    12.000000000000
         H           -1.195806628337    -2.407909179255    -0.766143825635     1.007825032230
         H           -3.885049628337     0.842535820745     0.281862174365     1.007825032230
         H           -3.828034628337    -1.759129179255    -0.539802825635     1.007825032230
         H           -2.223989628337     2.350787820745     1.335109174365     1.007825032230
         H           -0.489745628337     1.971879820745     1.238379174365     1.007825032230
         H           -1.316644628337     2.710953820745    -0.152945825635     1.007825032230
         H            0.650888371663     1.637802820745    -1.240067825635     1.007825032230
         H            0.878533371663    -1.970223179255     1.087798174365     1.007825032230
         H            3.114660371663     1.863782820745    -1.138658825635     1.007825032230
         H            3.358340371663    -1.789835179255     1.121591174365     1.007825032230
         H            4.480606371663     0.143492820745     0.028374174365     1.007825032230

  Basis Set: AUG-CC-PVTZ
    Blend: AUG-CC-PVTZ
  Basis Set: (AUG-CC-PVTZ AUX)
    Blend: AUG-CC-PVTZ-JKFIT
	 Reference Energy          =    -477.5447091333525123 [Eh]
	 Singles Energy            =      -0.0000000000000000 [Eh]
	 Same-Spin Energy          =      -0.5394812708151001 [Eh]
	 Opposite-Spin Energy      =      -1.6837269223180522 [Eh]
	 Correlation Energy        =      -2.2232081931331522 [Eh]
	 Total Energy              =    -479.7679173264856445 [Eh]

	 ================> DF-SCS-MP2 Energies <==================
	-----------------------------------------------------------
	 SCS Same-Spin Scale       =       0.3333333333333333 [-]
	 SCS Opposite-Spin Scale   =       1.2000000000000000 [-]
	 SCS Same-Spin Energy      =      -0.1798270902717000 [Eh]
	 SCS Opposite-Spin Energy  =      -2.0204723067816626 [Eh]
	 SCS Correlation Energy    =      -2.2002993970533624 [Eh]
	 SCS Total Energy          =    -479.7450085304058689 [Eh]
	-----------------------------------------------------------

  Dipole Moment: [D]
     X:     0.4731      Y:     1.8686      Z:     0.6800     Total:     2.0440

*** Psi4 exiting successfully. Buy a developer a beer!
