                               Psi4 1.3.2 release

  ==> Input File <==

--------------------------------------------------------------------------
#psi4
#
memory 32 gb

molecule  {
0 1
  N       -1.7894161     0.6182166     0.1894890
  C       -0.8584400    -0.3593730    -0.1157050
  C        0.5958890    -0.1944310    -0.0686340
  C       -1.6095070    -1.4830350    -0.4543950
  C       -3.0364380     0.1798280     0.0590890
  C       -2.9750140    -1.1422740    -0.3482900
  C       -1.4212420     1.9838780     0.6691930
  C        1.2419450     0.8845030    -0.6969540
  C        1.3787110    -1.1624060     0.5835710
  C        2.6315710     1.0013490    -0.6546280
  C        2.7689430    -1.0546610     0.6054980
  C        3.3999180     0.0321080    -0.0053240
  H       -1.1930810    -2.4304870    -0.7739750
  H       -3.8823240     0.8199580     0.2740310
  H       -3.8253090    -1.7817070    -0.5476340
  H       -2.2212640     2.3282100     1.3272780
  H       -0.4870200     1.9493020     1.2305480
  H       -1.3139190     2.6883760    -0.1607770
  H        0.6536140     1.6152250    -1.2478990
  H        0.8812590    -1.9928010     1.0799670
  H        3.1173860     1.8412050    -1.1464900
  H        3.3610660    -1.8124130     1.1137600
  H        4.4833320     0.1209150     0.0205430
units angstrom
no_reorient  #important for SAPT in psi4, default
symmetry c1  #important for SAPT in psi4, default
}

set PROPERTIES_ORIGIN ["COM"]
properties('MP2/aug-cc-pvtz', properties = ['dipole'])
--------------------------------------------------------------------------

    Molecular point group: c1
  Charge       = 0
  Multiplicity = 1
  Basis Set: AUG-CC-PVTZ
    Blend: AUG-CC-PVTZ
  Basis Set: (AUG-CC-PVTZ AUX)
    Blend: AUG-CC-PVTZ-JKFIT

    Orbital Energies [Eh]
    ---------------------

    Doubly Occupied:

       1A    -15.609387     2A    -11.274986     3A    -11.252391
       4A    -11.250761     5A    -11.245545     6A    -11.240523
       7A    -11.239351     8A    -11.239021     9A    -11.237685
      10A    -11.236827    11A    -11.206607    12A    -11.203116
      13A     -1.306538    14A     -1.155174    15A     -1.066685
      16A     -1.045008    17A     -1.015960    18A     -0.959788
      19A     -0.934424    20A     -0.833385    21A     -0.830409
      22A     -0.772481    23A     -0.741326    24A     -0.711271
      25A     -0.679378    26A     -0.639760    27A     -0.633288
      28A     -0.621925    29A     -0.595878    30A     -0.587091
      31A     -0.575265    32A     -0.557697    33A     -0.537634
      34A     -0.529364    35A     -0.527610    36A     -0.503267
      37A     -0.494823    38A     -0.492020    39A     -0.355306
      40A     -0.339952    41A     -0.333516    42A     -0.274296

  @DF-RHF Final Energy:  -477.54326923219935

   => Energetics <=

    Nuclear Repulsion Energy =            639.1968909331117175
    One-Electron Energy =               -1913.7068840344140881
    Two-Electron Energy =                 796.9667238691030207
    Total Energy =                       -477.5432692321993500
  Basis Set: (AUG-CC-PVTZ AUX)
    Blend: AUG-CC-PVTZ-RI
    Molecular point group: c1

    Geometry (in Angstrom), charge = 0, multiplicity = 1:

       Center              X                  Y                   Z               Mass
    ------------   -----------------  -----------------  -----------------  -----------------
         N           -1.788837514072     0.642058293426     0.197681910192    14.003074004430
         C           -0.857861414072    -0.335531306574    -0.107512089808    12.000000000000
         C            0.596467585928    -0.170589306574    -0.060441089808    12.000000000000
         C           -1.608928414072    -1.459193306574    -0.446202089808    12.000000000000
         C           -3.035859414072     0.203669693426     0.067281910192    12.000000000000
         C           -2.974435414072    -1.118432306574    -0.340097089808    12.000000000000
         C           -1.420663414072     2.007719693426     0.677385910192    12.000000000000
         C            1.242523585928     0.908344693426    -0.688761089808    12.000000000000
         C            1.379289585928    -1.138564306574     0.591763910192    12.000000000000
         C            2.632149585928     1.025190693426    -0.646435089808    12.000000000000
         C            2.769521585928    -1.030819306574     0.613690910192    12.000000000000
         C            3.400496585928     0.055949693426     0.002868910192    12.000000000000
         H           -1.192502414072    -2.406645306574    -0.765782089808     1.007825032230
         H           -3.881745414072     0.843799693426     0.282223910192     1.007825032230
         H           -3.824730414072    -1.757865306574    -0.539441089808     1.007825032230
         H           -2.220685414072     2.352051693426     1.335470910192     1.007825032230
         H           -0.486441414072     1.973143693426     1.238740910192     1.007825032230
         H           -1.313340414072     2.712217693426    -0.152584089808     1.007825032230
         H            0.654192585928     1.639066693426    -1.239706089808     1.007825032230
         H            0.881837585928    -1.968959306574     1.088159910192     1.007825032230
         H            3.117964585928     1.865046693426    -1.138297089808     1.007825032230
         H            3.361644585928    -1.788571306574     1.121952910192     1.007825032230
         H            4.483910585928     0.144756693426     0.028735910192     1.007825032230

  Basis Set: AUG-CC-PVTZ
    Blend: AUG-CC-PVTZ
  Basis Set: (AUG-CC-PVTZ AUX)
    Blend: AUG-CC-PVTZ-JKFIT
	 Reference Energy          =    -477.5432692321993500 [Eh]
	 Singles Energy            =      -0.0000000000000000 [Eh]
	 Same-Spin Energy          =      -0.5392744740633459 [Eh]
	 Opposite-Spin Energy      =      -1.6829415807519630 [Eh]
	 Correlation Energy        =      -2.2222160548153091 [Eh]
	 Total Energy              =    -479.7654852870146556 [Eh]

	 ================> DF-SCS-MP2 Energies <==================
	-----------------------------------------------------------
	 SCS Same-Spin Scale       =       0.3333333333333333 [-]
	 SCS Opposite-Spin Scale   =       1.2000000000000000 [-]
	 SCS Same-Spin Energy      =      -0.1797581580211153 [Eh]
	 SCS Opposite-Spin Energy  =      -2.0195298969023554 [Eh]
	 SCS Correlation Energy    =      -2.1992880549234708 [Eh]
	 SCS Total Energy          =    -479.7425572871227928 [Eh]
	-----------------------------------------------------------

  Dipole Moment: [D]
     X:     0.5140      Y:     2.0052      Z:     0.7208     Total:     2.1920

*** Psi4 exiting successfully. Buy a developer a beer!
