                               Psi4 1.3.2 release

  ==> Input File <==

--------------------------------------------------------------------------
#psi4
#
memory 32 gb

molecule  {
0 1
  N       -1.7531090     0.6487580     0.1985890
  C       -0.8584400    -0.3593730    -0.1157050
  C        0.4965773    -0.2056944    -0.0718483
  C       -1.6095070    -1.4830350    -0.4543950
  C       -3.0364380     0.1798280     0.0590890
  C       -2.9750140    -1.1422740    -0.3482900
  C       -1.4212420     1.9838780     0.6691930
  C        1.2419450     0.8845030    -0.6969540
  C        1.3787110    -1.1624060     0.5835710
  C        2.6315710     1.0013490    -0.6546280
  C        2.7689430    -1.0546610     0.6054980
  C        3.3999180     0.0321080    -0.0053240
  H       -1.1930810    -2.4304870    -0.7739750
  H       -3.8823240     0.8199580     0.2740310
  H       -3.8253090    -1.7817070    -0.5476340
  H       -2.2212640     2.3282100     1.3272780
  H       -0.4870200     1.9493020     1.2305480
  H       -1.3139190     2.6883760    -0.1607770
  H        0.6536140     1.6152250    -1.2478990
  H        0.8812590    -1.9928010     1.0799670
  H        3.1173860     1.8412050    -1.1464900
  H        3.3610660    -1.8124130     1.1137600
  H        4.4833320     0.1209150     0.0205430
units angstrom
no_reorient  #important for SAPT in psi4, default
symmetry c1  #important for SAPT in psi4, default
}

set PROPERTIES_ORIGIN ["COM"]
properties('MP2/aug-cc-pvtz', properties = ['dipole'])
--------------------------------------------------------------------------

    Molecular point group: c1
  Charge       = 0
  Multiplicity = 1
  Basis Set: AUG-CC-PVTZ
    Blend: AUG-CC-PVTZ
  Basis Set: (AUG-CC-PVTZ AUX)
    Blend: AUG-CC-PVTZ-JKFIT

    Orbital Energies [Eh]
    ---------------------

    Doubly Occupied:

       1A    -15.609482     2A    -11.271372     3A    -11.252924
       4A    -11.252472     5A    -11.250874     6A    -11.244580
       7A    -11.241853     8A    -11.239380     9A    -11.238321
      10A    -11.237272    11A    -11.211514    12A    -11.210313
      13A     -1.302944    14A     -1.146249    15A     -1.077520
      16A     -1.053497    17A     -1.010395    18A     -0.954423
      19A     -0.935236    20A     -0.843216    21A     -0.823922
      22A     -0.773794    23A     -0.744913    24A     -0.714243
      25A     -0.680219    26A     -0.641775    27A     -0.634529
      28A     -0.617927    29A     -0.596843    30A     -0.580744
      31A     -0.571972    32A     -0.571671    33A     -0.541717
      34A     -0.529960    35A     -0.526263    36A     -0.510815
      37A     -0.490957    38A     -0.476237    39A     -0.354593
      40A     -0.339383    41A     -0.336153    42A     -0.269049

  @DF-RHF Final Energy:  -477.52820392563495

   => Energetics <=

    Nuclear Repulsion Energy =            639.2335778717723542
    One-Electron Energy =               -1913.7005299930192450
    Two-Electron Energy =                 796.9387481956118791
    Total Energy =                       -477.5282039256348980
  Basis Set: (AUG-CC-PVTZ AUX)
    Blend: AUG-CC-PVTZ-RI
    Molecular point group: c1

    Geometry (in Angstrom), charge = 0, multiplicity = 1:

       Center              X                  Y                   Z               Mass
    ------------   -----------------  -----------------  -----------------  -----------------
         N           -1.748180467595     0.670737612655     0.206216267220    14.003074004430
         C           -0.853511467595    -0.337393387345    -0.108077732780    12.000000000000
         C            0.501505832405    -0.183714787345    -0.064221032780    12.000000000000
         C           -1.604578467595    -1.461055387345    -0.446767732780    12.000000000000
         C           -3.031509467595     0.201807612655     0.066716267220    12.000000000000
         C           -2.970085467595    -1.120294387345    -0.340662732780    12.000000000000
         C           -1.416313467595     2.005857612655     0.676820267220    12.000000000000
         C            1.246873532405     0.906482612655    -0.689326732780    12.000000000000
         C            1.383639532405    -1.140426387345     0.591198267220    12.000000000000
         C            2.636499532405     1.023328612655    -0.647000732780    12.000000000000
         C            2.773871532405    -1.032681387345     0.613125267220    12.000000000000
         C            3.404846532405     0.054087612655     0.002303267220    12.000000000000
         H           -1.188152467595    -2.408507387345    -0.766347732780     1.007825032230
         H           -3.877395467595     0.841937612655     0.281658267220     1.007825032230
         H           -3.820380467595    -1.759727387345    -0.540006732780     1.007825032230
         H           -2.216335467595     2.350189612655     1.334905267220     1.007825032230
         H           -0.482091467595     1.971281612655     1.238175267220     1.007825032230
         H           -1.308990467595     2.710355612655    -0.153149732780     1.007825032230
         H            0.658542532405     1.637204612655    -1.240271732780     1.007825032230
         H            0.886187532405    -1.970821387345     1.087594267220     1.007825032230
         H            3.122314532405     1.863184612655    -1.138862732780     1.007825032230
         H            3.365994532405    -1.790433387345     1.121387267220     1.007825032230
         H            4.488260532405     0.142894612655     0.028170267220     1.007825032230

  Basis Set: AUG-CC-PVTZ
    Blend: AUG-CC-PVTZ
  Basis Set: (AUG-CC-PVTZ AUX)
    Blend: AUG-CC-PVTZ-JKFIT
	 Reference Energy          =    -477.5282039256349549 [Eh]
	 Singles Energy            =      -0.0000000000000000 [Eh]
	 Same-Spin Energy          =      -0.5414316328450127 [Eh]
	 Opposite-Spin Energy      =      -1.6865846165757339 [Eh]
	 Correlation Energy        =      -2.2280162494207465 [Eh]
	 Total Energy              =    -479.7562201750557165 [Eh]

	 ================> DF-SCS-MP2 Energies <==================
	-----------------------------------------------------------
	 SCS Same-Spin Scale       =       0.3333333333333333 [-]
	 SCS Opposite-Spin Scale   =       1.2000000000000000 [-]
	 SCS Same-Spin Energy      =      -0.1804772109483376 [Eh]
	 SCS Opposite-Spin Energy  =      -2.0239015398908804 [Eh]
	 SCS Correlation Energy    =      -2.2043787508392181 [Eh]
	 SCS Total Energy          =    -479.7325826764741805 [Eh]
	-----------------------------------------------------------

  Dipole Moment: [D]
     X:     0.1484      Y:     1.8344      Z:     0.6602     Total:     1.9552

*** Psi4 exiting successfully. Buy a developer a beer!
