                               Psi4 1.4a3.dev225

  ==> Input File <==

--------------------------------------------------------------------------
#psi4
#
memory 32 gb

molecule  {
0 1
  N       -1.7531090     0.6487580     0.1985890
  C       -0.8584400    -0.3593730    -0.1157050
  C        0.6455448    -0.1887993    -0.0670268
  C       -1.6095070    -1.4830350    -0.4543950
  C       -3.0364380     0.1798280     0.0590890
  C       -2.9750140    -1.1422740    -0.3482900
  C       -1.4212420     1.9838780     0.6691930
  C        1.2419450     0.8845030    -0.6969540
  C        1.3787110    -1.1624060     0.5835710
  C        2.6315710     1.0013490    -0.6546280
  C        2.7689430    -1.0546610     0.6054980
  C        3.3999180     0.0321080    -0.0053240
  H       -1.1930810    -2.4304870    -0.7739750
  H       -3.8823240     0.8199580     0.2740310
  H       -3.8253090    -1.7817070    -0.5476340
  H       -2.2212640     2.3282100     1.3272780
  H       -0.4870200     1.9493020     1.2305480
  H       -1.3139190     2.6883760    -0.1607770
  H        0.6536140     1.6152250    -1.2478990
  H        0.8812590    -1.9928010     1.0799670
  H        3.1173860     1.8412050    -1.1464900
  H        3.3610660    -1.8124130     1.1137600
  H        4.4833320     0.1209150     0.0205430
units angstrom
no_reorient  #important for SAPT in psi4, default
symmetry c1  #important for SAPT in psi4, default
}

set PROPERTIES_ORIGIN ["COM"]
properties('MP2/aug-cc-pvtz', properties = ['dipole'])
--------------------------------------------------------------------------

    Molecular point group: c1
  Charge       = 0
  Multiplicity = 1
  Basis Set: AUG-CC-PVTZ
    Blend: AUG-CC-PVTZ
  Basis Set: (AUG-CC-PVTZ AUX)
    Blend: AUG-CC-PVTZ-JKFIT

    Orbital Energies [Eh]
    ---------------------

    Doubly Occupied:

       1A    -15.606626     2A    -11.270296     3A    -11.258091
       4A    -11.249015     5A    -11.246877     6A    -11.241027
       7A    -11.239873     8A    -11.237911     9A    -11.237301
      10A    -11.235075    11A    -11.207158    12A    -11.205340
      13A     -1.297078    14A     -1.160338    15A     -1.071775
      16A     -1.040565    17A     -1.019587    18A     -0.955782
      19A     -0.932487    20A     -0.834101    21A     -0.829312
      22A     -0.769322    23A     -0.741950    24A     -0.711748
      25A     -0.676192    26A     -0.639441    27A     -0.631547
      28A     -0.625337    29A     -0.596749    30A     -0.589708
      31A     -0.568575    32A     -0.566422    33A     -0.536789
      34A     -0.526011    35A     -0.522710    36A     -0.504260
      37A     -0.498251    38A     -0.488010    39A     -0.354222
      40A     -0.341412    41A     -0.334429    42A     -0.276991

  @DF-RHF Final Energy:  -477.54457149162874

   => Energetics <=

    Nuclear Repulsion Energy =            639.0234186342895555
    One-Electron Energy =               -1913.3845979205464118
    Two-Electron Energy =                 796.8166077946281121
    Total Energy =                       -477.5445714916287443
  Basis Set: (AUG-CC-PVTZ AUX)
    Blend: AUG-CC-PVTZ-RI
    Molecular point group: c1

    Geometry (in Angstrom), charge = 0, multiplicity = 1:

       Center              X                  Y                   Z               Mass
    ------------   -----------------  -----------------  -----------------  -----------------
         N           -1.759560056875     0.669447000281     0.205847954066    14.003074004430
         C           -0.864891056875    -0.338683999719    -0.108446045934    12.000000000000
         C            0.639093743125    -0.168110299719    -0.059767845934    12.000000000000
         C           -1.615958056875    -1.462345999719    -0.447136045934    12.000000000000
         C           -3.042889056875     0.200517000281     0.066347954066    12.000000000000
         C           -2.981465056875    -1.121584999719    -0.341031045934    12.000000000000
         C           -1.427693056875     2.004567000281     0.676451954066    12.000000000000
         C            1.235493943125     0.905192000281    -0.689695045934    12.000000000000
         C            1.372259943125    -1.141716999719     0.590829954066    12.000000000000
         C            2.625119943125     1.022038000281    -0.647369045934    12.000000000000
         C            2.762491943125    -1.033971999719     0.612756954066    12.000000000000
         C            3.393466943125     0.052797000281     0.001934954066    12.000000000000
         H           -1.199532056875    -2.409797999719    -0.766716045934     1.007825032230
         H           -3.888775056875     0.840647000281     0.281289954066     1.007825032230
         H           -3.831760056875    -1.761017999719    -0.540375045934     1.007825032230
         H           -2.227715056875     2.348899000281     1.334536954066     1.007825032230
         H           -0.493471056875     1.969991000281     1.237806954066     1.007825032230
         H           -1.320370056875     2.709065000281    -0.153518045934     1.007825032230
         H            0.647162943125     1.635914000281    -1.240640045934     1.007825032230
         H            0.874807943125    -1.972111999719     1.087225954066     1.007825032230
         H            3.110934943125     1.861894000281    -1.139231045934     1.007825032230
         H            3.354614943125    -1.791723999719     1.121018954066     1.007825032230
         H            4.476880943125     0.141604000281     0.027801954066     1.007825032230

  Basis Set: AUG-CC-PVTZ
    Blend: AUG-CC-PVTZ
  Basis Set: (AUG-CC-PVTZ AUX)
    Blend: AUG-CC-PVTZ-JKFIT
	 Reference Energy          =    -477.5445714916287443 [Eh]
	 Singles Energy            =      -0.0000000000000000 [Eh]
	 Same-Spin Energy          =      -0.5385380069099986 [Eh]
	 Opposite-Spin Energy      =      -1.6823320300666320 [Eh]
	 Correlation Energy        =      -2.2208700369766308 [Eh]
	 Total Energy              =    -479.7654415286053791 [Eh]

	 ================> DF-SCS-MP2 Energies <==================
	-----------------------------------------------------------
	 SCS Same-Spin Scale       =       0.3333333333333333 [-]
	 SCS Opposite-Spin Scale   =       1.2000000000000000 [-]
	 SCS Same-Spin Energy      =      -0.1795126689699995 [Eh]
	 SCS Opposite-Spin Energy  =      -2.0187984360799582 [Eh]
	 SCS Correlation Energy    =      -2.1983111050499580 [Eh]
	 SCS Total Energy          =    -479.7428825966787258 [Eh]
	-----------------------------------------------------------

  Dipole Moment: [D]
     X:     0.6066      Y:     1.8687      Z:     0.6833     Total:     2.0801

*** Psi4 exiting successfully. Buy a developer a beer!
