                               Psi4 1.3.2 release

  ==> Input File <==

--------------------------------------------------------------------------
#psi4
#
memory 32 gb

molecule  {
0 1
  N       -1.7531090     0.6487580     0.1985890
  C       -0.7869583    -0.2971956    -0.0968195
  C        0.5958890    -0.1944310    -0.0686340
  C       -1.6095070    -1.4830350    -0.4543950
  C       -3.0364380     0.1798280     0.0590890
  C       -2.9750140    -1.1422740    -0.3482900
  C       -1.4212420     1.9838780     0.6691930
  C        1.2419450     0.8845030    -0.6969540
  C        1.3787110    -1.1624060     0.5835710
  C        2.6315710     1.0013490    -0.6546280
  C        2.7689430    -1.0546610     0.6054980
  C        3.3999180     0.0321080    -0.0053240
  H       -1.1930810    -2.4304870    -0.7739750
  H       -3.8823240     0.8199580     0.2740310
  H       -3.8253090    -1.7817070    -0.5476340
  H       -2.2212640     2.3282100     1.3272780
  H       -0.4870200     1.9493020     1.2305480
  H       -1.3139190     2.6883760    -0.1607770
  H        0.6536140     1.6152250    -1.2478990
  H        0.8812590    -1.9928010     1.0799670
  H        3.1173860     1.8412050    -1.1464900
  H        3.3610660    -1.8124130     1.1137600
  H        4.4833320     0.1209150     0.0205430
units angstrom
no_reorient  #important for SAPT in psi4, default
symmetry c1  #important for SAPT in psi4, default
}

set PROPERTIES_ORIGIN ["COM"]
properties('MP2/aug-cc-pvtz', properties = ['dipole'])
--------------------------------------------------------------------------

    Molecular point group: c1
  Charge       = 0
  Multiplicity = 1
  Basis Set: AUG-CC-PVTZ
    Blend: AUG-CC-PVTZ
  Basis Set: (AUG-CC-PVTZ AUX)
    Blend: AUG-CC-PVTZ-JKFIT

    Orbital Energies [Eh]
    ---------------------

    Doubly Occupied:

       1A    -15.614857     2A    -11.269673     3A    -11.260233
       4A    -11.249625     5A    -11.245857     6A    -11.240724
       7A    -11.240004     8A    -11.239203     9A    -11.238339
      10A    -11.237889    11A    -11.215971    12A    -11.211053
      13A     -1.298139    14A     -1.158829    15A     -1.066081
      16A     -1.054780    17A     -1.016791    18A     -0.953423
      19A     -0.930414    20A     -0.842230    21A     -0.832466
      22A     -0.766966    23A     -0.746606    24A     -0.710371
      25A     -0.678979    26A     -0.642310    27A     -0.637252
      28A     -0.623666    29A     -0.599809    30A     -0.587902
      31A     -0.575666    32A     -0.562125    33A     -0.537403
      34A     -0.523228    35A     -0.520204    36A     -0.508081
      37A     -0.493815    38A     -0.487121    39A     -0.356470
      40A     -0.340846    41A     -0.334787    42A     -0.263213

  @DF-RHF Final Energy:  -477.52721247294011

   => Energetics <=

    Nuclear Repulsion Energy =            639.2708609989969091
    One-Electron Energy =               -1913.7693471655688882
    Two-Electron Energy =                 796.9712736936320425
    Total Energy =                       -477.5272124729400502
  Basis Set: (AUG-CC-PVTZ AUX)
    Blend: AUG-CC-PVTZ-RI
    Molecular point group: c1

    Geometry (in Angstrom), charge = 0, multiplicity = 1:

       Center              X                  Y                   Z               Mass
    ------------   -----------------  -----------------  -----------------  -----------------
         N           -1.761227331802     0.665127488699     0.204528069142    14.003074004430
         C           -0.795076631802    -0.280826111301    -0.090880430858    12.000000000000
         C            0.587770668198    -0.178061511301    -0.062694930858    12.000000000000
         C           -1.617625331802    -1.466665511301    -0.448455930858    12.000000000000
         C           -3.044556331802     0.196197488699     0.065028069142    12.000000000000
         C           -2.983132331802    -1.125904511301    -0.342350930858    12.000000000000
         C           -1.429360331802     2.000247488699     0.675132069142    12.000000000000
         C            1.233826668198     0.900872488699    -0.691014930858    12.000000000000
         C            1.370592668198    -1.146036511301     0.589510069142    12.000000000000
         C            2.623452668198     1.017718488699    -0.648688930858    12.000000000000
         C            2.760824668198    -1.038291511301     0.611437069142    12.000000000000
         C            3.391799668198     0.048477488699     0.000615069142    12.000000000000
         H           -1.201199331802    -2.414117511301    -0.768035930858     1.007825032230
         H           -3.890442331802     0.836327488699     0.279970069142     1.007825032230
         H           -3.833427331802    -1.765337511301    -0.541694930858     1.007825032230
         H           -2.229382331802     2.344579488699     1.333217069142     1.007825032230
         H           -0.495138331802     1.965671488699     1.236487069142     1.007825032230
         H           -1.322037331802     2.704745488699    -0.154837930858     1.007825032230
         H            0.645495668198     1.631594488699    -1.241959930858     1.007825032230
         H            0.873140668198    -1.976431511301     1.085906069142     1.007825032230
         H            3.109267668198     1.857574488699    -1.140550930858     1.007825032230
         H            3.352947668198    -1.796043511301     1.119699069142     1.007825032230
         H            4.475213668198     0.137284488699     0.026482069142     1.007825032230

  Basis Set: AUG-CC-PVTZ
    Blend: AUG-CC-PVTZ
  Basis Set: (AUG-CC-PVTZ AUX)
    Blend: AUG-CC-PVTZ-JKFIT
	 Reference Energy          =    -477.5272124729401071 [Eh]
	 Singles Energy            =      -0.0000000000000000 [Eh]
	 Same-Spin Energy          =      -0.5421934704774465 [Eh]
	 Opposite-Spin Energy      =      -1.6875950130715602 [Eh]
	 Correlation Energy        =      -2.2297884835490067 [Eh]
	 Total Energy              =    -479.7570009564890938 [Eh]

	 ================> DF-SCS-MP2 Energies <==================
	-----------------------------------------------------------
	 SCS Same-Spin Scale       =       0.3333333333333333 [-]
	 SCS Opposite-Spin Scale   =       1.2000000000000000 [-]
	 SCS Same-Spin Energy      =      -0.1807311568258155 [Eh]
	 SCS Opposite-Spin Energy  =      -2.0251140156858720 [Eh]
	 SCS Correlation Energy    =      -2.2058451725116877 [Eh]
	 SCS Total Energy          =    -479.7330576454518223 [Eh]
	-----------------------------------------------------------

  Dipole Moment: [D]
     X:     0.3340      Y:     1.8976      Z:     0.6894     Total:     2.0464

*** Psi4 exiting successfully. Buy a developer a beer!
