                               Psi4 1.3.2 release

  ==> Input File <==

--------------------------------------------------------------------------
#psi4
#
memory 32 gb

molecule  {
0 1
  N       -1.7531090     0.6487580     0.1985890
  C       -0.7784039    -0.4122048    -0.1318751
  C        0.5958890    -0.1944310    -0.0686340
  C       -1.6095070    -1.4830350    -0.4543950
  C       -3.0364380     0.1798280     0.0590890
  C       -2.9750140    -1.1422740    -0.3482900
  C       -1.4212420     1.9838780     0.6691930
  C        1.2419450     0.8845030    -0.6969540
  C        1.3787110    -1.1624060     0.5835710
  C        2.6315710     1.0013490    -0.6546280
  C        2.7689430    -1.0546610     0.6054980
  C        3.3999180     0.0321080    -0.0053240
  H       -1.1930810    -2.4304870    -0.7739750
  H       -3.8823240     0.8199580     0.2740310
  H       -3.8253090    -1.7817070    -0.5476340
  H       -2.2212640     2.3282100     1.3272780
  H       -0.4870200     1.9493020     1.2305480
  H       -1.3139190     2.6883760    -0.1607770
  H        0.6536140     1.6152250    -1.2478990
  H        0.8812590    -1.9928010     1.0799670
  H        3.1173860     1.8412050    -1.1464900
  H        3.3610660    -1.8124130     1.1137600
  H        4.4833320     0.1209150     0.0205430
units angstrom
no_reorient  #important for SAPT in psi4, default
symmetry c1  #important for SAPT in psi4, default
}

set PROPERTIES_ORIGIN ["COM"]
properties('MP2/aug-cc-pvtz', properties = ['dipole'])
--------------------------------------------------------------------------

    Molecular point group: c1
  Charge       = 0
  Multiplicity = 1
  Basis Set: AUG-CC-PVTZ
    Blend: AUG-CC-PVTZ
  Basis Set: (AUG-CC-PVTZ AUX)
    Blend: AUG-CC-PVTZ-JKFIT

    Orbital Energies [Eh]
    ---------------------

    Doubly Occupied:

       1A    -15.601835     2A    -11.265474     3A    -11.257261
       4A    -11.256097     5A    -11.245582     6A    -11.241501
       7A    -11.240386     8A    -11.239557     9A    -11.238449
      10A    -11.237162    11A    -11.214985    12A    -11.207343
      13A     -1.276450    14A     -1.158579    15A     -1.071895
      16A     -1.051469    17A     -1.016847    18A     -0.954211
      19A     -0.924127    20A     -0.841142    21A     -0.832095
      22A     -0.762843    23A     -0.747481    24A     -0.707710
      25A     -0.678428    26A     -0.638344    27A     -0.632624
      28A     -0.620348    29A     -0.596627    30A     -0.587528
      31A     -0.574207    32A     -0.557461    33A     -0.543146
      34A     -0.520542    35A     -0.518256    36A     -0.504746
      37A     -0.496124    38A     -0.489086    39A     -0.360179
      40A     -0.340562    41A     -0.332202    42A     -0.272191

  @DF-RHF Final Energy:  -477.53074286248449

   => Energetics <=

    Nuclear Repulsion Energy =            638.6110702838938096
    One-Electron Energy =               -1912.5774604472917417
    Two-Electron Energy =                 796.4356473009136153
    Total Energy =                       -477.5307428624844306
  Basis Set: (AUG-CC-PVTZ AUX)
    Blend: AUG-CC-PVTZ-RI
    Molecular point group: c1

    Geometry (in Angstrom), charge = 0, multiplicity = 1:

       Center              X                  Y                   Z               Mass
    ------------   -----------------  -----------------  -----------------  -----------------
         N           -1.761880800233     0.673913012115     0.207205957473    14.003074004430
         C           -0.787175700233    -0.387049787885    -0.123258142527    12.000000000000
         C            0.587117199767    -0.169275987885    -0.060017042527    12.000000000000
         C           -1.618278800233    -1.457879987885    -0.445778042527    12.000000000000
         C           -3.045209800233     0.204983012115     0.067705957473    12.000000000000
         C           -2.983785800233    -1.117118987885    -0.339673042527    12.000000000000
         C           -1.430013800233     2.009033012115     0.677809957473    12.000000000000
         C            1.233173199767     0.909658012115    -0.688337042527    12.000000000000
         C            1.369939199767    -1.137250987885     0.592187957473    12.000000000000
         C            2.622799199767     1.026504012115    -0.646011042527    12.000000000000
         C            2.760171199767    -1.029505987885     0.614114957473    12.000000000000
         C            3.391146199767     0.057263012115     0.003292957473    12.000000000000
         H           -1.201852800233    -2.405331987885    -0.765358042527     1.007825032230
         H           -3.891095800233     0.845113012115     0.282647957473     1.007825032230
         H           -3.834080800233    -1.756551987885    -0.539017042527     1.007825032230
         H           -2.230035800233     2.353365012115     1.335894957473     1.007825032230
         H           -0.495791800233     1.974457012115     1.239164957473     1.007825032230
         H           -1.322690800233     2.713531012115    -0.152160042527     1.007825032230
         H            0.644842199767     1.640380012115    -1.239282042527     1.007825032230
         H            0.872487199767    -1.967645987885     1.088583957473     1.007825032230
         H            3.108614199767     1.866360012115    -1.137873042527     1.007825032230
         H            3.352294199767    -1.787257987885     1.122376957473     1.007825032230
         H            4.474560199767     0.146070012115     0.029159957473     1.007825032230

  Basis Set: AUG-CC-PVTZ
    Blend: AUG-CC-PVTZ
  Basis Set: (AUG-CC-PVTZ AUX)
    Blend: AUG-CC-PVTZ-JKFIT
	 Reference Energy          =    -477.5307428624844874 [Eh]
	 Singles Energy            =      -0.0000000000000000 [Eh]
	 Same-Spin Energy          =      -0.5406766415071718 [Eh]
	 Opposite-Spin Energy      =      -1.6863391617423655 [Eh]
	 Correlation Energy        =      -2.2270158032495373 [Eh]
	 Total Energy              =    -479.7577586657340021 [Eh]

	 ================> DF-SCS-MP2 Energies <==================
	-----------------------------------------------------------
	 SCS Same-Spin Scale       =       0.3333333333333333 [-]
	 SCS Opposite-Spin Scale   =       1.2000000000000000 [-]
	 SCS Same-Spin Energy      =      -0.1802255471690573 [Eh]
	 SCS Opposite-Spin Energy  =      -2.0236069940908386 [Eh]
	 SCS Correlation Energy    =      -2.2038325412598958 [Eh]
	 SCS Total Energy          =    -479.7345754037443726 [Eh]
	-----------------------------------------------------------

  Dipole Moment: [D]
     X:     0.5181      Y:     1.7417      Z:     0.6250     Total:     1.9216

*** Psi4 exiting successfully. Buy a developer a beer!
