                               Psi4 1.3.2 release

  ==> Input File <==

--------------------------------------------------------------------------
#psi4
#
memory 32 gb

molecule  {
0 1
  N       -1.7531090     0.6487580     0.1985890
  C       -0.8584400    -0.3593730    -0.1157050
  C        0.5958890    -0.1944310    -0.0686340
  C       -1.6095070    -1.4830350    -0.4543950
  C       -3.1807101     0.1665568     0.0546185
  C       -2.9750140    -1.1422740    -0.3482900
  C       -1.4212420     1.9838780     0.6691930
  C        1.2419450     0.8845030    -0.6969540
  C        1.3787110    -1.1624060     0.5835710
  C        2.6315710     1.0013490    -0.6546280
  C        2.7689430    -1.0546610     0.6054980
  C        3.3999180     0.0321080    -0.0053240
  H       -1.1930810    -2.4304870    -0.7739750
  H       -3.8823240     0.8199580     0.2740310
  H       -3.8253090    -1.7817070    -0.5476340
  H       -2.2212640     2.3282100     1.3272780
  H       -0.4870200     1.9493020     1.2305480
  H       -1.3139190     2.6883760    -0.1607770
  H        0.6536140     1.6152250    -1.2478990
  H        0.8812590    -1.9928010     1.0799670
  H        3.1173860     1.8412050    -1.1464900
  H        3.3610660    -1.8124130     1.1137600
  H        4.4833320     0.1209150     0.0205430
units angstrom
no_reorient  #important for SAPT in psi4, default
symmetry c1  #important for SAPT in psi4, default
}

set PROPERTIES_ORIGIN ["COM"]
properties('MP2/aug-cc-pvtz', properties = ['dipole'])
--------------------------------------------------------------------------

    Molecular point group: c1
  Charge       = 0
  Multiplicity = 1
  Basis Set: AUG-CC-PVTZ
    Blend: AUG-CC-PVTZ
  Basis Set: (AUG-CC-PVTZ AUX)
    Blend: AUG-CC-PVTZ-JKFIT

    Orbital Energies [Eh]
    ---------------------

    Doubly Occupied:

       1A    -15.598942     2A    -11.267548     3A    -11.263161
       4A    -11.252777     5A    -11.248720     6A    -11.243247
       7A    -11.242237     8A    -11.241615     9A    -11.240890
      10A    -11.240130    11A    -11.220370    12A    -11.205326
      13A     -1.266664    14A     -1.156624    15A     -1.067394
      16A     -1.044232    17A     -1.018518    18A     -0.961045
      19A     -0.919120    20A     -0.840280    21A     -0.832339
      22A     -0.775014    23A     -0.744869    24A     -0.705816
      25A     -0.679800    26A     -0.641287    27A     -0.631205
      28A     -0.618317    29A     -0.598873    30A     -0.588926
      31A     -0.576998    32A     -0.554757    33A     -0.550163
      34A     -0.516658    35A     -0.512696    36A     -0.498193
      37A     -0.497097    38A     -0.489098    39A     -0.354572
      40A     -0.342086    41A     -0.332990    42A     -0.279413

  @DF-RHF Final Energy:  -477.51931838353187

   => Energetics <=

    Nuclear Repulsion Energy =            635.9392484289256799
    One-Electron Energy =               -1907.1971117190703353
    Two-Electron Energy =                 793.7385449066126739
    Total Energy =                       -477.5193183835318678
  Basis Set: (AUG-CC-PVTZ AUX)
    Blend: AUG-CC-PVTZ-RI
    Molecular point group: c1

    Geometry (in Angstrom), charge = 0, multiplicity = 1:

       Center              X                  Y                   Z               Mass
    ------------   -----------------  -----------------  -----------------  -----------------
         N           -1.744745954122     0.670890987984     0.206312228017    14.003074004430
         C           -0.850076954122    -0.337240012016    -0.107981771983    12.000000000000
         C            0.604252045878    -0.172298012016    -0.060910771983    12.000000000000
         C           -1.601143954122    -1.460902012016    -0.446671771983    12.000000000000
         C           -3.172347054122     0.188689787984     0.062341728017    12.000000000000
         C           -2.966650954122    -1.120141012016    -0.340566771983    12.000000000000
         C           -1.412878954122     2.006010987984     0.676916228017    12.000000000000
         C            1.250308045878     0.906635987984    -0.689230771983    12.000000000000
         C            1.387074045878    -1.140273012016     0.591294228017    12.000000000000
         C            2.639934045878     1.023481987984    -0.646904771983    12.000000000000
         C            2.777306045878    -1.032528012016     0.613221228017    12.000000000000
         C            3.408281045878     0.054240987984     0.002399228017    12.000000000000
         H           -1.184717954122    -2.408354012016    -0.766251771983     1.007825032230
         H           -3.873960954122     0.842090987984     0.281754228017     1.007825032230
         H           -3.816945954122    -1.759574012016    -0.539910771983     1.007825032230
         H           -2.212900954122     2.350342987984     1.335001228017     1.007825032230
         H           -0.478656954122     1.971434987984     1.238271228017     1.007825032230
         H           -1.305555954122     2.710508987984    -0.153053771983     1.007825032230
         H            0.661977045878     1.637357987984    -1.240175771983     1.007825032230
         H            0.889622045878    -1.970668012016     1.087690228017     1.007825032230
         H            3.125749045878     1.863337987984    -1.138766771983     1.007825032230
         H            3.369429045878    -1.790280012016     1.121483228017     1.007825032230
         H            4.491695045878     0.143047987984     0.028266228017     1.007825032230

  Basis Set: AUG-CC-PVTZ
    Blend: AUG-CC-PVTZ
  Basis Set: (AUG-CC-PVTZ AUX)
    Blend: AUG-CC-PVTZ-JKFIT
	 Reference Energy          =    -477.5193183835318678 [Eh]
	 Singles Energy            =      -0.0000000000000000 [Eh]
	 Same-Spin Energy          =      -0.5392038986311989 [Eh]
	 Opposite-Spin Energy      =      -1.6858272971317430 [Eh]
	 Correlation Energy        =      -2.2250311957629418 [Eh]
	 Total Energy              =    -479.7443495792948056 [Eh]

	 ================> DF-SCS-MP2 Energies <==================
	-----------------------------------------------------------
	 SCS Same-Spin Scale       =       0.3333333333333333 [-]
	 SCS Opposite-Spin Scale   =       1.2000000000000000 [-]
	 SCS Same-Spin Energy      =      -0.1797346328770663 [Eh]
	 SCS Opposite-Spin Energy  =      -2.0229927565580916 [Eh]
	 SCS Correlation Energy    =      -2.2027273894351578 [Eh]
	 SCS Total Energy          =    -479.7220457729670215 [Eh]
	-----------------------------------------------------------

  Dipole Moment: [D]
     X:     0.5486      Y:     1.6998      Z:     0.6238     Total:     1.8919

*** Psi4 exiting successfully. Buy a developer a beer!
