                               Psi4 1.3.2 release

  ==> Input File <==

--------------------------------------------------------------------------
#psi4
#
memory 32 gb

molecule  {
0 1
  N       -1.7531090     0.6487580     0.1985890
  C       -0.8584400    -0.3593730    -0.1157050
  C        0.5958890    -0.1944310    -0.0686340
  C       -1.5556034    -1.4023905    -0.4300874
  C       -3.0364380     0.1798280     0.0590890
  C       -2.9750140    -1.1422740    -0.3482900
  C       -1.4212420     1.9838780     0.6691930
  C        1.2419450     0.8845030    -0.6969540
  C        1.3787110    -1.1624060     0.5835710
  C        2.6315710     1.0013490    -0.6546280
  C        2.7689430    -1.0546610     0.6054980
  C        3.3999180     0.0321080    -0.0053240
  H       -1.1930810    -2.4304870    -0.7739750
  H       -3.8823240     0.8199580     0.2740310
  H       -3.8253090    -1.7817070    -0.5476340
  H       -2.2212640     2.3282100     1.3272780
  H       -0.4870200     1.9493020     1.2305480
  H       -1.3139190     2.6883760    -0.1607770
  H        0.6536140     1.6152250    -1.2478990
  H        0.8812590    -1.9928010     1.0799670
  H        3.1173860     1.8412050    -1.1464900
  H        3.3610660    -1.8124130     1.1137600
  H        4.4833320     0.1209150     0.0205430
units angstrom
no_reorient  #important for SAPT in psi4, default
symmetry c1  #important for SAPT in psi4, default
}

set PROPERTIES_ORIGIN ["COM"]
properties('MP2/aug-cc-pvtz', properties = ['dipole'])
--------------------------------------------------------------------------

    Molecular point group: c1
  Charge       = 0
  Multiplicity = 1
  Basis Set: AUG-CC-PVTZ
    Blend: AUG-CC-PVTZ
  Basis Set: (AUG-CC-PVTZ AUX)
    Blend: AUG-CC-PVTZ-JKFIT

    Orbital Energies [Eh]
    ---------------------

    Doubly Occupied:

       1A    -15.598815     2A    -11.268017     3A    -11.251625
       4A    -11.249814     5A    -11.244425     6A    -11.240681
       7A    -11.239582     8A    -11.239240     9A    -11.238051
      10A    -11.237173    11A    -11.208047    12A    -11.203268
      13A     -1.301384    14A     -1.155251    15A     -1.078241
      16A     -1.044241    17A     -1.016161    18A     -0.964627
      19A     -0.926070    20A     -0.833691    21A     -0.830950
      22A     -0.774401    23A     -0.739805    24A     -0.709506
      25A     -0.678420    26A     -0.639799    27A     -0.631593
      28A     -0.621819    29A     -0.595582    30A     -0.587035
      31A     -0.574772    32A     -0.564208    33A     -0.541833
      34A     -0.529050    35A     -0.511525    36A     -0.501827
      37A     -0.493314    38A     -0.489305    39A     -0.357893
      40A     -0.339860    41A     -0.330399    42A     -0.287164

  @DF-RHF Final Energy:  -477.53613934180191

   => Energetics <=

    Nuclear Repulsion Energy =            641.0086528473165117
    One-Electron Energy =               -1917.3526610110945967
    Two-Electron Energy =                 798.8078688219762853
    Total Energy =                       -477.5361393418019134
  Basis Set: (AUG-CC-PVTZ AUX)
    Blend: AUG-CC-PVTZ-RI
    Molecular point group: c1

    Geometry (in Angstrom), charge = 0, multiplicity = 1:

       Center              X                  Y                   Z               Mass
    ------------   -----------------  -----------------  -----------------  -----------------
         N           -1.759884545232     0.663716791647     0.204113876307    14.003074004430
         C           -0.865215545232    -0.344414208353    -0.110180123693    12.000000000000
         C            0.589113454768    -0.179472208353    -0.063109123693    12.000000000000
         C           -1.562378945232    -1.387431708353    -0.424562523693    12.000000000000
         C           -3.043213545232     0.194786791647     0.064613876307    12.000000000000
         C           -2.981789545232    -1.127315208353    -0.342765123693    12.000000000000
         C           -1.428017545232     1.998836791647     0.674717876307    12.000000000000
         C            1.235169454768     0.899461791647    -0.691429123693    12.000000000000
         C            1.371935454768    -1.147447208353     0.589095876307    12.000000000000
         C            2.624795454768     1.016307791647    -0.649103123693    12.000000000000
         C            2.762167454768    -1.039702208353     0.611022876307    12.000000000000
         C            3.393142454768     0.047066791647     0.000200876307    12.000000000000
         H           -1.199856545232    -2.415528208353    -0.768450123693     1.007825032230
         H           -3.889099545232     0.834916791647     0.279555876307     1.007825032230
         H           -3.832084545232    -1.766748208353    -0.542109123693     1.007825032230
         H           -2.228039545232     2.343168791647     1.332802876307     1.007825032230
         H           -0.493795545232     1.964260791647     1.236072876307     1.007825032230
         H           -1.320694545232     2.703334791647    -0.155252123693     1.007825032230
         H            0.646838454768     1.630183791647    -1.242374123693     1.007825032230
         H            0.874483454768    -1.977842208353     1.085491876307     1.007825032230
         H            3.110610454768     1.856163791647    -1.140965123693     1.007825032230
         H            3.354290454768    -1.797454208353     1.119284876307     1.007825032230
         H            4.476556454768     0.135873791647     0.026067876307     1.007825032230

  Basis Set: AUG-CC-PVTZ
    Blend: AUG-CC-PVTZ
  Basis Set: (AUG-CC-PVTZ AUX)
    Blend: AUG-CC-PVTZ-JKFIT
	 Reference Energy          =    -477.5361393418019134 [Eh]
	 Singles Energy            =      -0.0000000000000000 [Eh]
	 Same-Spin Energy          =      -0.5376412443105872 [Eh]
	 Opposite-Spin Energy      =      -1.6813586998822290 [Eh]
	 Correlation Energy        =      -2.2189999441928161 [Eh]
	 Total Energy              =    -479.7551392859947441 [Eh]

	 ================> DF-SCS-MP2 Energies <==================
	-----------------------------------------------------------
	 SCS Same-Spin Scale       =       0.3333333333333333 [-]
	 SCS Opposite-Spin Scale   =       1.2000000000000000 [-]
	 SCS Same-Spin Energy      =      -0.1792137481035291 [Eh]
	 SCS Opposite-Spin Energy  =      -2.0176304398586749 [Eh]
	 SCS Correlation Energy    =      -2.1968441879622040 [Eh]
	 SCS Total Energy          =    -479.7329835297641125 [Eh]
	-----------------------------------------------------------

  Dipole Moment: [D]
     X:     0.5255      Y:     1.7857      Z:     0.6603     Total:     1.9751

*** Psi4 exiting successfully. Buy a developer a beer!
