                               Psi4 1.3.2 release

  ==> Input File <==

--------------------------------------------------------------------------
#psi4
#
memory 32 gb

molecule  {
0 1
  N       -1.7531090     0.6487580     0.1985890
  C       -0.8401470    -0.3442777    -0.1111237
  C        0.5958890    -0.1944310    -0.0686340
  C       -1.6095070    -1.4830350    -0.4543950
  C       -3.0364380     0.1798280     0.0590890
  C       -2.9750140    -1.1422740    -0.3482900
  C       -1.4212420     1.9838780     0.6691930
  C        1.2419450     0.8845030    -0.6969540
  C        1.3787110    -1.1624060     0.5835710
  C        2.6315710     1.0013490    -0.6546280
  C        2.7689430    -1.0546610     0.6054980
  C        3.3999180     0.0321080    -0.0053240
  H       -1.1930810    -2.4304870    -0.7739750
  H       -3.8823240     0.8199580     0.2740310
  H       -3.8253090    -1.7817070    -0.5476340
  H       -2.2212640     2.3282100     1.3272780
  H       -0.4870200     1.9493020     1.2305480
  H       -1.3139190     2.6883760    -0.1607770
  H        0.6536140     1.6152250    -1.2478990
  H        0.8812590    -1.9928010     1.0799670
  H        3.1173860     1.8412050    -1.1464900
  H        3.3610660    -1.8124130     1.1137600
  H        4.4833320     0.1209150     0.0205430
units angstrom
no_reorient  #important for SAPT in psi4, default
symmetry c1  #important for SAPT in psi4, default
}

set PROPERTIES_ORIGIN ["COM"]
properties('MP2/aug-cc-pvtz', properties = ['dipole'])
--------------------------------------------------------------------------

    Molecular point group: c1
  Charge       = 0
  Multiplicity = 1
  Basis Set: AUG-CC-PVTZ
    Blend: AUG-CC-PVTZ
  Basis Set: (AUG-CC-PVTZ AUX)
    Blend: AUG-CC-PVTZ-JKFIT

    Orbital Energies [Eh]
    ---------------------

    Doubly Occupied:

       1A    -15.609356     2A    -11.270396     3A    -11.257435
       4A    -11.249182     5A    -11.248770     6A    -11.240752
       7A    -11.239674     8A    -11.239316     9A    -11.238084
      10A    -11.237307    11A    -11.209838    12A    -11.208509
      13A     -1.298560    14A     -1.155939    15A     -1.071132
      16A     -1.046590    17A     -1.016363    18A     -0.955238
      19A     -0.932610    20A     -0.835449    21A     -0.831084
      22A     -0.769649    23A     -0.744060    24A     -0.711859
      25A     -0.678207    26A     -0.640469    27A     -0.633250
      28A     -0.622807    29A     -0.597427    30A     -0.587382
      31A     -0.570897    32A     -0.566658    33A     -0.537880
      34A     -0.526006    35A     -0.523038    36A     -0.503680
      37A     -0.494900    38A     -0.491530    39A     -0.354525
      40A     -0.340433    41A     -0.335070    42A     -0.272241

  @DF-RHF Final Energy:  -477.54366789026068

   => Energetics <=

    Nuclear Repulsion Energy =            639.0851984482530952
    One-Electron Energy =               -1913.4706274764641876
    Two-Electron Energy =                 796.8417611379504706
    Total Energy =                       -477.5436678902606218
  Basis Set: (AUG-CC-PVTZ AUX)
    Blend: AUG-CC-PVTZ-RI
    Molecular point group: c1

    Geometry (in Angstrom), charge = 0, multiplicity = 1:

       Center              X                  Y                   Z               Mass
    ------------   -----------------  -----------------  -----------------  -----------------
         N           -1.757164260593     0.668724078294     0.205620763326    14.003074004430
         C           -0.844202260593    -0.324311621706    -0.104091936674    12.000000000000
         C            0.591833739407    -0.174464921706    -0.061602236674    12.000000000000
         C           -1.613562260593    -1.463068921706    -0.447363236674    12.000000000000
         C           -3.040493260593     0.199794078294     0.066120763326    12.000000000000
         C           -2.979069260593    -1.122307921706    -0.341258236674    12.000000000000
         C           -1.425297260593     2.003844078294     0.676224763326    12.000000000000
         C            1.237889739407     0.904469078294    -0.689922236674    12.000000000000
         C            1.374655739407    -1.142439921706     0.590602763326    12.000000000000
         C            2.627515739407     1.021315078294    -0.647596236674    12.000000000000
         C            2.764887739407    -1.034694921706     0.612529763326    12.000000000000
         C            3.395862739407     0.052074078294     0.001707763326    12.000000000000
         H           -1.197136260593    -2.410520921706    -0.766943236674     1.007825032230
         H           -3.886379260593     0.839924078294     0.281062763326     1.007825032230
         H           -3.829364260593    -1.761740921706    -0.540602236674     1.007825032230
         H           -2.225319260593     2.348176078294     1.334309763326     1.007825032230
         H           -0.491075260593     1.969268078294     1.237579763326     1.007825032230
         H           -1.317974260593     2.708342078294    -0.153745236674     1.007825032230
         H            0.649558739407     1.635191078294    -1.240867236674     1.007825032230
         H            0.877203739407    -1.972834921706     1.086998763326     1.007825032230
         H            3.113330739407     1.861171078294    -1.139458236674     1.007825032230
         H            3.357010739407    -1.792446921706     1.120791763326     1.007825032230
         H            4.479276739407     0.140881078294     0.027574763326     1.007825032230

  Basis Set: AUG-CC-PVTZ
    Blend: AUG-CC-PVTZ
  Basis Set: (AUG-CC-PVTZ AUX)
    Blend: AUG-CC-PVTZ-JKFIT
	 Reference Energy          =    -477.5436678902606786 [Eh]
	 Singles Energy            =      -0.0000000000000000 [Eh]
	 Same-Spin Energy          =      -0.5398520064763341 [Eh]
	 Opposite-Spin Energy      =      -1.6841602976199086 [Eh]
	 Correlation Energy        =      -2.2240123040962425 [Eh]
	 Total Energy              =    -479.7676801943568989 [Eh]

	 ================> DF-SCS-MP2 Energies <==================
	-----------------------------------------------------------
	 SCS Same-Spin Scale       =       0.3333333333333333 [-]
	 SCS Opposite-Spin Scale   =       1.2000000000000000 [-]
	 SCS Same-Spin Energy      =      -0.1799506688254447 [Eh]
	 SCS Opposite-Spin Energy  =      -2.0209923571438901 [Eh]
	 SCS Correlation Energy    =      -2.2009430259693348 [Eh]
	 SCS Total Energy          =    -479.7446109162299877 [Eh]
	-----------------------------------------------------------

  Dipole Moment: [D]
     X:     0.4415      Y:     1.8709      Z:     0.6810     Total:     2.0394

*** Psi4 exiting successfully. Buy a developer a beer!
