                               Psi4 1.3.2 release

  ==> Input File <==

--------------------------------------------------------------------------
#psi4
#
memory 32 gb

molecule  {
0 1
  N       -1.7531090     0.6487580     0.1985890
  C       -0.8584400    -0.3593730    -0.1157050
  C        0.5958890    -0.1944310    -0.0686340
  C       -1.6542934    -1.6174372    -0.4962857
  C       -3.0364380     0.1798280     0.0590890
  C       -2.9750140    -1.1422740    -0.3482900
  C       -1.4212420     1.9838780     0.6691930
  C        1.2419450     0.8845030    -0.6969540
  C        1.3787110    -1.1624060     0.5835710
  C        2.6315710     1.0013490    -0.6546280
  C        2.7689430    -1.0546610     0.6054980
  C        3.3999180     0.0321080    -0.0053240
  H       -1.1930810    -2.4304870    -0.7739750
  H       -3.8823240     0.8199580     0.2740310
  H       -3.8253090    -1.7817070    -0.5476340
  H       -2.2212640     2.3282100     1.3272780
  H       -0.4870200     1.9493020     1.2305480
  H       -1.3139190     2.6883760    -0.1607770
  H        0.6536140     1.6152250    -1.2478990
  H        0.8812590    -1.9928010     1.0799670
  H        3.1173860     1.8412050    -1.1464900
  H        3.3610660    -1.8124130     1.1137600
  H        4.4833320     0.1209150     0.0205430
units angstrom
no_reorient  #important for SAPT in psi4, default
symmetry c1  #important for SAPT in psi4, default
}

set PROPERTIES_ORIGIN ["COM"]
properties('MP2/aug-cc-pvtz', properties = ['dipole'])
--------------------------------------------------------------------------

    Molecular point group: c1
  Charge       = 0
  Multiplicity = 1
  Basis Set: AUG-CC-PVTZ
    Blend: AUG-CC-PVTZ
  Basis Set: (AUG-CC-PVTZ AUX)
    Blend: AUG-CC-PVTZ-JKFIT

    Orbital Energies [Eh]
    ---------------------

    Doubly Occupied:

       1A    -15.619125     2A    -11.274739     3A    -11.272343
       4A    -11.250554     5A    -11.245422     6A    -11.241009
       7A    -11.239820     8A    -11.239540     9A    -11.238110
      10A    -11.237193    11A    -11.214827    12A    -11.213631
      13A     -1.297146    14A     -1.155261    15A     -1.065949
      16A     -1.043236    17A     -1.016422    18A     -0.948360
      19A     -0.941587    20A     -0.834431    21A     -0.830696
      22A     -0.780931    23A     -0.742185    24A     -0.712525
      25A     -0.677853    26A     -0.643231    27A     -0.635883
      28A     -0.623437    29A     -0.602596    30A     -0.587902
      31A     -0.578503    32A     -0.567654    33A     -0.551688
      34A     -0.524310    35A     -0.516066    36A     -0.502563
      37A     -0.492489    38A     -0.478681    39A     -0.351396
      40A     -0.341374    41A     -0.338028    42A     -0.262117

  @DF-RHF Final Energy:  -477.51317352108464

   => Energetics <=

    Nuclear Repulsion Energy =            636.0934794441192253
    One-Electron Energy =               -1907.3516787684147857
    Two-Electron Energy =                 793.7450258032110924
    Total Energy =                       -477.5131735210845818
  Basis Set: (AUG-CC-PVTZ AUX)
    Blend: AUG-CC-PVTZ-RI
    Molecular point group: c1

    Geometry (in Angstrom), charge = 0, multiplicity = 1:

       Center              X                  Y                   Z               Mass
    ------------   -----------------  -----------------  -----------------  -----------------
         N           -1.752345641337     0.680144154138     0.209170747538    14.003074004430
         C           -0.857676641337    -0.327986845862    -0.105123252462    12.000000000000
         C            0.596652358663    -0.163044845862    -0.058052252462    12.000000000000
         C           -1.653530041337    -1.586051045862    -0.485703952462    12.000000000000
         C           -3.035674641337     0.211214154138     0.069670747538    12.000000000000
         C           -2.974250641337    -1.110887845862    -0.337708252462    12.000000000000
         C           -1.420478641337     2.015264154138     0.679774747538    12.000000000000
         C            1.242708358663     0.915889154138    -0.686372252462    12.000000000000
         C            1.379474358663    -1.131019845862     0.594152747538    12.000000000000
         C            2.632334358663     1.032735154138    -0.644046252462    12.000000000000
         C            2.769706358663    -1.023274845862     0.616079747538    12.000000000000
         C            3.400681358663     0.063494154138     0.005257747538    12.000000000000
         H           -1.192317641337    -2.399100845862    -0.763393252462     1.007825032230
         H           -3.881560641337     0.851344154138     0.284612747538     1.007825032230
         H           -3.824545641337    -1.750320845862    -0.537052252462     1.007825032230
         H           -2.220500641337     2.359596154138     1.337859747538     1.007825032230
         H           -0.486256641337     1.980688154138     1.241129747538     1.007825032230
         H           -1.313155641337     2.719762154138    -0.150195252462     1.007825032230
         H            0.654377358663     1.646611154138    -1.237317252462     1.007825032230
         H            0.882022358663    -1.961414845862     1.090548747538     1.007825032230
         H            3.118149358663     1.872591154138    -1.135908252462     1.007825032230
         H            3.361829358663    -1.781026845862     1.124341747538     1.007825032230
         H            4.484095358663     0.152301154138     0.031124747538     1.007825032230

  Basis Set: AUG-CC-PVTZ
    Blend: AUG-CC-PVTZ
  Basis Set: (AUG-CC-PVTZ AUX)
    Blend: AUG-CC-PVTZ-JKFIT
	 Reference Energy          =    -477.5131735210846387 [Eh]
	 Singles Energy            =      -0.0000000000000000 [Eh]
	 Same-Spin Energy          =      -0.5413572600229167 [Eh]
	 Opposite-Spin Energy      =      -1.6874793831154808 [Eh]
	 Correlation Energy        =      -2.2288366431383975 [Eh]
	 Total Energy              =    -479.7420101642230179 [Eh]

	 ================> DF-SCS-MP2 Energies <==================
	-----------------------------------------------------------
	 SCS Same-Spin Scale       =       0.3333333333333333 [-]
	 SCS Opposite-Spin Scale   =       1.2000000000000000 [-]
	 SCS Same-Spin Energy      =      -0.1804524200076389 [Eh]
	 SCS Opposite-Spin Energy  =      -2.0249752597385768 [Eh]
	 SCS Correlation Energy    =      -2.2054276797462156 [Eh]
	 SCS Total Energy          =    -479.7186012008308467 [Eh]
	-----------------------------------------------------------

  Dipole Moment: [D]
     X:     0.3646      Y:     1.9803      Z:     0.7062     Total:     2.1338

*** Psi4 exiting successfully. Buy a developer a beer!
