                               Psi4 1.3.2 release

  ==> Input File <==

--------------------------------------------------------------------------
#psi4
#
memory 32 gb

molecule  {
0 1
  N       -1.7531090     0.6487580     0.1985890
  C       -0.8584400    -0.3593730    -0.1157050
  C        0.5958890    -0.1944310    -0.0686340
  C       -1.6095070    -1.4830350    -0.4543950
  C       -3.0364380     0.1798280     0.0590890
  C       -2.9661429    -1.3332182    -0.4071256
  C       -1.4212420     1.9838780     0.6691930
  C        1.2419450     0.8845030    -0.6969540
  C        1.3787110    -1.1624060     0.5835710
  C        2.6315710     1.0013490    -0.6546280
  C        2.7689430    -1.0546610     0.6054980
  C        3.3999180     0.0321080    -0.0053240
  H       -1.1930810    -2.4304870    -0.7739750
  H       -3.8823240     0.8199580     0.2740310
  H       -3.8253090    -1.7817070    -0.5476340
  H       -2.2212640     2.3282100     1.3272780
  H       -0.4870200     1.9493020     1.2305480
  H       -1.3139190     2.6883760    -0.1607770
  H        0.6536140     1.6152250    -1.2478990
  H        0.8812590    -1.9928010     1.0799670
  H        3.1173860     1.8412050    -1.1464900
  H        3.3610660    -1.8124130     1.1137600
  H        4.4833320     0.1209150     0.0205430
units angstrom
no_reorient  #important for SAPT in psi4, default
symmetry c1  #important for SAPT in psi4, default
}

set PROPERTIES_ORIGIN ["COM"]
properties('MP2/aug-cc-pvtz', properties = ['dipole'])
--------------------------------------------------------------------------

    Molecular point group: c1
  Charge       = 0
  Multiplicity = 1
  Basis Set: AUG-CC-PVTZ
    Blend: AUG-CC-PVTZ
  Basis Set: (AUG-CC-PVTZ AUX)
    Blend: AUG-CC-PVTZ-JKFIT

    Orbital Energies [Eh]
    ---------------------

    Doubly Occupied:

       1A    -15.625926     2A    -11.276187     3A    -11.267636
       4A    -11.251254     5A    -11.249837     6A    -11.239627
       7A    -11.238276     8A    -11.237870     9A    -11.236307
      10A    -11.235230    11A    -11.218580    12A    -11.212926
      13A     -1.299247    14A     -1.153763    15A     -1.074188
      16A     -1.037770    17A     -1.014951    18A     -0.948312
      19A     -0.944762    20A     -0.830554    21A     -0.828583
      22A     -0.786372    23A     -0.741898    24A     -0.714077
      25A     -0.677440    26A     -0.641358    27A     -0.632693
      28A     -0.629077    29A     -0.610473    30A     -0.586137
      31A     -0.582154    32A     -0.570756    33A     -0.555250
      34A     -0.523544    35A     -0.500941    36A     -0.497987
      37A     -0.491090    38A     -0.475540    39A     -0.355836
      40A     -0.343310    41A     -0.338576    42A     -0.255766

  @DF-RHF Final Energy:  -477.49721694370925

   => Energetics <=

    Nuclear Repulsion Energy =            636.5593116824609297
    One-Electron Energy =               -1908.2489312534316923
    Two-Electron Energy =                 794.1924026272614583
    Total Energy =                       -477.4972169437093044
  Basis Set: (AUG-CC-PVTZ AUX)
    Blend: AUG-CC-PVTZ-RI
    Molecular point group: c1

    Geometry (in Angstrom), charge = 0, multiplicity = 1:

       Center              X                  Y                   Z               Mass
    ------------   -----------------  -----------------  -----------------  -----------------
         N           -1.756444524058     0.684463383078     0.210465164121    14.003074004430
         C           -0.861775524058    -0.323667616922    -0.103828835879    12.000000000000
         C            0.592553475942    -0.158725616922    -0.056757835879    12.000000000000
         C           -1.612842524058    -1.447329616922    -0.442518835879    12.000000000000
         C           -3.039773524058     0.215533383078     0.070965164121    12.000000000000
         C           -2.969478424058    -1.297512816922    -0.395249435879    12.000000000000
         C           -1.424577524058     2.019583383078     0.681069164121    12.000000000000
         C            1.238609475942     0.920208383078    -0.685077835879    12.000000000000
         C            1.375375475942    -1.126700616922     0.595447164121    12.000000000000
         C            2.628235475942     1.037054383078    -0.642751835879    12.000000000000
         C            2.765607475942    -1.018955616922     0.617374164121    12.000000000000
         C            3.396582475942     0.067813383078     0.006552164121    12.000000000000
         H           -1.196416524058    -2.394781616922    -0.762098835879     1.007825032230
         H           -3.885659524058     0.855663383078     0.285907164121     1.007825032230
         H           -3.828644524058    -1.746001616922    -0.535757835879     1.007825032230
         H           -2.224599524058     2.363915383078     1.339154164121     1.007825032230
         H           -0.490355524058     1.985007383078     1.242424164121     1.007825032230
         H           -1.317254524058     2.724081383078    -0.148900835879     1.007825032230
         H            0.650278475942     1.650930383078    -1.236022835879     1.007825032230
         H            0.877923475942    -1.957095616922     1.091843164121     1.007825032230
         H            3.114050475942     1.876910383078    -1.134613835879     1.007825032230
         H            3.357730475942    -1.776707616922     1.125636164121     1.007825032230
         H            4.479996475942     0.156620383078     0.032419164121     1.007825032230

  Basis Set: AUG-CC-PVTZ
    Blend: AUG-CC-PVTZ
  Basis Set: (AUG-CC-PVTZ AUX)
    Blend: AUG-CC-PVTZ-JKFIT
	 Reference Energy          =    -477.4972169437092475 [Eh]
	 Singles Energy            =      -0.0000000000000000 [Eh]
	 Same-Spin Energy          =      -0.5424902949613238 [Eh]
	 Opposite-Spin Energy      =      -1.6897906217350225 [Eh]
	 Correlation Energy        =      -2.2322809166963462 [Eh]
	 Total Energy              =    -479.7294978604056155 [Eh]

	 ================> DF-SCS-MP2 Energies <==================
	-----------------------------------------------------------
	 SCS Same-Spin Scale       =       0.3333333333333333 [-]
	 SCS Opposite-Spin Scale   =       1.2000000000000000 [-]
	 SCS Same-Spin Energy      =      -0.1808300983204413 [Eh]
	 SCS Opposite-Spin Energy  =      -2.0277487460820267 [Eh]
	 SCS Correlation Energy    =      -2.2085788444024681 [Eh]
	 SCS Total Energy          =    -479.7057957881117431 [Eh]
	-----------------------------------------------------------

  Dipole Moment: [D]
     X:     0.5409      Y:     1.9287      Z:     0.7006     Total:     2.1221

*** Psi4 exiting successfully. Buy a developer a beer!
