                               Psi4 1.3.2 release

  ==> Input File <==

--------------------------------------------------------------------------
#psi4
#
memory 32 gb

molecule  {
0 1
  N       -1.7531090     0.6487580     0.1985890
  C       -0.8584400    -0.3593730    -0.1157050
  C        0.5958890    -0.1944310    -0.0686340
  C       -1.6095070    -1.4830350    -0.4543950
  C       -3.0364380     0.1798280     0.0590890
  C       -2.9750140    -1.1422740    -0.3482900
  C       -1.3984178     2.0757012     0.7015589
  C        1.2419450     0.8845030    -0.6969540
  C        1.3787110    -1.1624060     0.5835710
  C        2.6315710     1.0013490    -0.6546280
  C        2.7689430    -1.0546610     0.6054980
  C        3.3999180     0.0321080    -0.0053240
  H       -1.1930810    -2.4304870    -0.7739750
  H       -3.8823240     0.8199580     0.2740310
  H       -3.8253090    -1.7817070    -0.5476340
  H       -2.2212640     2.3282100     1.3272780
  H       -0.4870200     1.9493020     1.2305480
  H       -1.3139190     2.6883760    -0.1607770
  H        0.6536140     1.6152250    -1.2478990
  H        0.8812590    -1.9928010     1.0799670
  H        3.1173860     1.8412050    -1.1464900
  H        3.3610660    -1.8124130     1.1137600
  H        4.4833320     0.1209150     0.0205430
units angstrom
no_reorient  #important for SAPT in psi4, default
symmetry c1  #important for SAPT in psi4, default
}

set PROPERTIES_ORIGIN ["COM"]
properties('MP2/aug-cc-pvtz', properties = ['dipole'])
--------------------------------------------------------------------------

    Molecular point group: c1
  Charge       = 0
  Multiplicity = 1
  Basis Set: AUG-CC-PVTZ
    Blend: AUG-CC-PVTZ
  Basis Set: (AUG-CC-PVTZ AUX)
    Blend: AUG-CC-PVTZ-JKFIT

    Orbital Energies [Eh]
    ---------------------

    Doubly Occupied:

       1A    -15.605201     2A    -11.274479     3A    -11.253181
       4A    -11.249323     5A    -11.245655     6A    -11.240435
       7A    -11.239099     8A    -11.238847     9A    -11.237383
      10A    -11.236203    11A    -11.205161    12A    -11.203878
      13A     -1.284684    14A     -1.154182    15A     -1.061662
      16A     -1.042139    17A     -1.015635    18A     -0.952971
      19A     -0.941577    20A     -0.832076    21A     -0.829745
      22A     -0.765371    23A     -0.739145    24A     -0.703084
      25A     -0.675572    26A     -0.641821    27A     -0.632478
      28A     -0.624235    29A     -0.606001    30A     -0.586970
      31A     -0.571398    32A     -0.547580    33A     -0.541015
      34A     -0.531929    35A     -0.527387    36A     -0.501430
      37A     -0.494188    38A     -0.491835    39A     -0.352698
      40A     -0.339888    41A     -0.333546    42A     -0.272595

  @DF-RHF Final Energy:  -477.53770341038103

   => Energetics <=

    Nuclear Repulsion Energy =            637.1575510394130788
    One-Electron Energy =               -1909.7431447188687343
    Two-Electron Energy =                 795.0478902690745144
    Total Energy =                       -477.5377034103810274
  Basis Set: (AUG-CC-PVTZ AUX)
    Blend: AUG-CC-PVTZ-RI
    Molecular point group: c1

    Geometry (in Angstrom), charge = 0, multiplicity = 1:

       Center              X                  Y                   Z               Mass
    ------------   -----------------  -----------------  -----------------  -----------------
         N           -1.757510397803     0.662862853609     0.203498304828    14.003074004430
         C           -0.862841397803    -0.345268146391    -0.110795695172    12.000000000000
         C            0.591487602197    -0.180326146391    -0.063724695172    12.000000000000
         C           -1.613908397803    -1.468930146391    -0.449485695172    12.000000000000
         C           -3.040839397803     0.193932853609     0.063998304828    12.000000000000
         C           -2.979415397803    -1.128169146391    -0.343380695172    12.000000000000
         C           -1.402819197803     2.089806053609     0.706468204828    12.000000000000
         C            1.237543602197     0.898607853609    -0.692044695172    12.000000000000
         C            1.374309602197    -1.148301146391     0.588480304828    12.000000000000
         C            2.627169602197     1.015453853609    -0.649718695172    12.000000000000
         C            2.764541602197    -1.040556146391     0.610407304828    12.000000000000
         C            3.395516602197     0.046212853609    -0.000414695172    12.000000000000
         H           -1.197482397803    -2.416382146391    -0.769065695172     1.007825032230
         H           -3.886725397803     0.834062853609     0.278940304828     1.007825032230
         H           -3.829710397803    -1.767602146391    -0.542724695172     1.007825032230
         H           -2.225665397803     2.342314853609     1.332187304828     1.007825032230
         H           -0.491421397803     1.963406853609     1.235457304828     1.007825032230
         H           -1.318320397803     2.702480853609    -0.155867695172     1.007825032230
         H            0.649212602197     1.629329853609    -1.242989695172     1.007825032230
         H            0.876857602197    -1.978696146391     1.084876304828     1.007825032230
         H            3.112984602197     1.855309853609    -1.141580695172     1.007825032230
         H            3.356664602197    -1.798308146391     1.118669304828     1.007825032230
         H            4.478930602197     0.135019853609     0.025452304828     1.007825032230

  Basis Set: AUG-CC-PVTZ
    Blend: AUG-CC-PVTZ
  Basis Set: (AUG-CC-PVTZ AUX)
    Blend: AUG-CC-PVTZ-JKFIT
	 Reference Energy          =    -477.5377034103810274 [Eh]
	 Singles Energy            =      -0.0000000000000000 [Eh]
	 Same-Spin Energy          =      -0.5390604106622864 [Eh]
	 Opposite-Spin Energy      =      -1.6838275818832149 [Eh]
	 Correlation Energy        =      -2.2228879925455014 [Eh]
	 Total Energy              =    -479.7605914029265364 [Eh]

	 ================> DF-SCS-MP2 Energies <==================
	-----------------------------------------------------------
	 SCS Same-Spin Scale       =       0.3333333333333333 [-]
	 SCS Opposite-Spin Scale   =       1.2000000000000000 [-]
	 SCS Same-Spin Energy      =      -0.1796868035540954 [Eh]
	 SCS Opposite-Spin Energy  =      -2.0205930982598579 [Eh]
	 SCS Correlation Energy    =      -2.2002799018139534 [Eh]
	 SCS Total Energy          =    -479.7379833121949559 [Eh]
	-----------------------------------------------------------

  Dipole Moment: [D]
     X:     0.4931      Y:     2.1181      Z:     0.7534     Total:     2.3015

*** Psi4 exiting successfully. Buy a developer a beer!
