                               Psi4 1.3.2 release

  ==> Input File <==

--------------------------------------------------------------------------
#psi4
#
memory 32 gb

molecule  {
0 1
  N       -1.7531090     0.6487580     0.1985890
  C       -0.8584400    -0.3593730    -0.1157050
  C        0.5958890    -0.1944310    -0.0686340
  C       -1.6095070    -1.4830350    -0.4543950
  C       -3.0364380     0.1798280     0.0590890
  C       -2.9750140    -1.1422740    -0.3482900
  C       -1.4212420     1.9838780     0.6691930
  C        1.1959885     0.8077542    -0.6522592
  C        1.3787110    -1.1624060     0.5835710
  C        2.6315710     1.0013490    -0.6546280
  C        2.7689430    -1.0546610     0.6054980
  C        3.3999180     0.0321080    -0.0053240
  H       -1.1930810    -2.4304870    -0.7739750
  H       -3.8823240     0.8199580     0.2740310
  H       -3.8253090    -1.7817070    -0.5476340
  H       -2.2212640     2.3282100     1.3272780
  H       -0.4870200     1.9493020     1.2305480
  H       -1.3139190     2.6883760    -0.1607770
  H        0.6536140     1.6152250    -1.2478990
  H        0.8812590    -1.9928010     1.0799670
  H        3.1173860     1.8412050    -1.1464900
  H        3.3610660    -1.8124130     1.1137600
  H        4.4833320     0.1209150     0.0205430
units angstrom
no_reorient  #important for SAPT in psi4, default
symmetry c1  #important for SAPT in psi4, default
}

set PROPERTIES_ORIGIN ["COM"]
properties('MP2/aug-cc-pvtz', properties = ['dipole'])
--------------------------------------------------------------------------

    Molecular point group: c1
  Charge       = 0
  Multiplicity = 1
  Basis Set: AUG-CC-PVTZ
    Blend: AUG-CC-PVTZ
  Basis Set: (AUG-CC-PVTZ AUX)
    Blend: AUG-CC-PVTZ-JKFIT

    Orbital Energies [Eh]
    ---------------------

    Doubly Occupied:

       1A    -15.607275     2A    -11.270137     3A    -11.255858
       4A    -11.247722     5A    -11.245277     6A    -11.239615
       7A    -11.239336     8A    -11.238539     9A    -11.237720
      10A    -11.237215    11A    -11.207806    12A    -11.206218
      13A     -1.298599    14A     -1.163124    15A     -1.072797
      16A     -1.051701    17A     -1.008853    18A     -0.959058
      19A     -0.932837    20A     -0.838781    21A     -0.825516
      22A     -0.770812    23A     -0.745623    24A     -0.712327
      25A     -0.673410    26A     -0.639573    27A     -0.634924
      28A     -0.625846    29A     -0.597607    30A     -0.577846
      31A     -0.569969    32A     -0.569160    33A     -0.538969
      34A     -0.526421    35A     -0.523481    36A     -0.504923
      37A     -0.501886    38A     -0.478596    39A     -0.364006
      40A     -0.335697    41A     -0.332031    42A     -0.277997

  @DF-RHF Final Energy:  -477.53320015593943

   => Energetics <=

    Nuclear Repulsion Energy =            640.5875112495161829
    One-Electron Energy =               -1916.4712566079563203
    Two-Electron Energy =                 798.3505452025007116
    Total Energy =                       -477.5332001559394257
  Basis Set: (AUG-CC-PVTZ AUX)
    Blend: AUG-CC-PVTZ-RI
    Molecular point group: c1

    Geometry (in Angstrom), charge = 0, multiplicity = 1:

       Center              X                  Y                   Z               Mass
    ------------   -----------------  -----------------  -----------------  -----------------
         N           -1.752256257697     0.675740025637     0.202556503306    14.003074004430
         C           -0.857587257697    -0.332390974363    -0.111737496694    12.000000000000
         C            0.596741742303    -0.167448974363    -0.064666496694    12.000000000000
         C           -1.608654257697    -1.456052974363    -0.450427496694    12.000000000000
         C           -3.035585257697     0.206810025637     0.063056503306    12.000000000000
         C           -2.974161257697    -1.115291974363    -0.344322496694    12.000000000000
         C           -1.420389257697     2.010860025637     0.673160503306    12.000000000000
         C            1.196841242303     0.834736225637    -0.648291696694    12.000000000000
         C            1.379563742303    -1.135423974363     0.587538503306    12.000000000000
         C            2.632423742303     1.028331025637    -0.650660496694    12.000000000000
         C            2.769795742303    -1.027678974363     0.609465503306    12.000000000000
         C            3.400770742303     0.059090025637    -0.001356496694    12.000000000000
         H           -1.192228257697    -2.403504974363    -0.770007496694     1.007825032230
         H           -3.881471257697     0.846940025637     0.277998503306     1.007825032230
         H           -3.824456257697    -1.754724974363    -0.543666496694     1.007825032230
         H           -2.220411257697     2.355192025637     1.331245503306     1.007825032230
         H           -0.486167257697     1.976284025637     1.234515503306     1.007825032230
         H           -1.313066257697     2.715358025637    -0.156809496694     1.007825032230
         H            0.654466742303     1.642207025637    -1.243931496694     1.007825032230
         H            0.882111742303    -1.965818974363     1.083934503306     1.007825032230
         H            3.118238742303     1.868187025637    -1.142522496694     1.007825032230
         H            3.361918742303    -1.785430974363     1.117727503306     1.007825032230
         H            4.484184742303     0.147897025637     0.024510503306     1.007825032230

  Basis Set: AUG-CC-PVTZ
    Blend: AUG-CC-PVTZ
  Basis Set: (AUG-CC-PVTZ AUX)
    Blend: AUG-CC-PVTZ-JKFIT
	 Reference Energy          =    -477.5332001559394257 [Eh]
	 Singles Energy            =      -0.0000000000000000 [Eh]
	 Same-Spin Energy          =      -0.5389380061088901 [Eh]
	 Opposite-Spin Energy      =      -1.6835523857681076 [Eh]
	 Correlation Energy        =      -2.2224903918769976 [Eh]
	 Total Energy              =    -479.7556905478164140 [Eh]

	 ================> DF-SCS-MP2 Energies <==================
	-----------------------------------------------------------
	 SCS Same-Spin Scale       =       0.3333333333333333 [-]
	 SCS Opposite-Spin Scale   =       1.2000000000000000 [-]
	 SCS Same-Spin Energy      =      -0.1796460020362967 [Eh]
	 SCS Opposite-Spin Energy  =      -2.0202628629217290 [Eh]
	 SCS Correlation Energy    =      -2.1999088649580258 [Eh]
	 SCS Total Energy          =    -479.7331090208974729 [Eh]
	-----------------------------------------------------------

  Dipole Moment: [D]
     X:     0.5633      Y:     1.8668      Z:     0.6821     Total:     2.0658

*** Psi4 exiting successfully. Buy a developer a beer!
