                               Psi4 1.4a3.dev225

  ==> Input File <==

--------------------------------------------------------------------------
#psi4
#
memory 32 gb

molecule  {
0 1
  N       -1.7531090     0.6487580     0.1985890
  C       -0.8584400    -0.3593730    -0.1157050
  C        0.5958890    -0.1944310    -0.0686340
  C       -1.6095070    -1.4830350    -0.4543950
  C       -3.0364380     0.1798280     0.0590890
  C       -2.9750140    -1.1422740    -0.3482900
  C       -1.4166772     2.0022426     0.6756662
  C        1.2419450     0.8845030    -0.6969540
  C        1.3787110    -1.1624060     0.5835710
  C        2.6315710     1.0013490    -0.6546280
  C        2.7689430    -1.0546610     0.6054980
  C        3.3999180     0.0321080    -0.0053240
  H       -1.1930810    -2.4304870    -0.7739750
  H       -3.8823240     0.8199580     0.2740310
  H       -3.8253090    -1.7817070    -0.5476340
  H       -2.2212640     2.3282100     1.3272780
  H       -0.4870200     1.9493020     1.2305480
  H       -1.3139190     2.6883760    -0.1607770
  H        0.6536140     1.6152250    -1.2478990
  H        0.8812590    -1.9928010     1.0799670
  H        3.1173860     1.8412050    -1.1464900
  H        3.3610660    -1.8124130     1.1137600
  H        4.4833320     0.1209150     0.0205430
units angstrom
no_reorient  #important for SAPT in psi4, default
symmetry c1  #important for SAPT in psi4, default
}

set PROPERTIES_ORIGIN ["COM"]
properties('MP2/aug-cc-pvtz', properties = ['dipole'])
--------------------------------------------------------------------------

    Molecular point group: c1
  Charge       = 0
  Multiplicity = 1
  Basis Set: AUG-CC-PVTZ
    Blend: AUG-CC-PVTZ
  Basis Set: (AUG-CC-PVTZ AUX)
    Blend: AUG-CC-PVTZ-JKFIT

    Orbital Energies [Eh]
    ---------------------

    Doubly Occupied:

       1A    -15.607281     2A    -11.271139     3A    -11.255810
       4A    -11.250003     5A    -11.247977     6A    -11.240663
       7A    -11.239472     8A    -11.239179     9A    -11.237839
      10A    -11.236882    11A    -11.207711    12A    -11.206336
      13A     -1.295701    14A     -1.154888    15A     -1.070771
      16A     -1.043569    17A     -1.016074    18A     -0.955331
      19A     -0.935008    20A     -0.833060    21A     -0.830424
      22A     -0.769630    23A     -0.742156    24A     -0.710383
      25A     -0.677450    26A     -0.639966    27A     -0.631926
      28A     -0.622776    29A     -0.598108    30A     -0.587126
      31A     -0.569307    32A     -0.565214    33A     -0.538464
      34A     -0.528372    35A     -0.525545    36A     -0.502070
      37A     -0.494751    38A     -0.491958    39A     -0.353707
      40A     -0.340205    41A     -0.335063    42A     -0.274623

  @DF-RHF Final Energy:  -477.54560387740094

   => Energetics <=

    Nuclear Repulsion Energy =            638.6576966060380300
    One-Electron Energy =               -1912.6587618146811565
    Two-Electron Energy =                 796.4554613312420770
    Total Energy =                       -477.5456038774009357
  Basis Set: (AUG-CC-PVTZ AUX)
    Blend: AUG-CC-PVTZ-RI
    Molecular point group: c1

    Geometry (in Angstrom), charge = 0, multiplicity = 1:

       Center              X                  Y                   Z               Mass
    ------------   -----------------  -----------------  -----------------  -----------------
         N           -1.756115566901     0.668474337302     0.205476241569    14.003074004430
         C           -0.861446566901    -0.339656662698    -0.108817758431    12.000000000000
         C            0.592882433099    -0.174714662698    -0.061746758431    12.000000000000
         C           -1.612513566901    -1.463318662698    -0.447507758431    12.000000000000
         C           -3.039444566901     0.199544337302     0.065976241569    12.000000000000
         C           -2.978020566901    -1.122557662698    -0.341402758431    12.000000000000
         C           -1.419683766901     2.021958937302     0.682553441569    12.000000000000
         C            1.238938433099     0.904219337302    -0.690066758431    12.000000000000
         C            1.375704433099    -1.142689662698     0.590458241569    12.000000000000
         C            2.628564433099     1.021065337302    -0.647740758431    12.000000000000
         C            2.765936433099    -1.034944662698     0.612385241569    12.000000000000
         C            3.396911433099     0.051824337302     0.001563241569    12.000000000000
         H           -1.196087566901    -2.410770662698    -0.767087758431     1.007825032230
         H           -3.885330566901     0.839674337302     0.280918241569     1.007825032230
         H           -3.828315566901    -1.761990662698    -0.540746758431     1.007825032230
         H           -2.224270566901     2.347926337302     1.334165241569     1.007825032230
         H           -0.490026566901     1.969018337302     1.237435241569     1.007825032230
         H           -1.316925566901     2.708092337302    -0.153889758431     1.007825032230
         H            0.650607433099     1.634941337302    -1.241011758431     1.007825032230
         H            0.878252433099    -1.973084662698     1.086854241569     1.007825032230
         H            3.114379433099     1.860921337302    -1.139602758431     1.007825032230
         H            3.358059433099    -1.792696662698     1.120647241569     1.007825032230
         H            4.480325433099     0.140631337302     0.027430241569     1.007825032230

  Basis Set: AUG-CC-PVTZ
    Blend: AUG-CC-PVTZ
  Basis Set: (AUG-CC-PVTZ AUX)
    Blend: AUG-CC-PVTZ-JKFIT
	 Reference Energy          =    -477.5456038774009357 [Eh]
	 Singles Energy            =      -0.0000000000000000 [Eh]
	 Same-Spin Energy          =      -0.5390984994758629 [Eh]
	 Opposite-Spin Energy      =      -1.6832552658267610 [Eh]
	 Correlation Energy        =      -2.2223537653026240 [Eh]
	 Total Energy              =    -479.7679576427035499 [Eh]

	 ================> DF-SCS-MP2 Energies <==================
	-----------------------------------------------------------
	 SCS Same-Spin Scale       =       0.3333333333333333 [-]
	 SCS Opposite-Spin Scale   =       1.2000000000000000 [-]
	 SCS Same-Spin Energy      =      -0.1796994998252876 [Eh]
	 SCS Opposite-Spin Energy  =      -2.0199063189921129 [Eh]
	 SCS Correlation Energy    =      -2.1996058188174006 [Eh]
	 SCS Total Energy          =    -479.7452096962183532 [Eh]
	-----------------------------------------------------------

  Dipole Moment: [D]
     X:     0.4747      Y:     1.9136      Z:     0.6925     Total:     2.0897

*** Psi4 exiting successfully. Buy a developer a beer!
