                               Psi4 1.3.2 release

  ==> Input File <==

--------------------------------------------------------------------------
#psi4
#
memory 32 gb

molecule  {
0 1
  N       -1.7531090     0.6487580     0.1985890
  C       -0.8584400    -0.3593730    -0.1157050
  C        0.5958890    -0.1944310    -0.0686340
  C       -1.6095070    -1.4830350    -0.4543950
  C       -3.0364380     0.1798280     0.0590890
  C       -2.9750140    -1.1422740    -0.3482900
  C       -1.4212420     1.9838780     0.6691930
  C        1.2419450     0.8845030    -0.6969540
  C        1.3787110    -1.1624060     0.5835710
  C        2.6315710     1.0013490    -0.6546280
  C        2.7689430    -1.0546610     0.6054980
  C        3.3999180     0.0321080    -0.0053240
  H       -1.2315269    -2.3430148    -0.7444702
  H       -3.8823240     0.8199580     0.2740310
  H       -3.8253090    -1.7817070    -0.5476340
  H       -2.2212640     2.3282100     1.3272780
  H       -0.4870200     1.9493020     1.2305480
  H       -1.3139190     2.6883760    -0.1607770
  H        0.6536140     1.6152250    -1.2478990
  H        0.8812590    -1.9928010     1.0799670
  H        3.1173860     1.8412050    -1.1464900
  H        3.3610660    -1.8124130     1.1137600
  H        4.4833320     0.1209150     0.0205430
units angstrom
no_reorient  #important for SAPT in psi4, default
symmetry c1  #important for SAPT in psi4, default
}

set PROPERTIES_ORIGIN ["COM"]
properties('MP2/aug-cc-pvtz', properties = ['dipole'])
--------------------------------------------------------------------------

    Molecular point group: c1
  Charge       = 0
  Multiplicity = 1
  Basis Set: AUG-CC-PVTZ
    Blend: AUG-CC-PVTZ
  Basis Set: (AUG-CC-PVTZ AUX)
    Blend: AUG-CC-PVTZ-JKFIT

    Orbital Energies [Eh]
    ---------------------

    Doubly Occupied:

       1A    -15.607097     2A    -11.270361     3A    -11.255807
       4A    -11.250225     5A    -11.247934     6A    -11.240803
       7A    -11.239658     8A    -11.239347     9A    -11.238046
      10A    -11.237195    11A    -11.207277    12A    -11.195293
      13A     -1.298328    14A     -1.155173    15A     -1.074450
      16A     -1.043845    17A     -1.016283    18A     -0.956701
      19A     -0.935893    20A     -0.834123    21A     -0.830836
      22A     -0.777894    23A     -0.744730    24A     -0.716547
      25A     -0.678334    26A     -0.640402    27A     -0.632675
      28A     -0.623000    29A     -0.599164    30A     -0.587367
      31A     -0.574394    32A     -0.568612    33A     -0.539169
      34A     -0.532224    35A     -0.523635    36A     -0.502229
      37A     -0.494734    38A     -0.491941    39A     -0.353907
      40A     -0.340352    41A     -0.334900    42A     -0.274790

  @DF-RHF Final Energy:  -477.53992509225498

   => Energetics <=

    Nuclear Repulsion Energy =            639.5866376049227711
    One-Electron Energy =               -1914.4417784645627307
    Two-Electron Energy =                 797.3152157673849842
    Total Energy =                       -477.5399250922549754
  Basis Set: (AUG-CC-PVTZ AUX)
    Blend: AUG-CC-PVTZ-RI
    Molecular point group: c1

    Geometry (in Angstrom), charge = 0, multiplicity = 1:

       Center              X                  Y                   Z               Mass
    ------------   -----------------  -----------------  -----------------  -----------------
         N           -1.755520208528     0.669316015596     0.205781435939    14.003074004430
         C           -0.860851208528    -0.338814984404    -0.108512564061    12.000000000000
         C            0.593477791472    -0.173872984404    -0.061441564061    12.000000000000
         C           -1.611918208528    -1.462476984404    -0.447202564061    12.000000000000
         C           -3.038849208528     0.200386015596     0.066281435939    12.000000000000
         C           -2.977425208528    -1.121715984404    -0.341097564061    12.000000000000
         C           -1.423653208528     2.004436015596     0.676385435939    12.000000000000
         C            1.239533791472     0.905061015596    -0.689761564061    12.000000000000
         C            1.376299791472    -1.141847984404     0.590763435939    12.000000000000
         C            2.629159791472     1.021907015596    -0.647435564061    12.000000000000
         C            2.766531791472    -1.034102984404     0.612690435939    12.000000000000
         C            3.397506791472     0.052666015596     0.001868435939    12.000000000000
         H           -1.233938108528    -2.322456784404    -0.737277764061     1.007825032230
         H           -3.884735208528     0.840516015596     0.281223435939     1.007825032230
         H           -3.827720208528    -1.761148984404    -0.540441564061     1.007825032230
         H           -2.223675208528     2.348768015596     1.334470435939     1.007825032230
         H           -0.489431208528     1.969860015596     1.237740435939     1.007825032230
         H           -1.316330208528     2.708934015596    -0.153584564061     1.007825032230
         H            0.651202791472     1.635783015596    -1.240706564061     1.007825032230
         H            0.878847791472    -1.972242984404     1.087159435939     1.007825032230
         H            3.114974791472     1.861763015596    -1.139297564061     1.007825032230
         H            3.358654791472    -1.791854984404     1.120952435939     1.007825032230
         H            4.480920791472     0.141473015596     0.027735435939     1.007825032230

  Basis Set: AUG-CC-PVTZ
    Blend: AUG-CC-PVTZ
  Basis Set: (AUG-CC-PVTZ AUX)
    Blend: AUG-CC-PVTZ-JKFIT
	 Reference Energy          =    -477.5399250922549754 [Eh]
	 Singles Energy            =      -0.0000000000000000 [Eh]
	 Same-Spin Energy          =      -0.5390211898807066 [Eh]
	 Opposite-Spin Energy      =      -1.6826653917723280 [Eh]
	 Correlation Energy        =      -2.2216865816530347 [Eh]
	 Total Energy              =    -479.7616116739080212 [Eh]

	 ================> DF-SCS-MP2 Energies <==================
	-----------------------------------------------------------
	 SCS Same-Spin Scale       =       0.3333333333333333 [-]
	 SCS Opposite-Spin Scale   =       1.2000000000000000 [-]
	 SCS Same-Spin Energy      =      -0.1796737299602355 [Eh]
	 SCS Opposite-Spin Energy  =      -2.0191984701267933 [Eh]
	 SCS Correlation Energy    =      -2.1988722000870289 [Eh]
	 SCS Total Energy          =    -479.7387972923419852 [Eh]
	-----------------------------------------------------------

  Dipole Moment: [D]
     X:     0.4848      Y:     1.8497      Z:     0.6732     Total:     2.0272

*** Psi4 exiting successfully. Buy a developer a beer!
