                               Psi4 1.3.2 release

  ==> Input File <==

--------------------------------------------------------------------------
#psi4
#
memory 32 gb

molecule  {
0 1
  N       -1.7531090     0.6487580     0.1985890
  C       -0.8562533    -0.3806611    -0.1017311
  C        0.5958890    -0.1944310    -0.0686340
  C       -1.6095070    -1.4830350    -0.4543950
  C       -3.0364380     0.1798280     0.0590890
  C       -2.9750140    -1.1422740    -0.3482900
  C       -1.4212420     1.9838780     0.6691930
  C        1.2419450     0.8845030    -0.6969540
  C        1.3787110    -1.1624060     0.5835710
  C        2.6315710     1.0013490    -0.6546280
  C        2.7689430    -1.0546610     0.6054980
  C        3.3999180     0.0321080    -0.0053240
  H       -1.1930810    -2.4304870    -0.7739750
  H       -3.8823240     0.8199580     0.2740310
  H       -3.8253090    -1.7817070    -0.5476340
  H       -2.2212640     2.3282100     1.3272780
  H       -0.4870200     1.9493020     1.2305480
  H       -1.3139190     2.6883760    -0.1607770
  H        0.6536140     1.6152250    -1.2478990
  H        0.8812590    -1.9928010     1.0799670
  H        3.1173860     1.8412050    -1.1464900
  H        3.3610660    -1.8124130     1.1137600
  H        4.4833320     0.1209150     0.0205430
units angstrom
no_reorient  #important for SAPT in psi4, default
symmetry c1  #important for SAPT in psi4, default
}

set PROPERTIES_ORIGIN ["COM"]
properties('MP2/aug-cc-pvtz', properties = ['dipole'])
--------------------------------------------------------------------------

    Molecular point group: c1
  Charge       = 0
  Multiplicity = 1
  Basis Set: AUG-CC-PVTZ
    Blend: AUG-CC-PVTZ
  Basis Set: (AUG-CC-PVTZ AUX)
    Blend: AUG-CC-PVTZ-JKFIT

    Orbital Energies [Eh]
    ---------------------

    Doubly Occupied:

       1A    -15.605924     2A    -11.270005     3A    -11.256072
       4A    -11.250109     5A    -11.249681     6A    -11.240874
       7A    -11.239677     8A    -11.239178     9A    -11.237840
      10A    -11.236644    11A    -11.208063    12A    -11.206869
      13A     -1.295399    14A     -1.155027    15A     -1.074310
      16A     -1.043688    17A     -1.016120    18A     -0.956038
      19A     -0.932290    20A     -0.833340    21A     -0.830443
      22A     -0.770202    23A     -0.743244    24A     -0.711835
      25A     -0.677782    26A     -0.638911    27A     -0.631677
      28A     -0.622323    29A     -0.596096    30A     -0.587016
      31A     -0.569924    32A     -0.567199    33A     -0.538970
      34A     -0.527011    35A     -0.523210    36A     -0.501699
      37A     -0.495832    38A     -0.491324    39A     -0.354763
      40A     -0.340159    41A     -0.334955    42A     -0.276273

  @DF-RHF Final Energy:  -477.54570058943995

   => Energetics <=

    Nuclear Repulsion Energy =            638.9512884283902849
    One-Electron Energy =               -1913.2379886047240234
    Two-Electron Energy =                 796.7409995868938495
    Total Energy =                       -477.5457005894400027
  Basis Set: (AUG-CC-PVTZ AUX)
    Blend: AUG-CC-PVTZ-RI
    Molecular point group: c1

    Geometry (in Angstrom), charge = 0, multiplicity = 1:

       Center              X                  Y                   Z               Mass
    ------------   -----------------  -----------------  -----------------  -----------------
         N           -1.755933904449     0.671503396928     0.204903265011    14.003074004430
         C           -0.859078204449    -0.357915703072    -0.095416834989    12.000000000000
         C            0.593064095551    -0.171685603072    -0.062319734989    12.000000000000
         C           -1.612331904449    -1.460289603072    -0.448080734989    12.000000000000
         C           -3.039262904449     0.202573396928     0.065403265011    12.000000000000
         C           -2.977838904449    -1.119528603072    -0.341975734989    12.000000000000
         C           -1.424066904449     2.006623396928     0.675507265011    12.000000000000
         C            1.239120095551     0.907248396928    -0.690639734989    12.000000000000
         C            1.375886095551    -1.139660603072     0.589885265011    12.000000000000
         C            2.628746095551     1.024094396928    -0.648313734989    12.000000000000
         C            2.766118095551    -1.031915603072     0.611812265011    12.000000000000
         C            3.397093095551     0.054853396928     0.000990265011    12.000000000000
         H           -1.195905904449    -2.407741603072    -0.767660734989     1.007825032230
         H           -3.885148904449     0.842703396928     0.280345265011     1.007825032230
         H           -3.828133904449    -1.758961603072    -0.541319734989     1.007825032230
         H           -2.224088904449     2.350955396928     1.333592265011     1.007825032230
         H           -0.489844904449     1.972047396928     1.236862265011     1.007825032230
         H           -1.316743904449     2.711121396928    -0.154462734989     1.007825032230
         H            0.650789095551     1.637970396928    -1.241584734989     1.007825032230
         H            0.878434095551    -1.970055603072     1.086281265011     1.007825032230
         H            3.114561095551     1.863950396928    -1.140175734989     1.007825032230
         H            3.358241095551    -1.789667603072     1.120074265011     1.007825032230
         H            4.480507095551     0.143660396928     0.026857265011     1.007825032230

  Basis Set: AUG-CC-PVTZ
    Blend: AUG-CC-PVTZ
  Basis Set: (AUG-CC-PVTZ AUX)
    Blend: AUG-CC-PVTZ-JKFIT
	 Reference Energy          =    -477.5457005894399458 [Eh]
	 Singles Energy            =      -0.0000000000000000 [Eh]
	 Same-Spin Energy          =      -0.5390135488035691 [Eh]
	 Opposite-Spin Energy      =      -1.6831622537211040 [Eh]
	 Correlation Energy        =      -2.2221758025246729 [Eh]
	 Total Energy              =    -479.7678763919645917 [Eh]

	 ================> DF-SCS-MP2 Energies <==================
	-----------------------------------------------------------
	 SCS Same-Spin Scale       =       0.3333333333333333 [-]
	 SCS Opposite-Spin Scale   =       1.2000000000000000 [-]
	 SCS Same-Spin Energy      =      -0.1796711829345230 [Eh]
	 SCS Opposite-Spin Energy  =      -2.0197947044653248 [Eh]
	 SCS Correlation Energy    =      -2.1994658873998478 [Eh]
	 SCS Total Energy          =    -479.7451664768398132 [Eh]
	-----------------------------------------------------------

  Dipole Moment: [D]
     X:     0.4793      Y:     1.8333      Z:     0.6601     Total:     2.0066

*** Psi4 exiting successfully. Buy a developer a beer!
