                               Psi4 1.3.2 release

  ==> Input File <==

--------------------------------------------------------------------------
#psi4
#
memory 32 gb

molecule  {
0 1
  N       -1.7531090     0.6487580     0.1985890
  C       -0.8584400    -0.3593730    -0.1157050
  C        0.5958890    -0.1944310    -0.0686340
  C       -1.6634106    -1.5636795    -0.4787026
  C       -3.0364380     0.1798280     0.0590890
  C       -2.9750140    -1.1422740    -0.3482900
  C       -1.4212420     1.9838780     0.6691930
  C        1.2419450     0.8845030    -0.6969540
  C        1.3787110    -1.1624060     0.5835710
  C        2.6315710     1.0013490    -0.6546280
  C        2.7689430    -1.0546610     0.6054980
  C        3.3999180     0.0321080    -0.0053240
  H       -1.1930810    -2.4304870    -0.7739750
  H       -3.8823240     0.8199580     0.2740310
  H       -3.8253090    -1.7817070    -0.5476340
  H       -2.2212640     2.3282100     1.3272780
  H       -0.4870200     1.9493020     1.2305480
  H       -1.3139190     2.6883760    -0.1607770
  H        0.6536140     1.6152250    -1.2478990
  H        0.8812590    -1.9928010     1.0799670
  H        3.1173860     1.8412050    -1.1464900
  H        3.3610660    -1.8124130     1.1137600
  H        4.4833320     0.1209150     0.0205430
units angstrom
no_reorient  #important for SAPT in psi4, default
symmetry c1  #important for SAPT in psi4, default
}

set PROPERTIES_ORIGIN ["COM"]
properties('MP2/aug-cc-pvtz', properties = ['dipole'])
--------------------------------------------------------------------------

    Molecular point group: c1
  Charge       = 0
  Multiplicity = 1
  Basis Set: AUG-CC-PVTZ
    Blend: AUG-CC-PVTZ
  Basis Set: (AUG-CC-PVTZ AUX)
    Blend: AUG-CC-PVTZ-JKFIT

    Orbital Energies [Eh]
    ---------------------

    Doubly Occupied:

       1A    -15.616354     2A    -11.273306     3A    -11.266129
       4A    -11.250664     5A    -11.245478     6A    -11.240870
       7A    -11.239678     8A    -11.239398     9A    -11.237981
      10A    -11.237079    11A    -11.211428    12A    -11.209232
      13A     -1.297877    14A     -1.155101    15A     -1.071259
      16A     -1.043356    17A     -1.016315    18A     -0.949559
      19A     -0.940316    20A     -0.833630    21A     -0.830451
      22A     -0.772700    23A     -0.743856    24A     -0.712890
      25A     -0.677870    26A     -0.641356    27A     -0.634156
      28A     -0.623012    29A     -0.598925    30A     -0.587564
      31A     -0.575999    32A     -0.565822    33A     -0.549106
      34A     -0.525342    35A     -0.518854    36A     -0.502419
      37A     -0.492712    38A     -0.486352    39A     -0.352000
      40A     -0.342556    41A     -0.339061    42A     -0.263979

  @DF-RHF Final Energy:  -477.53069523276758

   => Energetics <=

    Nuclear Repulsion Energy =            637.2136555412197367
    One-Electron Energy =               -1909.6647201669152309
    Two-Electron Energy =                 794.9203693929277961
    Total Energy =                       -477.5306952327675845
  Basis Set: (AUG-CC-PVTZ AUX)
    Blend: AUG-CC-PVTZ-RI
    Molecular point group: c1

    Geometry (in Angstrom), charge = 0, multiplicity = 1:

       Center              X                  Y                   Z               Mass
    ------------   -----------------  -----------------  -----------------  -----------------
         N           -1.751649180757     0.676037617165     0.207827579019    14.003074004430
         C           -0.856980180757    -0.332093382835    -0.106466420981    12.000000000000
         C            0.597348819243    -0.167151382835    -0.059395420981    12.000000000000
         C           -1.661950780757    -1.536399882835    -0.469464020981    12.000000000000
         C           -3.034978180757     0.207107617165     0.068327579019    12.000000000000
         C           -2.973554180757    -1.114994382835    -0.339051420981    12.000000000000
         C           -1.419782180757     2.011157617165     0.678431579019    12.000000000000
         C            1.243404819243     0.911782617165    -0.687715420981    12.000000000000
         C            1.380170819243    -1.135126382835     0.592809579019    12.000000000000
         C            2.633030819243     1.028628617165    -0.645389420981    12.000000000000
         C            2.770402819243    -1.027381382835     0.614736579019    12.000000000000
         C            3.401377819243     0.059387617165     0.003914579019    12.000000000000
         H           -1.191621180757    -2.403207382835    -0.764736420981     1.007825032230
         H           -3.880864180757     0.847237617165     0.283269579019     1.007825032230
         H           -3.823849180757    -1.754427382835    -0.538395420981     1.007825032230
         H           -2.219804180757     2.355489617165     1.336516579019     1.007825032230
         H           -0.485560180757     1.976581617165     1.239786579019     1.007825032230
         H           -1.312459180757     2.715655617165    -0.151538420981     1.007825032230
         H            0.655073819243     1.642504617165    -1.238660420981     1.007825032230
         H            0.882718819243    -1.965521382835     1.089205579019     1.007825032230
         H            3.118845819243     1.868484617165    -1.137251420981     1.007825032230
         H            3.362525819243    -1.785133382835     1.122998579019     1.007825032230
         H            4.484791819243     0.148194617165     0.029781579019     1.007825032230

  Basis Set: AUG-CC-PVTZ
    Blend: AUG-CC-PVTZ
  Basis Set: (AUG-CC-PVTZ AUX)
    Blend: AUG-CC-PVTZ-JKFIT
	 Reference Energy          =    -477.5306952327675845 [Eh]
	 Singles Energy            =      -0.0000000000000000 [Eh]
	 Same-Spin Energy          =      -0.5409288010673163 [Eh]
	 Opposite-Spin Energy      =      -1.6860179018605823 [Eh]
	 Correlation Energy        =      -2.2269467029278989 [Eh]
	 Total Energy              =    -479.7576419356954602 [Eh]

	 ================> DF-SCS-MP2 Energies <==================
	-----------------------------------------------------------
	 SCS Same-Spin Scale       =       0.3333333333333333 [-]
	 SCS Opposite-Spin Scale   =       1.2000000000000000 [-]
	 SCS Same-Spin Energy      =      -0.1803096003557721 [Eh]
	 SCS Opposite-Spin Energy  =      -2.0232214822326986 [Eh]
	 SCS Correlation Energy    =      -2.2035310825884706 [Eh]
	 SCS Total Energy          =    -479.7342263153560680 [Eh]
	-----------------------------------------------------------

  Dipole Moment: [D]
     X:     0.3987      Y:     1.9220      Z:     0.6899     Total:     2.0807

*** Psi4 exiting successfully. Buy a developer a beer!
