                               Psi4 1.3.2 release

  ==> Input File <==

--------------------------------------------------------------------------
#psi4
#
memory 32 gb

molecule  {
0 1
  N       -1.7531090     0.6487580     0.1985890
  C       -0.7937977    -0.4322132    -0.1384136
  C        0.5958890    -0.1944310    -0.0686340
  C       -1.6095070    -1.4830350    -0.4543950
  C       -3.0364380     0.1798280     0.0590890
  C       -2.9750140    -1.1422740    -0.3482900
  C       -1.4212420     1.9838780     0.6691930
  C        1.2419450     0.8845030    -0.6969540
  C        1.3787110    -1.1624060     0.5835710
  C        2.6315710     1.0013490    -0.6546280
  C        2.7689430    -1.0546610     0.6054980
  C        3.3999180     0.0321080    -0.0053240
  H       -1.1930810    -2.4304870    -0.7739750
  H       -3.8823240     0.8199580     0.2740310
  H       -3.8253090    -1.7817070    -0.5476340
  H       -2.2212640     2.3282100     1.3272780
  H       -0.4870200     1.9493020     1.2305480
  H       -1.3139190     2.6883760    -0.1607770
  H        0.6536140     1.6152250    -1.2478990
  H        0.8812590    -1.9928010     1.0799670
  H        3.1173860     1.8412050    -1.1464900
  H        3.3610660    -1.8124130     1.1137600
  H        4.4833320     0.1209150     0.0205430
units angstrom
no_reorient  #important for SAPT in psi4, default
symmetry c1  #important for SAPT in psi4, default
}

set PROPERTIES_ORIGIN ["COM"]
properties('MP2/aug-cc-pvtz', properties = ['dipole'])
--------------------------------------------------------------------------

    Molecular point group: c1
  Charge       = 0
  Multiplicity = 1
  Basis Set: AUG-CC-PVTZ
    Blend: AUG-CC-PVTZ
  Basis Set: (AUG-CC-PVTZ AUX)
    Blend: AUG-CC-PVTZ-JKFIT

    Orbital Energies [Eh]
    ---------------------

    Doubly Occupied:

       1A    -15.599470     2A    -11.265347     3A    -11.256389
       4A    -11.256013     5A    -11.247048     6A    -11.241701
       7A    -11.240564     8A    -11.239570     9A    -11.238482
      10A    -11.237061    11A    -11.212459    12A    -11.206345
      13A     -1.275460    14A     -1.157744    15A     -1.074063
      16A     -1.049017    17A     -1.016830    18A     -0.956128
      19A     -0.923455    20A     -0.839339    21A     -0.831722
      22A     -0.763803    23A     -0.746489    24A     -0.708071
      25A     -0.678111    26A     -0.637423    27A     -0.631711
      28A     -0.619876    29A     -0.595724    30A     -0.587443
      31A     -0.575193    32A     -0.556404    33A     -0.543594
      34A     -0.520794    35A     -0.518873    36A     -0.503546
      37A     -0.496637    38A     -0.488981    39A     -0.360272
      40A     -0.340526    41A     -0.332512    42A     -0.275069

  @DF-RHF Final Energy:  -477.53301044273252

   => Energetics <=

    Nuclear Repulsion Energy =            638.5181565102982404
    One-Electron Energy =               -1912.4118164903052275
    Two-Electron Energy =                 796.3606495372745258
    Total Energy =                       -477.5330104427324613
  Basis Set: (AUG-CC-PVTZ AUX)
    Blend: AUG-CC-PVTZ-RI
    Molecular point group: c1

    Geometry (in Angstrom), charge = 0, multiplicity = 1:

       Center              X                  Y                   Z               Mass
    ------------   -----------------  -----------------  -----------------  -----------------
         N           -1.760704871782     0.675441448681     0.207705431818    14.003074004430
         C           -0.801393571782    -0.405529751319    -0.129297168182    12.000000000000
         C            0.588293128218    -0.167747551319    -0.059517568182    12.000000000000
         C           -1.617102871782    -1.456351551319    -0.445278568182    12.000000000000
         C           -3.044033871782     0.206511448681     0.068205431818    12.000000000000
         C           -2.982609871782    -1.115590551319    -0.339173568182    12.000000000000
         C           -1.428837871782     2.010561448681     0.678309431818    12.000000000000
         C            1.234349128218     0.911186448681    -0.687837568182    12.000000000000
         C            1.371115128218    -1.135722551319     0.592687431818    12.000000000000
         C            2.623975128218     1.028032448681    -0.645511568182    12.000000000000
         C            2.761347128218    -1.027977551319     0.614614431818    12.000000000000
         C            3.392322128218     0.058791448681     0.003792431818    12.000000000000
         H           -1.200676871782    -2.403803551319    -0.764858568182     1.007825032230
         H           -3.889919871782     0.846641448681     0.283147431818     1.007825032230
         H           -3.832904871782    -1.755023551319    -0.538517568182     1.007825032230
         H           -2.228859871782     2.354893448681     1.336394431818     1.007825032230
         H           -0.494615871782     1.975985448681     1.239664431818     1.007825032230
         H           -1.321514871782     2.715059448681    -0.151660568182     1.007825032230
         H            0.646018128218     1.641908448681    -1.238782568182     1.007825032230
         H            0.873663128218    -1.966117551319     1.089083431818     1.007825032230
         H            3.109790128218     1.867888448681    -1.137373568182     1.007825032230
         H            3.353470128218    -1.785729551319     1.122876431818     1.007825032230
         H            4.475736128218     0.147598448681     0.029659431818     1.007825032230

  Basis Set: AUG-CC-PVTZ
    Blend: AUG-CC-PVTZ
  Basis Set: (AUG-CC-PVTZ AUX)
    Blend: AUG-CC-PVTZ-JKFIT
	 Reference Energy          =    -477.5330104427325182 [Eh]
	 Singles Energy            =      -0.0000000000000000 [Eh]
	 Same-Spin Energy          =      -0.5398939240434347 [Eh]
	 Opposite-Spin Energy      =      -1.6853379851294146 [Eh]
	 Correlation Energy        =      -2.2252319091728494 [Eh]
	 Total Energy              =    -479.7582423519053805 [Eh]

	 ================> DF-SCS-MP2 Energies <==================
	-----------------------------------------------------------
	 SCS Same-Spin Scale       =       0.3333333333333333 [-]
	 SCS Opposite-Spin Scale   =       1.2000000000000000 [-]
	 SCS Same-Spin Energy      =      -0.1799646413478116 [Eh]
	 SCS Opposite-Spin Energy  =      -2.0224055821552973 [Eh]
	 SCS Correlation Energy    =      -2.2023702235031091 [Eh]
	 SCS Total Energy          =    -479.7353806662356419 [Eh]
	-----------------------------------------------------------

  Dipole Moment: [D]
     X:     0.5600      Y:     1.7166      Z:     0.6159     Total:     1.9078

*** Psi4 exiting successfully. Buy a developer a beer!
