                               Psi4 1.3.2 release

  ==> Input File <==

--------------------------------------------------------------------------
#psi4
#
memory 32 gb

molecule  {
0 1
  N       -1.7531090     0.6487580     0.1985890
  C       -0.8584400    -0.3593730    -0.1157050
  C        0.5958890    -0.1944310    -0.0686340
  C       -1.6095070    -1.4830350    -0.4543950
  C       -3.0447664     0.2009310     0.0668274
  C       -2.9750140    -1.1422740    -0.3482900
  C       -1.4212420     1.9838780     0.6691930
  C        1.2419450     0.8845030    -0.6969540
  C        1.3787110    -1.1624060     0.5835710
  C        2.6315710     1.0013490    -0.6546280
  C        2.7689430    -1.0546610     0.6054980
  C        3.3999180     0.0321080    -0.0053240
  H       -1.1930810    -2.4304870    -0.7739750
  H       -3.8823240     0.8199580     0.2740310
  H       -3.8253090    -1.7817070    -0.5476340
  H       -2.2212640     2.3282100     1.3272780
  H       -0.4870200     1.9493020     1.2305480
  H       -1.3139190     2.6883760    -0.1607770
  H        0.6536140     1.6152250    -1.2478990
  H        0.8812590    -1.9928010     1.0799670
  H        3.1173860     1.8412050    -1.1464900
  H        3.3610660    -1.8124130     1.1137600
  H        4.4833320     0.1209150     0.0205430
units angstrom
no_reorient  #important for SAPT in psi4, default
symmetry c1  #important for SAPT in psi4, default
}

set PROPERTIES_ORIGIN ["COM"]
properties('MP2/aug-cc-pvtz', properties = ['dipole'])
--------------------------------------------------------------------------

    Molecular point group: c1
  Charge       = 0
  Multiplicity = 1
  Basis Set: AUG-CC-PVTZ
    Blend: AUG-CC-PVTZ
  Basis Set: (AUG-CC-PVTZ AUX)
    Blend: AUG-CC-PVTZ-JKFIT

    Orbital Energies [Eh]
    ---------------------

    Doubly Occupied:

       1A    -15.609399     2A    -11.270414     3A    -11.256782
       4A    -11.250454     5A    -11.249234     6A    -11.240836
       7A    -11.239698     8A    -11.239389     9A    -11.238082
      10A    -11.237227    11A    -11.210802    12A    -11.207833
      13A     -1.298488    14A     -1.155242    15A     -1.071735
      16A     -1.043298    17A     -1.016303    18A     -0.956058
      19A     -0.932933    20A     -0.833694    21A     -0.830682
      22A     -0.771317    23A     -0.744114    24A     -0.711931
      25A     -0.679111    26A     -0.640679    27A     -0.633749
      28A     -0.622682    29A     -0.597474    30A     -0.587349
      31A     -0.570154    32A     -0.567225    33A     -0.540108
      34A     -0.524902    35A     -0.522782    36A     -0.502544
      37A     -0.494902    38A     -0.491763    39A     -0.354059
      40A     -0.340306    41A     -0.334470    42A     -0.273744

  @DF-RHF Final Energy:  -477.54427409486061

   => Energetics <=

    Nuclear Repulsion Energy =            638.7228767792549888
    One-Electron Energy =               -1912.7464071876111120
    Two-Electron Energy =                 796.4792563134956254
    Total Energy =                       -477.5442740948606115
  Basis Set: (AUG-CC-PVTZ AUX)
    Blend: AUG-CC-PVTZ-RI
    Molecular point group: c1

    Geometry (in Angstrom), charge = 0, multiplicity = 1:

       Center              X                  Y                   Z               Mass
    ------------   -----------------  -----------------  -----------------  -----------------
         N           -1.755130658646     0.668265151625     0.205379593264    14.003074004430
         C           -0.860461658646    -0.339865848375    -0.108914406736    12.000000000000
         C            0.593867341354    -0.174923848375    -0.061843406736    12.000000000000
         C           -1.611528658646    -1.463527848375    -0.447604406736    12.000000000000
         C           -3.046788058646     0.220438151625     0.073617993264    12.000000000000
         C           -2.977035658646    -1.122766848375    -0.341499406736    12.000000000000
         C           -1.423263658646     2.003385151625     0.675983593264    12.000000000000
         C            1.239923341354     0.904010151625    -0.690163406736    12.000000000000
         C            1.376689341354    -1.142898848375     0.590361593264    12.000000000000
         C            2.629549341354     1.020856151625    -0.647837406736    12.000000000000
         C            2.766921341354    -1.035153848375     0.612288593264    12.000000000000
         C            3.397896341354     0.051615151625     0.001466593264    12.000000000000
         H           -1.195102658646    -2.410979848375    -0.767184406736     1.007825032230
         H           -3.884345658646     0.839465151625     0.280821593264     1.007825032230
         H           -3.827330658646    -1.762199848375    -0.540843406736     1.007825032230
         H           -2.223285658646     2.347717151625     1.334068593264     1.007825032230
         H           -0.489041658646     1.968809151625     1.237338593264     1.007825032230
         H           -1.315940658646     2.707883151625    -0.153986406736     1.007825032230
         H            0.651592341354     1.634732151625    -1.241108406736     1.007825032230
         H            0.879237341354    -1.973293848375     1.086757593264     1.007825032230
         H            3.115364341354     1.860712151625    -1.139699406736     1.007825032230
         H            3.359044341354    -1.792905848375     1.120550593264     1.007825032230
         H            4.481310341354     0.140422151625     0.027333593264     1.007825032230

  Basis Set: AUG-CC-PVTZ
    Blend: AUG-CC-PVTZ
  Basis Set: (AUG-CC-PVTZ AUX)
    Blend: AUG-CC-PVTZ-JKFIT
	 Reference Energy          =    -477.5442740948606115 [Eh]
	 Singles Energy            =      -0.0000000000000000 [Eh]
	 Same-Spin Energy          =      -0.5394845760966962 [Eh]
	 Opposite-Spin Energy      =      -1.6837870344861687 [Eh]
	 Correlation Energy        =      -2.2232716105828647 [Eh]
	 Total Energy              =    -479.7675457054434673 [Eh]

	 ================> DF-SCS-MP2 Energies <==================
	-----------------------------------------------------------
	 SCS Same-Spin Scale       =       0.3333333333333333 [-]
	 SCS Opposite-Spin Scale   =       1.2000000000000000 [-]
	 SCS Same-Spin Energy      =      -0.1798281920322320 [Eh]
	 SCS Opposite-Spin Energy  =      -2.0205444413834024 [Eh]
	 SCS Correlation Energy    =      -2.2003726334156344 [Eh]
	 SCS Total Energy          =    -479.7446467282762228 [Eh]
	-----------------------------------------------------------

  Dipole Moment: [D]
     X:     0.4995      Y:     1.8663      Z:     0.6773     Total:     2.0473

*** Psi4 exiting successfully. Buy a developer a beer!
