                               Psi4 1.3.2 release

  ==> Input File <==

--------------------------------------------------------------------------
#psi4
#
memory 32 gb

molecule  {
0 1
  N       -1.7531090     0.6487580     0.1985890
  C       -0.8584400    -0.3593730    -0.1157050
  C        0.4693308    -0.1362186    -0.1160343
  C       -1.6095070    -1.4830350    -0.4543950
  C       -3.0364380     0.1798280     0.0590890
  C       -2.9750140    -1.1422740    -0.3482900
  C       -1.4212420     1.9838780     0.6691930
  C        1.2419450     0.8845030    -0.6969540
  C        1.3787110    -1.1624060     0.5835710
  C        2.6315710     1.0013490    -0.6546280
  C        2.7689430    -1.0546610     0.6054980
  C        3.3999180     0.0321080    -0.0053240
  H       -1.1930810    -2.4304870    -0.7739750
  H       -3.8823240     0.8199580     0.2740310
  H       -3.8253090    -1.7817070    -0.5476340
  H       -2.2212640     2.3282100     1.3272780
  H       -0.4870200     1.9493020     1.2305480
  H       -1.3139190     2.6883760    -0.1607770
  H        0.6536140     1.6152250    -1.2478990
  H        0.8812590    -1.9928010     1.0799670
  H        3.1173860     1.8412050    -1.1464900
  H        3.3610660    -1.8124130     1.1137600
  H        4.4833320     0.1209150     0.0205430
units angstrom
no_reorient  #important for SAPT in psi4, default
symmetry c1  #important for SAPT in psi4, default
}

set PROPERTIES_ORIGIN ["COM"]
properties('MP2/aug-cc-pvtz', properties = ['dipole'])
--------------------------------------------------------------------------

    Molecular point group: c1
  Charge       = 0
  Multiplicity = 1
  Basis Set: AUG-CC-PVTZ
    Blend: AUG-CC-PVTZ
  Basis Set: (AUG-CC-PVTZ AUX)
    Blend: AUG-CC-PVTZ-JKFIT

    Orbital Energies [Eh]
    ---------------------

    Doubly Occupied:

       1A    -15.608850     2A    -11.271352     3A    -11.253199
       4A    -11.253001     5A    -11.250503     6A    -11.247640
       7A    -11.240243     8A    -11.239185     9A    -11.238169
      10A    -11.236615    11A    -11.213420    12A    -11.211513
      13A     -1.304117    14A     -1.145018    15A     -1.077864
      16A     -1.057042    17A     -1.009530    18A     -0.954217
      19A     -0.935730    20A     -0.845624    21A     -0.822433
      22A     -0.775514    23A     -0.744604    24A     -0.714731
      25A     -0.681234    26A     -0.641443    27A     -0.635179
      28A     -0.619705    29A     -0.594000    30A     -0.580551
      31A     -0.573313    32A     -0.569287    33A     -0.542896
      34A     -0.530613    35A     -0.527371    36A     -0.514420
      37A     -0.490114    38A     -0.467450    39A     -0.358392
      40A     -0.338702    41A     -0.334396    42A     -0.267614

  @DF-RHF Final Energy:  -477.51473753111406

   => Energetics <=

    Nuclear Repulsion Energy =            639.4248768379900412
    One-Electron Energy =               -1914.0456355329426970
    Two-Electron Energy =                 797.1060211638385908
    Total Energy =                       -477.5147375311140650
  Basis Set: (AUG-CC-PVTZ AUX)
    Blend: AUG-CC-PVTZ-RI
    Molecular point group: c1

    Geometry (in Angstrom), charge = 0, multiplicity = 1:

       Center              X                  Y                   Z               Mass
    ------------   -----------------  -----------------  -----------------  -----------------
         N           -1.746099114419     0.665430374037     0.209591624475    14.003074004430
         C           -0.851430114419    -0.342700625963    -0.104702375525    12.000000000000
         C            0.476340685581    -0.119546225963    -0.105031675525    12.000000000000
         C           -1.602497114419    -1.466362625963    -0.443392375525    12.000000000000
         C           -3.029428114419     0.196500374037     0.070091624475    12.000000000000
         C           -2.968004114419    -1.125601625963    -0.337287375525    12.000000000000
         C           -1.414232114419     2.000550374037     0.680195624475    12.000000000000
         C            1.248954885581     0.901175374037    -0.685951375525    12.000000000000
         C            1.385720885581    -1.145733625963     0.594573624475    12.000000000000
         C            2.638580885581     1.018021374037    -0.643625375525    12.000000000000
         C            2.775952885581    -1.037988625963     0.616500624475    12.000000000000
         C            3.406927885581     0.048780374037     0.005678624475    12.000000000000
         H           -1.186071114419    -2.413814625963    -0.762972375525     1.007825032230
         H           -3.875314114419     0.836630374037     0.285033624475     1.007825032230
         H           -3.818299114419    -1.765034625963    -0.536631375525     1.007825032230
         H           -2.214254114419     2.344882374037     1.338280624475     1.007825032230
         H           -0.480010114419     1.965974374037     1.241550624475     1.007825032230
         H           -1.306909114419     2.705048374037    -0.149774375525     1.007825032230
         H            0.660623885581     1.631897374037    -1.236896375525     1.007825032230
         H            0.888268885581    -1.976128625963     1.090969624475     1.007825032230
         H            3.124395885581     1.857877374037    -1.135487375525     1.007825032230
         H            3.368075885581    -1.795740625963     1.124762624475     1.007825032230
         H            4.490341885581     0.137587374037     0.031545624475     1.007825032230

  Basis Set: AUG-CC-PVTZ
    Blend: AUG-CC-PVTZ
  Basis Set: (AUG-CC-PVTZ AUX)
    Blend: AUG-CC-PVTZ-JKFIT
	 Reference Energy          =    -477.5147375311140650 [Eh]
	 Singles Energy            =      -0.0000000000000000 [Eh]
	 Same-Spin Energy          =      -0.5420558822243076 [Eh]
	 Opposite-Spin Energy      =      -1.6880154568620638 [Eh]
	 Correlation Energy        =      -2.2300713390863711 [Eh]
	 Total Energy              =    -479.7448088702004156 [Eh]

	 ================> DF-SCS-MP2 Energies <==================
	-----------------------------------------------------------
	 SCS Same-Spin Scale       =       0.3333333333333333 [-]
	 SCS Opposite-Spin Scale   =       1.2000000000000000 [-]
	 SCS Same-Spin Energy      =      -0.1806852940747692 [Eh]
	 SCS Opposite-Spin Energy  =      -2.0256185482344766 [Eh]
	 SCS Correlation Energy    =      -2.2063038423092456 [Eh]
	 SCS Total Energy          =    -479.7210413734233043 [Eh]
	-----------------------------------------------------------

  Dipole Moment: [D]
     X:     0.0664      Y:     1.8163      Z:     0.6438     Total:     1.9281

*** Psi4 exiting successfully. Buy a developer a beer!
