                               Psi4 1.4a3.dev225

  ==> Input File <==

--------------------------------------------------------------------------
#psi4
#
memory 32 gb

molecule  {
0 1
  C        0.0785380     0.5601430     0.0474840
  C       -1.2103730    -0.2423090    -0.0217710
  O        1.2205566    -0.2494329    -0.1087851
  H        0.1268240     1.2788600    -0.7736210
  H        0.1272230     1.1296140     0.9866460
  H       -2.0849970     0.4119200     0.0466030
  H        1.2480680    -0.8836960     0.6349600
  H       -1.2644420    -0.9616760     0.8021020
  H       -1.2558420    -0.7945950    -0.9629440
units angstrom
no_reorient  #important for SAPT in psi4, default
symmetry c1  #important for SAPT in psi4, default
}

set PROPERTIES_ORIGIN ["COM"]
properties('MP2/aug-cc-pvtz', properties = ['dipole'])
--------------------------------------------------------------------------

    Molecular point group: c1
  Charge       = 0
  Multiplicity = 1
  Basis Set: AUG-CC-PVTZ
    Blend: AUG-CC-PVTZ
  Basis Set: (AUG-CC-PVTZ AUX)
    Blend: AUG-CC-PVTZ-JKFIT

    Orbital Energies [Eh]
    ---------------------

    Doubly Occupied:

       1A    -20.557193     2A    -11.273859     3A    -11.218537
       4A     -1.359060     5A     -1.010106     6A     -0.846509
       7A     -0.687201     8A     -0.623978     9A     -0.606235
      10A     -0.544720    11A     -0.526150    12A     -0.479936
      13A     -0.441941

  @DF-RHF Final Energy:  -154.14409296517533

   => Energetics <=

    Nuclear Repulsion Energy =             81.9001511984930488
    One-Electron Energy =                -371.7376396356505097
    Two-Electron Energy =                 135.6933954719821145
    Total Energy =                       -154.1440929651753322
  Basis Set: (AUG-CC-PVTZ AUX)
    Blend: AUG-CC-PVTZ-RI
    Molecular point group: c1

    Geometry (in Angstrom), charge = 0, multiplicity = 1:

       Center              X                  Y                   Z               Mass
    ------------   -----------------  -----------------  -----------------  -----------------
         C            0.017436429879     0.560008580851     0.062513035055    12.000000000000
         C           -1.271474570121    -0.242443419149    -0.006741964945    12.000000000000
         O            1.159455029879    -0.249567319149    -0.093756064945    15.994914619570
         H            0.065722429879     1.278725580851    -0.758591964945     1.007825032230
         H            0.066121429879     1.129479580851     1.001675035055     1.007825032230
         H           -2.146098570121     0.411785580851     0.061632035055     1.007825032230
         H            1.186966429879    -0.883830419149     0.649989035055     1.007825032230
         H           -1.325543570121    -0.961810419149     0.817131035055     1.007825032230
         H           -1.316943570121    -0.794729419149    -0.947914964945     1.007825032230

  Basis Set: AUG-CC-PVTZ
    Blend: AUG-CC-PVTZ
  Basis Set: (AUG-CC-PVTZ AUX)
    Blend: AUG-CC-PVTZ-JKFIT
	 Reference Energy          =    -154.1440929651753322 [Eh]
	 Singles Energy            =      -0.0000000000000000 [Eh]
	 Same-Spin Energy          =      -0.1482030692901293 [Eh]
	 Opposite-Spin Energy      =      -0.5178857210234202 [Eh]
	 Correlation Energy        =      -0.6660887903135495 [Eh]
	 Total Energy              =    -154.8101817554888839 [Eh]

	 ================> DF-SCS-MP2 Energies <==================
	-----------------------------------------------------------
	 SCS Same-Spin Scale       =       0.3333333333333333 [-]
	 SCS Opposite-Spin Scale   =       1.2000000000000000 [-]
	 SCS Same-Spin Energy      =      -0.0494010230967098 [Eh]
	 SCS Opposite-Spin Energy  =      -0.6214628652281042 [Eh]
	 SCS Correlation Energy    =      -0.6708638883248140 [Eh]
	 SCS Total Energy          =    -154.8149568535001492 [Eh]
	-----------------------------------------------------------

  Dipole Moment: [D]
     X:    -1.2058      Y:    -0.1108      Z:     1.1808     Total:     1.6913

*** Psi4 exiting successfully. Buy a developer a beer!
