                               Psi4 1.3.2 release

  ==> Input File <==

--------------------------------------------------------------------------
#psi4
#
memory 32 gb

molecule  {
0 1
  C        0.0845453     0.5722928     0.0265967
  C       -1.2103460    -0.2423030    -0.0217610
  O        1.2367980    -0.2609050    -0.1110110
  H        0.1267890     1.2787770    -0.7736430
  H        0.1272170     1.1296450     0.9866060
  H       -2.0849510     0.4119050     0.0472240
  H        1.2481260    -0.8835950     0.6350260
  H       -1.2641960    -0.9621080     0.8017360
  H       -1.2562270    -0.7941330    -0.9631930
units angstrom
no_reorient  #important for SAPT in psi4, default
symmetry c1  #important for SAPT in psi4, default
}

set PROPERTIES_ORIGIN ["COM"]
properties('MP2/aug-cc-pvtz', properties = ['dipole'])
--------------------------------------------------------------------------

    Molecular point group: c1
  Charge       = 0
  Multiplicity = 1
  Basis Set: AUG-CC-PVTZ
    Blend: AUG-CC-PVTZ
  Basis Set: (AUG-CC-PVTZ AUX)
    Blend: AUG-CC-PVTZ-JKFIT

    Orbital Energies [Eh]
    ---------------------

    Doubly Occupied:

       1A    -20.556147     2A    -11.275831     3A    -11.219982
       4A     -1.352687     5A     -1.009681     6A     -0.848086
       7A     -0.683101     8A     -0.623139     9A     -0.604134
      10A     -0.542468    11A     -0.526793    12A     -0.485859
      13A     -0.440563

  @DF-RHF Final Energy:  -154.14360239651054

   => Energetics <=

    Nuclear Repulsion Energy =             81.4677840786945637
    One-Electron Energy =                -370.8858288452643706
    Two-Electron Energy =                 135.2744423700592336
    Total Energy =                       -154.1436023965105448
  Basis Set: (AUG-CC-PVTZ AUX)
    Blend: AUG-CC-PVTZ-RI
    Molecular point group: c1

    Geometry (in Angstrom), charge = 0, multiplicity = 1:

       Center              X                  Y                   Z               Mass
    ------------   -----------------  -----------------  -----------------  -----------------
         C            0.016230407548     0.572974185323     0.047840092431    12.000000000000
         C           -1.278660892452    -0.241621614677    -0.000517607569    12.000000000000
         O            1.168483107548    -0.260223614677    -0.089767607569    15.994914619570
         H            0.058474107548     1.279458385323    -0.752399607569     1.007825032230
         H            0.058902107548     1.130326385323     1.007849392431     1.007825032230
         H           -2.153265892452     0.412586385323     0.068467392431     1.007825032230
         H            1.179811107548    -0.882913614677     0.656269392431     1.007825032230
         H           -1.332510892452    -0.961426614677     0.822979392431     1.007825032230
         H           -1.324541892452    -0.793451614677    -0.941949607569     1.007825032230

  Basis Set: AUG-CC-PVTZ
    Blend: AUG-CC-PVTZ
  Basis Set: (AUG-CC-PVTZ AUX)
    Blend: AUG-CC-PVTZ-JKFIT
	 Reference Energy          =    -154.1436023965105448 [Eh]
	 Singles Energy            =      -0.0000000000000000 [Eh]
	 Same-Spin Energy          =      -0.1480679196061623 [Eh]
	 Opposite-Spin Energy      =      -0.5180230889756112 [Eh]
	 Correlation Energy        =      -0.6660910085817735 [Eh]
	 Total Energy              =    -154.8096934050923323 [Eh]

	 ================> DF-SCS-MP2 Energies <==================
	-----------------------------------------------------------
	 SCS Same-Spin Scale       =       0.3333333333333333 [-]
	 SCS Opposite-Spin Scale   =       1.2000000000000000 [-]
	 SCS Same-Spin Energy      =      -0.0493559732020541 [Eh]
	 SCS Opposite-Spin Energy  =      -0.6216277067707334 [Eh]
	 SCS Correlation Energy    =      -0.6709836799727875 [Eh]
	 SCS Total Energy          =    -154.8145860764833230 [Eh]
	-----------------------------------------------------------

  Dipole Moment: [D]
     X:    -1.2794      Y:    -0.0481      Z:     1.1614     Total:     1.7286

*** Psi4 exiting successfully. Buy a developer a beer!
