                               Psi4 1.3.2 release

  ==> Input File <==

--------------------------------------------------------------------------
#psi4
#
memory 32 gb

molecule  {
0 1
  C        0.0784890     0.5600950     0.0474820
  C       -1.2103460    -0.2423030    -0.0217610
  O        1.2077593    -0.3114380    -0.0301040
  H        0.1267890     1.2787770    -0.7736430
  H        0.1272170     1.1296450     0.9866060
  H       -2.0849510     0.4119050     0.0472240
  H        1.2481260    -0.8835950     0.6350260
  H       -1.2641960    -0.9621080     0.8017360
  H       -1.2562270    -0.7941330    -0.9631930
units angstrom
no_reorient  #important for SAPT in psi4, default
symmetry c1  #important for SAPT in psi4, default
}

set PROPERTIES_ORIGIN ["COM"]
properties('MP2/aug-cc-pvtz', properties = ['dipole'])
--------------------------------------------------------------------------

    Molecular point group: c1
  Charge       = 0
  Multiplicity = 1
  Basis Set: AUG-CC-PVTZ
    Blend: AUG-CC-PVTZ
  Basis Set: (AUG-CC-PVTZ AUX)
    Blend: AUG-CC-PVTZ-JKFIT

    Orbital Energies [Eh]
    ---------------------

    Doubly Occupied:

       1A    -20.543506     2A    -11.278439     3A    -11.218840
       4A     -1.372714     5A     -1.016412     6A     -0.855777
       7A     -0.696776     8A     -0.630058     9A     -0.607705
      10A     -0.543715    11A     -0.526082    12A     -0.481062
      13A     -0.444122

  @DF-RHF Final Energy:  -154.13932098628516

   => Energetics <=

    Nuclear Repulsion Energy =             82.1608824716509787
    One-Electron Energy =                -372.1699955260459092
    Two-Electron Energy =                 135.8697920681097457
    Total Energy =                       -154.1393209862851563
  Basis Set: (AUG-CC-PVTZ AUX)
    Blend: AUG-CC-PVTZ-RI
    Molecular point group: c1

    Geometry (in Angstrom), charge = 0, multiplicity = 1:

       Center              X                  Y                   Z               Mass
    ------------   -----------------  -----------------  -----------------  -----------------
         C            0.021840601278     0.581510658888     0.035174966891    12.000000000000
         C           -1.266994398722    -0.220887341112    -0.034068033109    12.000000000000
         O            1.151110901278    -0.290022341112    -0.042411033109    15.994914619570
         H            0.070140601278     1.300192658888    -0.785950033109     1.007825032230
         H            0.070568601278     1.151060658888     0.974298966891     1.007825032230
         H           -2.141599398722     0.433320658888     0.034916966891     1.007825032230
         H            1.191477601278    -0.862179341112     0.622718966891     1.007825032230
         H           -1.320844398722    -0.940692341112     0.789428966891     1.007825032230
         H           -1.312875398722    -0.772717341112    -0.975500033109     1.007825032230

  Basis Set: AUG-CC-PVTZ
    Blend: AUG-CC-PVTZ
  Basis Set: (AUG-CC-PVTZ AUX)
    Blend: AUG-CC-PVTZ-JKFIT
	 Reference Energy          =    -154.1393209862851563 [Eh]
	 Singles Energy            =      -0.0000000000000000 [Eh]
	 Same-Spin Energy          =      -0.1469750195637902 [Eh]
	 Opposite-Spin Energy      =      -0.5150801085303571 [Eh]
	 Correlation Energy        =      -0.6620551280941473 [Eh]
	 Total Energy              =    -154.8013761143793090 [Eh]

	 ================> DF-SCS-MP2 Energies <==================
	-----------------------------------------------------------
	 SCS Same-Spin Scale       =       0.3333333333333333 [-]
	 SCS Opposite-Spin Scale   =       1.2000000000000000 [-]
	 SCS Same-Spin Energy      =      -0.0489916731879301 [Eh]
	 SCS Opposite-Spin Energy  =      -0.6180961302364285 [Eh]
	 SCS Correlation Energy    =      -0.6670878034243586 [Eh]
	 SCS Total Energy          =    -154.8064087897095078 [Eh]
	-----------------------------------------------------------

  Dipole Moment: [D]
     X:    -1.2656      Y:     0.0416      Z:     1.0773     Total:     1.6625

*** Psi4 exiting successfully. Buy a developer a beer!
