                               Psi4 1.3.2 release

  ==> Input File <==

--------------------------------------------------------------------------
#psi4
#
memory 32 gb

molecule  {
0 1
  C        0.0784890     0.5600950     0.0474820
  C       -1.2103460    -0.2423030    -0.0217610
  O        1.2431809    -0.2476367    -0.1311324
  H        0.1267890     1.2787770    -0.7736430
  H        0.1272170     1.1296450     0.9866060
  H       -2.0849510     0.4119050     0.0472240
  H        1.2481260    -0.8835950     0.6350260
  H       -1.2641960    -0.9621080     0.8017360
  H       -1.2562270    -0.7941330    -0.9631930
units angstrom
no_reorient  #important for SAPT in psi4, default
symmetry c1  #important for SAPT in psi4, default
}

set PROPERTIES_ORIGIN ["COM"]
properties('MP2/aug-cc-pvtz', properties = ['dipole'])
--------------------------------------------------------------------------

    Molecular point group: c1
  Charge       = 0
  Multiplicity = 1
  Basis Set: AUG-CC-PVTZ
    Blend: AUG-CC-PVTZ
  Basis Set: (AUG-CC-PVTZ AUX)
    Blend: AUG-CC-PVTZ-JKFIT

    Orbital Energies [Eh]
    ---------------------

    Doubly Occupied:

       1A    -20.560062     2A    -11.275502     3A    -11.220107
       4A     -1.349643     5A     -1.010938     6A     -0.843746
       7A     -0.682360     8A     -0.619590     9A     -0.602920
      10A     -0.545059    11A     -0.524888    12A     -0.482383
      13A     -0.444371

  @DF-RHF Final Energy:  -154.14165660239615

   => Energetics <=

    Nuclear Repulsion Energy =             81.4119393152246005
    One-Electron Energy =                -370.7840550516177700
    Two-Electron Energy =                 135.2304591339970443
    Total Energy =                       -154.1416566023961536
  Basis Set: (AUG-CC-PVTZ AUX)
    Blend: AUG-CC-PVTZ-RI
    Molecular point group: c1

    Geometry (in Angstrom), charge = 0, multiplicity = 1:

       Center              X                  Y                   Z               Mass
    ------------   -----------------  -----------------  -----------------  -----------------
         C            0.009535159915     0.559346127754     0.070272168942    12.000000000000
         C           -1.279299840085    -0.243051872246     0.001029168942    12.000000000000
         O            1.174227059915    -0.248385572246    -0.108342231058    15.994914619570
         H            0.057835159915     1.278028127754    -0.750852831058     1.007825032230
         H            0.058263159915     1.128896127754     1.009396168942     1.007825032230
         H           -2.153904840085     0.411156127754     0.070014168942     1.007825032230
         H            1.179172159915    -0.884343872246     0.657816168942     1.007825032230
         H           -1.333149840085    -0.962856872246     0.824526168942     1.007825032230
         H           -1.325180840085    -0.794881872246    -0.940402831058     1.007825032230

  Basis Set: AUG-CC-PVTZ
    Blend: AUG-CC-PVTZ
  Basis Set: (AUG-CC-PVTZ AUX)
    Blend: AUG-CC-PVTZ-JKFIT
	 Reference Energy          =    -154.1416566023961536 [Eh]
	 Singles Energy            =      -0.0000000000000000 [Eh]
	 Same-Spin Energy          =      -0.1485231741610877 [Eh]
	 Opposite-Spin Energy      =      -0.5190816531295546 [Eh]
	 Correlation Energy        =      -0.6676048272906423 [Eh]
	 Total Energy              =    -154.8092614296867850 [Eh]

	 ================> DF-SCS-MP2 Energies <==================
	-----------------------------------------------------------
	 SCS Same-Spin Scale       =       0.3333333333333333 [-]
	 SCS Opposite-Spin Scale   =       1.2000000000000000 [-]
	 SCS Same-Spin Energy      =      -0.0495077247203626 [Eh]
	 SCS Opposite-Spin Energy  =      -0.6228979837554655 [Eh]
	 SCS Correlation Energy    =      -0.6724057084758280 [Eh]
	 SCS Total Energy          =    -154.8140623108719751 [Eh]
	-----------------------------------------------------------

  Dipole Moment: [D]
     X:    -1.2943      Y:    -0.0868      Z:     1.2107     Total:     1.7743

*** Psi4 exiting successfully. Buy a developer a beer!
