                               Psi4 1.3.2 release

  ==> Input File <==

--------------------------------------------------------------------------
#psi4
#
memory 32 gb

molecule  {
0 1
  C        0.0784890     0.5600950     0.0474820
  C       -1.2103460    -0.2423030    -0.0217610
  O        1.2367980    -0.2609050    -0.1110110
  H        0.1267890     1.2787770    -0.7736430
  H        0.1272170     1.1296450     0.9866060
  H       -2.0849510     0.4119050     0.0472240
  H        1.2469604    -0.8195207     0.5582593
  H       -1.2641960    -0.9621080     0.8017360
  H       -1.2562270    -0.7941330    -0.9631930
units angstrom
no_reorient  #important for SAPT in psi4, default
symmetry c1  #important for SAPT in psi4, default
}

set PROPERTIES_ORIGIN ["COM"]
properties('MP2/aug-cc-pvtz', properties = ['dipole'])
--------------------------------------------------------------------------

    Molecular point group: c1
  Charge       = 0
  Multiplicity = 1
  Basis Set: AUG-CC-PVTZ
    Blend: AUG-CC-PVTZ
  Basis Set: (AUG-CC-PVTZ AUX)
    Blend: AUG-CC-PVTZ-JKFIT

    Orbital Energies [Eh]
    ---------------------

    Doubly Occupied:

       1A    -20.546612     2A    -11.276918     3A    -11.220526
       4A     -1.379688     5A     -1.016628     6A     -0.854564
       7A     -0.700015     8A     -0.623999     9A     -0.609851
      10A     -0.547597    11A     -0.526563    12A     -0.486221
      13A     -0.446973

  @DF-RHF Final Energy:  -154.13877025197237

   => Energetics <=

    Nuclear Repulsion Energy =             82.1397433274433411
    One-Electron Energy =                -372.0847146440929123
    Two-Electron Energy =                 135.8062010646771967
    Total Energy =                       -154.1387702519723746
  Basis Set: (AUG-CC-PVTZ AUX)
    Blend: AUG-CC-PVTZ-RI
    Molecular point group: c1

    Geometry (in Angstrom), charge = 0, multiplicity = 1:

       Center              X                  Y                   Z               Mass
    ------------   -----------------  -----------------  -----------------  -----------------
         C            0.011778089514     0.562552984009     0.064962378079    12.000000000000
         C           -1.277056910486    -0.239845015991    -0.004280621921    12.000000000000
         O            1.170087089514    -0.258447015991    -0.093530621921    15.994914619570
         H            0.060078089514     1.281234984009    -0.756162621921     1.007825032230
         H            0.060506089514     1.132102984009     1.004086378079     1.007825032230
         H           -2.151661910486     0.414362984009     0.064704378079     1.007825032230
         H            1.180249489514    -0.817062715991     0.575739678079     1.007825032230
         H           -1.330906910486    -0.959650015991     0.819216378079     1.007825032230
         H           -1.322937910486    -0.791675015991    -0.945712621921     1.007825032230

  Basis Set: AUG-CC-PVTZ
    Blend: AUG-CC-PVTZ
  Basis Set: (AUG-CC-PVTZ AUX)
    Blend: AUG-CC-PVTZ-JKFIT
	 Reference Energy          =    -154.1387702519723746 [Eh]
	 Singles Energy            =      -0.0000000000000000 [Eh]
	 Same-Spin Energy          =      -0.1470839419565124 [Eh]
	 Opposite-Spin Energy      =      -0.5153439287838542 [Eh]
	 Correlation Energy        =      -0.6624278707403666 [Eh]
	 Total Energy              =    -154.8011981227127478 [Eh]

	 ================> DF-SCS-MP2 Energies <==================
	-----------------------------------------------------------
	 SCS Same-Spin Scale       =       0.3333333333333333 [-]
	 SCS Opposite-Spin Scale   =       1.2000000000000000 [-]
	 SCS Same-Spin Energy      =      -0.0490279806521708 [Eh]
	 SCS Opposite-Spin Energy  =      -0.6184127145406250 [Eh]
	 SCS Correlation Energy    =      -0.6674406951927958 [Eh]
	 SCS Total Energy          =    -154.8062109471651695 [Eh]
	-----------------------------------------------------------

  Dipole Moment: [D]
     X:    -1.3174      Y:    -0.0091      Z:     1.1375     Total:     1.7405

*** Psi4 exiting successfully. Buy a developer a beer!
