                               Psi4 1.3.2 release

  ==> Input File <==

--------------------------------------------------------------------------
#psi4
#
memory 32 gb

molecule  {
0 1
  C        0.0784890     0.5600950     0.0474820
  C       -1.2103460    -0.2423030    -0.0217610
  O        1.2229759    -0.2866873    -0.0706294
  H        0.1267890     1.2787770    -0.7736430
  H        0.1272170     1.1296450     0.9866060
  H       -2.0849510     0.4119050     0.0472240
  H        1.2481260    -0.8835950     0.6350260
  H       -1.2641960    -0.9621080     0.8017360
  H       -1.2562270    -0.7941330    -0.9631930
units angstrom
no_reorient  #important for SAPT in psi4, default
symmetry c1  #important for SAPT in psi4, default
}

set PROPERTIES_ORIGIN ["COM"]
properties('MP2/aug-cc-pvtz', properties = ['dipole'])
--------------------------------------------------------------------------

    Molecular point group: c1
  Charge       = 0
  Multiplicity = 1
  Basis Set: AUG-CC-PVTZ
    Blend: AUG-CC-PVTZ
  Basis Set: (AUG-CC-PVTZ AUX)
    Blend: AUG-CC-PVTZ-JKFIT

    Orbital Energies [Eh]
    ---------------------

    Doubly Occupied:

       1A    -20.550418     2A    -11.277010     3A    -11.219309
       4A     -1.362493     5A     -1.013785     6A     -0.850491
       7A     -0.690558     8A     -0.625148     9A     -0.606847
      10A     -0.544296    11A     -0.525555    12A     -0.482292
      13A     -0.444120

  @DF-RHF Final Energy:  -154.14480986623946

   => Energetics <=

    Nuclear Repulsion Energy =             81.8429421124550771
    One-Electron Energy =                -371.5908606964966339
    Two-Electron Energy =                 135.6031087178020869
    Total Energy =                       -154.1448098662394557
  Basis Set: (AUG-CC-PVTZ AUX)
    Blend: AUG-CC-PVTZ-RI
    Molecular point group: c1

    Geometry (in Angstrom), charge = 0, multiplicity = 1:

       Center              X                  Y                   Z               Mass
    ------------   -----------------  -----------------  -----------------  -----------------
         C            0.016554364094     0.572912281414     0.049253465135    12.000000000000
         C           -1.272280635906    -0.229485718586    -0.019989534865    12.000000000000
         O            1.161041264094    -0.273870018586    -0.068857934865    15.994914619570
         H            0.064854364094     1.291594281414    -0.771871534865     1.007825032230
         H            0.065282364094     1.142462281414     0.988377465135     1.007825032230
         H           -2.146885635906     0.424722281414     0.048995465135     1.007825032230
         H            1.186191364094    -0.870777718586     0.636797465135     1.007825032230
         H           -1.326130635906    -0.949290718586     0.803507465135     1.007825032230
         H           -1.318161635906    -0.781315718586    -0.961421534865     1.007825032230

  Basis Set: AUG-CC-PVTZ
    Blend: AUG-CC-PVTZ
  Basis Set: (AUG-CC-PVTZ AUX)
    Blend: AUG-CC-PVTZ-JKFIT
	 Reference Energy          =    -154.1448098662394557 [Eh]
	 Singles Energy            =      -0.0000000000000000 [Eh]
	 Same-Spin Energy          =      -0.1475569101934723 [Eh]
	 Opposite-Spin Energy      =      -0.5165439068246354 [Eh]
	 Correlation Energy        =      -0.6641008170181077 [Eh]
	 Total Energy              =    -154.8089106832575510 [Eh]

	 ================> DF-SCS-MP2 Energies <==================
	-----------------------------------------------------------
	 SCS Same-Spin Scale       =       0.3333333333333333 [-]
	 SCS Opposite-Spin Scale   =       1.2000000000000000 [-]
	 SCS Same-Spin Energy      =      -0.0491856367311574 [Eh]
	 SCS Opposite-Spin Energy  =      -0.6198526881895624 [Eh]
	 SCS Correlation Energy    =      -0.6690383249207199 [Eh]
	 SCS Total Energy          =    -154.8138481911601616 [Eh]
	-----------------------------------------------------------

  Dipole Moment: [D]
     X:    -1.2770      Y:    -0.0132      Z:     1.1341     Total:     1.7079

*** Psi4 exiting successfully. Buy a developer a beer!
