                               Psi4 1.4a3.dev225

  ==> Input File <==

--------------------------------------------------------------------------
#psi4
#
memory 32 gb

molecule  {
0 1
  C        0.0785380     0.5601430     0.0474840
  C       -1.2103730    -0.2423090    -0.0217710
  O        1.2367720    -0.2609280    -0.1110040
  H        0.1268240     1.2788600    -0.7736210
  H        0.1272230     1.1296140     0.9866460
  H       -2.0849970     0.4119200     0.0466030
  H        1.2486492    -0.9157374     0.6733398
  H       -1.2644420    -0.9616760     0.8021020
  H       -1.2558420    -0.7945950    -0.9629440
units angstrom
no_reorient  #important for SAPT in psi4, default
symmetry c1  #important for SAPT in psi4, default
}

set PROPERTIES_ORIGIN ["COM"]
properties('MP2/aug-cc-pvtz', properties = ['dipole'])
--------------------------------------------------------------------------

    Molecular point group: c1
  Charge       = 0
  Multiplicity = 1
  Basis Set: AUG-CC-PVTZ
    Blend: AUG-CC-PVTZ
  Basis Set: (AUG-CC-PVTZ AUX)
    Blend: AUG-CC-PVTZ-JKFIT

    Orbital Energies [Eh]
    ---------------------

    Doubly Occupied:

       1A    -20.561466     2A    -11.275535     3A    -11.219516
       4A     -1.343517     5A     -1.009757     6A     -0.842242
       7A     -0.677821     8A     -0.619758     9A     -0.601556
      10A     -0.543415    11A     -0.524448    12A     -0.480589
      13A     -0.443145

  @DF-RHF Final Energy:  -154.13894208246859

   => Energetics <=

    Nuclear Repulsion Energy =             81.2910551490862900
    One-Electron Energy =                -370.5744640918453001
    Two-Electron Energy =                 135.1444668602904358
    Total Energy =                       -154.1389420824685885
  Basis Set: (AUG-CC-PVTZ AUX)
    Blend: AUG-CC-PVTZ-RI
    Molecular point group: c1

    Geometry (in Angstrom), charge = 0, multiplicity = 1:

       Center              X                  Y                   Z               Mass
    ------------   -----------------  -----------------  -----------------  -----------------
         C            0.011790488137     0.564703335699     0.062443771850    12.000000000000
         C           -1.277120511863    -0.237748664301    -0.006811228150    12.000000000000
         O            1.170024488137    -0.256367664301    -0.096044228150    15.994914619570
         H            0.060076488137     1.283420335699    -0.758661228150     1.007825032230
         H            0.060475488137     1.134174335699     1.001605771850     1.007825032230
         H           -2.151744511863     0.416480335699     0.061562771850     1.007825032230
         H            1.181901688137    -0.911177064301     0.688299571850     1.007825032230
         H           -1.331189511863    -0.957115664301     0.817061771850     1.007825032230
         H           -1.322589511863    -0.790034664301    -0.947984228150     1.007825032230

  Basis Set: AUG-CC-PVTZ
    Blend: AUG-CC-PVTZ
  Basis Set: (AUG-CC-PVTZ AUX)
    Blend: AUG-CC-PVTZ-JKFIT
	 Reference Energy          =    -154.1389420824685885 [Eh]
	 Singles Energy            =      -0.0000000000000000 [Eh]
	 Same-Spin Energy          =      -0.1487261102875146 [Eh]
	 Opposite-Spin Energy      =      -0.5197234860533559 [Eh]
	 Correlation Energy        =      -0.6684495963408705 [Eh]
	 Total Energy              =    -154.8073916788094664 [Eh]

	 ================> DF-SCS-MP2 Energies <==================
	-----------------------------------------------------------
	 SCS Same-Spin Scale       =       0.3333333333333333 [-]
	 SCS Opposite-Spin Scale   =       1.2000000000000000 [-]
	 SCS Same-Spin Energy      =      -0.0495753700958382 [Eh]
	 SCS Opposite-Spin Energy  =      -0.6236681832640271 [Eh]
	 SCS Correlation Energy    =      -0.6732435533598653 [Eh]
	 SCS Total Energy          =    -154.8121856358284560 [Eh]
	-----------------------------------------------------------

  Dipole Moment: [D]
     X:    -1.2768      Y:    -0.0869      Z:     1.2086     Total:     1.7602

*** Psi4 exiting successfully. Buy a developer a beer!
