                               Psi4 1.4a3.dev225

  ==> Input File <==

--------------------------------------------------------------------------
#psi4
#
memory 32 gb

molecule  {
0 1
  C        0.0785380     0.5601430     0.0474840
  C       -1.2103730    -0.2423090    -0.0217710
  O        1.1962335    -0.2321903    -0.1054569
  H        0.1268240     1.2788600    -0.7736210
  H        0.1272230     1.1296140     0.9866460
  H       -2.0849970     0.4119200     0.0466030
  H        1.2480680    -0.8836960     0.6349600
  H       -1.2644420    -0.9616760     0.8021020
  H       -1.2558420    -0.7945950    -0.9629440
units angstrom
no_reorient  #important for SAPT in psi4, default
symmetry c1  #important for SAPT in psi4, default
}

set PROPERTIES_ORIGIN ["COM"]
properties('MP2/aug-cc-pvtz', properties = ['dipole'])
--------------------------------------------------------------------------

    Molecular point group: c1
  Charge       = 0
  Multiplicity = 1
  Basis Set: AUG-CC-PVTZ
    Blend: AUG-CC-PVTZ
  Basis Set: (AUG-CC-PVTZ AUX)
    Blend: AUG-CC-PVTZ-JKFIT

    Orbital Energies [Eh]
    ---------------------

    Doubly Occupied:

       1A    -20.557548     2A    -11.270768     3A    -11.216558
       4A     -1.367962     5A     -1.007596     6A     -0.847686
       7A     -0.690683     8A     -0.628763     9A     -0.609064
      10A     -0.544455    11A     -0.527424    12A     -0.475621
      13A     -0.438228

  @DF-RHF Final Energy:  -154.14296561716867

   => Energetics <=

    Nuclear Repulsion Energy =             82.4404536722492622
    One-Electron Energy =                -372.8021285383778149
    Two-Electron Energy =                 136.2187092489598967
    Total Energy =                       -154.1429656171686702
  Basis Set: (AUG-CC-PVTZ AUX)
    Blend: AUG-CC-PVTZ-RI
    Molecular point group: c1

    Geometry (in Angstrom), charge = 0, multiplicity = 1:

       Center              X                  Y                   Z               Mass
    ------------   -----------------  -----------------  -----------------  -----------------
         C            0.025886259384     0.554018512553     0.061356820487    12.000000000000
         C           -1.263024740616    -0.248433487447    -0.007898179513    12.000000000000
         O            1.143581759384    -0.238314787447    -0.091584079513    15.994914619570
         H            0.074172259384     1.272735512553    -0.759748179513     1.007825032230
         H            0.074571259384     1.123489512553     1.000518820487     1.007825032230
         H           -2.137648740616     0.405795512553     0.060475820487     1.007825032230
         H            1.195416259384    -0.889820487447     0.648832820487     1.007825032230
         H           -1.317093740616    -0.967800487447     0.815974820487     1.007825032230
         H           -1.308493740616    -0.800719487447    -0.949071179513     1.007825032230

  Basis Set: AUG-CC-PVTZ
    Blend: AUG-CC-PVTZ
  Basis Set: (AUG-CC-PVTZ AUX)
    Blend: AUG-CC-PVTZ-JKFIT
	 Reference Energy          =    -154.1429656171686702 [Eh]
	 Singles Energy            =      -0.0000000000000000 [Eh]
	 Same-Spin Energy          =      -0.1482553142793650 [Eh]
	 Opposite-Spin Energy      =      -0.5174958906647350 [Eh]
	 Correlation Energy        =      -0.6657512049441000 [Eh]
	 Total Energy              =    -154.8087168221127570 [Eh]

	 ================> DF-SCS-MP2 Energies <==================
	-----------------------------------------------------------
	 SCS Same-Spin Scale       =       0.3333333333333333 [-]
	 SCS Opposite-Spin Scale   =       1.2000000000000000 [-]
	 SCS Same-Spin Energy      =      -0.0494184380931217 [Eh]
	 SCS Opposite-Spin Energy  =      -0.6209950687976820 [Eh]
	 SCS Correlation Energy    =      -0.6704135068908036 [Eh]
	 SCS Total Energy          =    -154.8133791240594803 [Eh]
	-----------------------------------------------------------

  Dipole Moment: [D]
     X:    -1.0789      Y:    -0.1835      Z:     1.1715     Total:     1.6032

*** Psi4 exiting successfully. Buy a developer a beer!
