                               Psi4 1.4a3.dev225

  ==> Input File <==

--------------------------------------------------------------------------
#psi4
#
memory 32 gb

molecule  {
0 1
  C        0.0785380     0.5601430     0.0474840
  C       -1.2103730    -0.2423090    -0.0217710
  O        1.2367720    -0.2609280    -0.1110040
  H        0.1268240     1.2788600    -0.7736210
  H        0.1272230     1.1296140     0.9866460
  H       -2.0849970     0.4119200     0.0466030
  H        1.2474868    -0.8516546     0.5965802
  H       -1.2644420    -0.9616760     0.8021020
  H       -1.2558420    -0.7945950    -0.9629440
units angstrom
no_reorient  #important for SAPT in psi4, default
symmetry c1  #important for SAPT in psi4, default
}

set PROPERTIES_ORIGIN ["COM"]
properties('MP2/aug-cc-pvtz', properties = ['dipole'])
--------------------------------------------------------------------------

    Molecular point group: c1
  Charge       = 0
  Multiplicity = 1
  Basis Set: AUG-CC-PVTZ
    Blend: AUG-CC-PVTZ
  Basis Set: (AUG-CC-PVTZ AUX)
    Blend: AUG-CC-PVTZ-JKFIT

    Orbital Energies [Eh]
    ---------------------

    Doubly Occupied:

       1A    -20.552001     2A    -11.276394     3A    -11.220166
       4A     -1.365577     5A     -1.014009     6A     -0.849943
       7A     -0.692408     8A     -0.622473     9A     -0.607426
      10A     -0.546196    11A     -0.525801    12A     -0.484487
      13A     -0.445512

  @DF-RHF Final Energy:  -154.14455318286377

   => Energetics <=

    Nuclear Repulsion Energy =             81.8305136188094764
    One-Electron Energy =                -371.5453415794586931
    Two-Electron Energy =                 135.5702747777854711
    Total Energy =                       -154.1445531828637741
  Basis Set: (AUG-CC-PVTZ AUX)
    Blend: AUG-CC-PVTZ-RI
    Molecular point group: c1

    Geometry (in Angstrom), charge = 0, multiplicity = 1:

       Center              X                  Y                   Z               Mass
    ------------   -----------------  -----------------  -----------------  -----------------
         C            0.011815932280     0.563300606895     0.064123987164    12.000000000000
         C           -1.277095067720    -0.239151393105    -0.005131012836    12.000000000000
         O            1.170049932280    -0.257770393105    -0.094364012836    15.994914619570
         H            0.060101932280     1.282017606895    -0.756981012836     1.007825032230
         H            0.060500932280     1.132771606895     1.003285987164     1.007825032230
         H           -2.151719067720     0.415077606895     0.063242987164     1.007825032230
         H            1.180764732280    -0.848496993105     0.613220187164     1.007825032230
         H           -1.331164067720    -0.958518393105     0.818741987164     1.007825032230
         H           -1.322564067720    -0.791437393105    -0.946304012836     1.007825032230

  Basis Set: AUG-CC-PVTZ
    Blend: AUG-CC-PVTZ
  Basis Set: (AUG-CC-PVTZ AUX)
    Blend: AUG-CC-PVTZ-JKFIT
	 Reference Energy          =    -154.1445531828637741 [Eh]
	 Singles Energy            =      -0.0000000000000000 [Eh]
	 Same-Spin Energy          =      -0.1476388605881072 [Eh]
	 Opposite-Spin Energy      =      -0.5167292333263926 [Eh]
	 Correlation Energy        =      -0.6643680939144998 [Eh]
	 Total Energy              =    -154.8089212767782783 [Eh]

	 ================> DF-SCS-MP2 Energies <==================
	-----------------------------------------------------------
	 SCS Same-Spin Scale       =       0.3333333333333333 [-]
	 SCS Opposite-Spin Scale   =       1.2000000000000000 [-]
	 SCS Same-Spin Energy      =      -0.0492129535293691 [Eh]
	 SCS Opposite-Spin Energy  =      -0.6200750799916711 [Eh]
	 SCS Correlation Energy    =      -0.6692880335210402 [Eh]
	 SCS Total Energy          =    -154.8138412163848159 [Eh]
	-----------------------------------------------------------

  Dipole Moment: [D]
     X:    -1.3017      Y:    -0.0374      Z:     1.1623     Total:     1.7455

*** Psi4 exiting successfully. Buy a developer a beer!
