                               Psi4 1.3.2 release

  ==> Input File <==

--------------------------------------------------------------------------
#psi4
#
memory 32 gb

molecule  {
0 1
  C        0.0496179     0.4817919     0.1715584
  C       -1.2103460    -0.2423030    -0.0217610
  O        1.2367980    -0.2609050    -0.1110110
  H        0.1267890     1.2787770    -0.7736430
  H        0.1272170     1.1296450     0.9866060
  H       -2.0849510     0.4119050     0.0472240
  H        1.2481260    -0.8835950     0.6350260
  H       -1.2641960    -0.9621080     0.8017360
  H       -1.2562270    -0.7941330    -0.9631930
units angstrom
no_reorient  #important for SAPT in psi4, default
symmetry c1  #important for SAPT in psi4, default
}

set PROPERTIES_ORIGIN ["COM"]
properties('MP2/aug-cc-pvtz', properties = ['dipole'])
--------------------------------------------------------------------------

    Molecular point group: c1
  Charge       = 0
  Multiplicity = 1
  Basis Set: AUG-CC-PVTZ
    Blend: AUG-CC-PVTZ
  Basis Set: (AUG-CC-PVTZ AUX)
    Blend: AUG-CC-PVTZ-JKFIT

    Orbital Energies [Eh]
    ---------------------

    Doubly Occupied:

       1A    -20.563871     2A    -11.281001     3A    -11.220891
       4A     -1.361149     5A     -1.025436     6A     -0.838567
       7A     -0.693043     8A     -0.629711     9A     -0.598185
      10A     -0.560979    11A     -0.526685    12A     -0.463237
      13A     -0.440966

  @DF-RHF Final Energy:  -154.11886539830437

   => Energetics <=

    Nuclear Repulsion Energy =             81.9869491916004165
    One-Electron Energy =                -371.8041862861708182
    Two-Electron Energy =                 135.6983716962660083
    Total Energy =                       -154.1188653983043650
  Basis Set: (AUG-CC-PVTZ AUX)
    Blend: AUG-CC-PVTZ-RI
    Molecular point group: c1

    Geometry (in Angstrom), charge = 0, multiplicity = 1:

       Center              X                  Y                   Z               Mass
    ------------   -----------------  -----------------  -----------------  -----------------
         C           -0.009593781674     0.506060748698     0.155020082088    12.000000000000
         C           -1.269557681674    -0.218034151302    -0.038299317912    12.000000000000
         O            1.177586318326    -0.236636151302    -0.127549317912    15.994914619570
         H            0.067577318326     1.303045848698    -0.790181317912     1.007825032230
         H            0.068005318326     1.153913848698     0.970067682088     1.007825032230
         H           -2.144162681674     0.436173848698     0.030685682088     1.007825032230
         H            1.188914318326    -0.859326151302     0.618487682088     1.007825032230
         H           -1.323407681674    -0.937839151302     0.785197682088     1.007825032230
         H           -1.315438681674    -0.769864151302    -0.979731317912     1.007825032230

  Basis Set: AUG-CC-PVTZ
    Blend: AUG-CC-PVTZ
  Basis Set: (AUG-CC-PVTZ AUX)
    Blend: AUG-CC-PVTZ-JKFIT
	 Reference Energy          =    -154.1188653983043650 [Eh]
	 Singles Energy            =      -0.0000000000000000 [Eh]
	 Same-Spin Energy          =      -0.1494041092988695 [Eh]
	 Opposite-Spin Energy      =      -0.5206501086147673 [Eh]
	 Correlation Energy        =      -0.6700542179136368 [Eh]
	 Total Energy              =    -154.7889196162180099 [Eh]

	 ================> DF-SCS-MP2 Energies <==================
	-----------------------------------------------------------
	 SCS Same-Spin Scale       =       0.3333333333333333 [-]
	 SCS Opposite-Spin Scale   =       1.2000000000000000 [-]
	 SCS Same-Spin Energy      =      -0.0498013697662898 [Eh]
	 SCS Opposite-Spin Energy  =      -0.6247801303377208 [Eh]
	 SCS Correlation Energy    =      -0.6745815001040107 [Eh]
	 SCS Total Energy          =    -154.7934468984083765 [Eh]
	-----------------------------------------------------------

  Dipole Moment: [D]
     X:    -1.3145      Y:    -0.2139      Z:     1.3405     Total:     1.8896

*** Psi4 exiting successfully. Buy a developer a beer!
