                               Psi4 1.3.2 release

  ==> Input File <==

--------------------------------------------------------------------------
#psi4
#
memory 32 gb

molecule  {
0 1
  C        0.0674367     0.5349530     0.0891014
  C       -1.2103460    -0.2423030    -0.0217610
  O        1.2367980    -0.2609050    -0.1110110
  H        0.1267890     1.2787770    -0.7736430
  H        0.1272170     1.1296450     0.9866060
  H       -2.0849510     0.4119050     0.0472240
  H        1.2481260    -0.8835950     0.6350260
  H       -1.2641960    -0.9621080     0.8017360
  H       -1.2562270    -0.7941330    -0.9631930
units angstrom
no_reorient  #important for SAPT in psi4, default
symmetry c1  #important for SAPT in psi4, default
}

set PROPERTIES_ORIGIN ["COM"]
properties('MP2/aug-cc-pvtz', properties = ['dipole'])
--------------------------------------------------------------------------

    Molecular point group: c1
  Charge       = 0
  Multiplicity = 1
  Basis Set: AUG-CC-PVTZ
    Blend: AUG-CC-PVTZ
  Basis Set: (AUG-CC-PVTZ AUX)
    Blend: AUG-CC-PVTZ-JKFIT

    Orbital Energies [Eh]
    ---------------------

    Doubly Occupied:

       1A    -20.558850     2A    -11.276743     3A    -11.219797
       4A     -1.355714     5A     -1.016148     6A     -0.842269
       7A     -0.688187     8A     -0.620958     9A     -0.603519
      10A     -0.549919    11A     -0.523795    12A     -0.472150
      13A     -0.451162

  @DF-RHF Final Energy:  -154.14043390252894

   => Energetics <=

    Nuclear Repulsion Energy =             81.7077901665649193
    One-Electron Energy =                -371.3380222314063985
    Two-Electron Energy =                 135.4897981623125531
    Total Energy =                       -154.1404339025289403
  Basis Set: (AUG-CC-PVTZ AUX)
    Blend: AUG-CC-PVTZ-RI
    Molecular point group: c1

    Geometry (in Angstrom), charge = 0, multiplicity = 1:

       Center              X                  Y                   Z               Mass
    ------------   -----------------  -----------------  -----------------  -----------------
         C            0.003580862385     0.545366345612     0.094054044803    12.000000000000
         C           -1.274201837615    -0.231889654388    -0.016808355197    12.000000000000
         O            1.172942162385    -0.250491654388    -0.106058355197    15.994914619570
         H            0.062933162385     1.289190345612    -0.768690355197     1.007825032230
         H            0.063361162385     1.140058345612     0.991558644803     1.007825032230
         H           -2.148806837615     0.422318345612     0.052176644803     1.007825032230
         H            1.184270162385    -0.873181654388     0.639978644803     1.007825032230
         H           -1.328051837615    -0.951694654388     0.806688644803     1.007825032230
         H           -1.320082837615    -0.783719654388    -0.958240355197     1.007825032230

  Basis Set: AUG-CC-PVTZ
    Blend: AUG-CC-PVTZ
  Basis Set: (AUG-CC-PVTZ AUX)
    Blend: AUG-CC-PVTZ-JKFIT
	 Reference Energy          =    -154.1404339025289403 [Eh]
	 Singles Energy            =      -0.0000000000000000 [Eh]
	 Same-Spin Energy          =      -0.1485087195237312 [Eh]
	 Opposite-Spin Energy      =      -0.5187488452467688 [Eh]
	 Correlation Energy        =      -0.6672575647705000 [Eh]
	 Total Energy              =    -154.8076914672994349 [Eh]

	 ================> DF-SCS-MP2 Energies <==================
	-----------------------------------------------------------
	 SCS Same-Spin Scale       =       0.3333333333333333 [-]
	 SCS Opposite-Spin Scale   =       1.2000000000000000 [-]
	 SCS Same-Spin Energy      =      -0.0495029065079104 [Eh]
	 SCS Opposite-Spin Energy  =      -0.6224986142961225 [Eh]
	 SCS Correlation Energy    =      -0.6720015208040330 [Eh]
	 SCS Total Energy          =    -154.8124354233329711 [Eh]
	-----------------------------------------------------------

  Dipole Moment: [D]
     X:    -1.3025      Y:    -0.1027      Z:     1.2369     Total:     1.7991

*** Psi4 exiting successfully. Buy a developer a beer!
