                               Psi4 1.3.2 release

  ==> Input File <==

--------------------------------------------------------------------------
#psi4
#
memory 32 gb

molecule  {
0 1
  C        0.0784890     0.5600950     0.0474820
  C       -1.2241748    -0.2199704    -0.0180753
  O        1.2367980    -0.2609050    -0.1110110
  H        0.1267890     1.2787770    -0.7736430
  H        0.1272170     1.1296450     0.9866060
  H       -2.0849510     0.4119050     0.0472240
  H        1.2481260    -0.8835950     0.6350260
  H       -1.2641960    -0.9621080     0.8017360
  H       -1.2562270    -0.7941330    -0.9631930
units angstrom
no_reorient  #important for SAPT in psi4, default
symmetry c1  #important for SAPT in psi4, default
}

set PROPERTIES_ORIGIN ["COM"]
properties('MP2/aug-cc-pvtz', properties = ['dipole'])
--------------------------------------------------------------------------

    Molecular point group: c1
  Charge       = 0
  Multiplicity = 1
  Basis Set: AUG-CC-PVTZ
    Blend: AUG-CC-PVTZ
  Basis Set: (AUG-CC-PVTZ AUX)
    Blend: AUG-CC-PVTZ-JKFIT

    Orbital Energies [Eh]
    ---------------------

    Doubly Occupied:

       1A    -20.557955     2A    -11.275973     3A    -11.220077
       4A     -1.353960     5A     -1.012346     6A     -0.845601
       7A     -0.684689     8A     -0.623454     9A     -0.604741
      10A     -0.541050    11A     -0.528876    12A     -0.481058
      13A     -0.444449

  @DF-RHF Final Energy:  -154.14313078426875

   => Energetics <=

    Nuclear Repulsion Energy =             81.4900357464059653
    One-Electron Energy =                -370.9178767429529557
    Two-Electron Energy =                 135.2847102122782417
    Total Energy =                       -154.1431307842687488
  Basis Set: (AUG-CC-PVTZ AUX)
    Blend: AUG-CC-PVTZ-RI
    Molecular point group: c1

    Geometry (in Angstrom), charge = 0, multiplicity = 1:

       Center              X                  Y                   Z               Mass
    ------------   -----------------  -----------------  -----------------  -----------------
         C            0.015356808139     0.558134928456     0.062321394652    12.000000000000
         C           -1.287306991861    -0.221930471544    -0.003235905348    12.000000000000
         O            1.173665808139    -0.262865071544    -0.096171605348    15.994914619570
         H            0.063656808139     1.276816928456    -0.758803605348     1.007825032230
         H            0.064084808139     1.127684928456     1.001445394652     1.007825032230
         H           -2.148083191861     0.409944928456     0.062063394652     1.007825032230
         H            1.184993808139    -0.885555071544     0.649865394652     1.007825032230
         H           -1.327328191861    -0.964068071544     0.816575394652     1.007825032230
         H           -1.319359191861    -0.796093071544    -0.948353605348     1.007825032230

  Basis Set: AUG-CC-PVTZ
    Blend: AUG-CC-PVTZ
  Basis Set: (AUG-CC-PVTZ AUX)
    Blend: AUG-CC-PVTZ-JKFIT
	 Reference Energy          =    -154.1431307842687488 [Eh]
	 Singles Energy            =      -0.0000000000000000 [Eh]
	 Same-Spin Energy          =      -0.1482135295943889 [Eh]
	 Opposite-Spin Energy      =      -0.5182524920400217 [Eh]
	 Correlation Energy        =      -0.6664660216344105 [Eh]
	 Total Energy              =    -154.8095968059031691 [Eh]

	 ================> DF-SCS-MP2 Energies <==================
	-----------------------------------------------------------
	 SCS Same-Spin Scale       =       0.3333333333333333 [-]
	 SCS Opposite-Spin Scale   =       1.2000000000000000 [-]
	 SCS Same-Spin Energy      =      -0.0494045098647963 [Eh]
	 SCS Opposite-Spin Energy  =      -0.6219029904480260 [Eh]
	 SCS Correlation Energy    =      -0.6713075003128223 [Eh]
	 SCS Total Energy          =    -154.8144382845815699 [Eh]
	-----------------------------------------------------------

  Dipole Moment: [D]
     X:    -1.2888      Y:    -0.0582      Z:     1.1872     Total:     1.7532

*** Psi4 exiting successfully. Buy a developer a beer!
