                               Psi4 1.3.2 release

  ==> Input File <==

--------------------------------------------------------------------------
#psi4
#
memory 32 gb

molecule  {
0 1
  C        0.0784890     0.5600950     0.0474820
  C       -1.2376069    -0.1974001    -0.0143696
  O        1.2367980    -0.2609050    -0.1110110
  H        0.1267890     1.2787770    -0.7736430
  H        0.1272170     1.1296450     0.9866060
  H       -2.0849510     0.4119050     0.0472240
  H        1.2481260    -0.8835950     0.6350260
  H       -1.2641960    -0.9621080     0.8017360
  H       -1.2562270    -0.7941330    -0.9631930
units angstrom
no_reorient  #important for SAPT in psi4, default
symmetry c1  #important for SAPT in psi4, default
}

set PROPERTIES_ORIGIN ["COM"]
properties('MP2/aug-cc-pvtz', properties = ['dipole'])
--------------------------------------------------------------------------

    Molecular point group: c1
  Charge       = 0
  Multiplicity = 1
  Basis Set: AUG-CC-PVTZ
    Blend: AUG-CC-PVTZ
  Basis Set: (AUG-CC-PVTZ AUX)
    Blend: AUG-CC-PVTZ-JKFIT

    Orbital Energies [Eh]
    ---------------------

    Doubly Occupied:

       1A    -20.559032     2A    -11.276152     3A    -11.220573
       4A     -1.354404     5A     -1.013081     6A     -0.845653
       7A     -0.684591     8A     -0.626632     9A     -0.604930
      10A     -0.537529    11A     -0.532107    12A     -0.478991
      13A     -0.444439

  @DF-RHF Final Energy:  -154.14060973325596

   => Energetics <=

    Nuclear Repulsion Energy =             81.4328763483723463
    One-Electron Energy =                -370.7907443846095248
    Two-Electron Energy =                 135.2172583029812074
    Total Energy =                       -154.1406097332559568
  Basis Set: (AUG-CC-PVTZ AUX)
    Blend: AUG-CC-PVTZ-RI
    Molecular point group: c1

    Geometry (in Angstrom), charge = 0, multiplicity = 1:

       Center              X                  Y                   Z               Mass
    ------------   -----------------  -----------------  -----------------  -----------------
         C            0.018857648096     0.552252377844     0.061355569307    12.000000000000
         C           -1.297238251904    -0.205242722156    -0.000496030693    12.000000000000
         O            1.177166648096    -0.268747622156    -0.097137430693    15.994914619570
         H            0.067157648096     1.270934377844    -0.759769430693     1.007825032230
         H            0.067585648096     1.121802377844     1.000479569307     1.007825032230
         H           -2.144582351904     0.404062377844     0.061097569307     1.007825032230
         H            1.188494648096    -0.891437622156     0.648899569307     1.007825032230
         H           -1.323827351904    -0.969950622156     0.815609569307     1.007825032230
         H           -1.315858351904    -0.801975622156    -0.949319430693     1.007825032230

  Basis Set: AUG-CC-PVTZ
    Blend: AUG-CC-PVTZ
  Basis Set: (AUG-CC-PVTZ AUX)
    Blend: AUG-CC-PVTZ-JKFIT
	 Reference Energy          =    -154.1406097332559568 [Eh]
	 Singles Energy            =      -0.0000000000000000 [Eh]
	 Same-Spin Energy          =      -0.1482585763893410 [Eh]
	 Opposite-Spin Energy      =      -0.5183840406912330 [Eh]
	 Correlation Energy        =      -0.6666426170805740 [Eh]
	 Total Energy              =    -154.8072523503365403 [Eh]

	 ================> DF-SCS-MP2 Energies <==================
	-----------------------------------------------------------
	 SCS Same-Spin Scale       =       0.3333333333333333 [-]
	 SCS Opposite-Spin Scale   =       1.2000000000000000 [-]
	 SCS Same-Spin Energy      =      -0.0494195254631137 [Eh]
	 SCS Opposite-Spin Energy  =      -0.6220608488294795 [Eh]
	 SCS Correlation Energy    =      -0.6714803742925932 [Eh]
	 SCS Total Energy          =    -154.8120901075485563 [Eh]
	-----------------------------------------------------------

  Dipole Moment: [D]
     X:    -1.2860      Y:    -0.0531      Z:     1.1881     Total:     1.7516

*** Psi4 exiting successfully. Buy a developer a beer!
