                               Psi4 1.4a3.dev225

  ==> Input File <==

--------------------------------------------------------------------------
#psi4
#
memory 32 gb

molecule  {
0 1
  C        0.0785380     0.5601430     0.0474840
  C       -1.2103730    -0.2423090    -0.0217710
  O        1.2773105    -0.2896657    -0.1165511
  H        0.1268240     1.2788600    -0.7736210
  H        0.1272230     1.1296140     0.9866460
  H       -2.0849970     0.4119200     0.0466030
  H        1.2480680    -0.8836960     0.6349600
  H       -1.2644420    -0.9616760     0.8021020
  H       -1.2558420    -0.7945950    -0.9629440
units angstrom
no_reorient  #important for SAPT in psi4, default
symmetry c1  #important for SAPT in psi4, default
}

set PROPERTIES_ORIGIN ["COM"]
properties('MP2/aug-cc-pvtz', properties = ['dipole'])
--------------------------------------------------------------------------

    Molecular point group: c1
  Charge       = 0
  Multiplicity = 1
  Basis Set: AUG-CC-PVTZ
    Blend: AUG-CC-PVTZ
  Basis Set: (AUG-CC-PVTZ AUX)
    Blend: AUG-CC-PVTZ-JKFIT

    Orbital Energies [Eh]
    ---------------------

    Doubly Occupied:

       1A    -20.556289     2A    -11.281114     3A    -11.222975
       4A     -1.341429     5A     -1.015639     6A     -0.844534
       7A     -0.679430     8A     -0.614607     9A     -0.601848
      10A     -0.544805    11A     -0.521660    12A     -0.488664
      13A     -0.449349

  @DF-RHF Final Energy:  -154.14124751463854

   => Energetics <=

    Nuclear Repulsion Energy =             80.7007534787221061
    One-Electron Energy =                -369.3593141717030903
    Two-Electron Energy =                 134.5173131783424481
    Total Energy =                       -154.1412475146385361
  Basis Set: (AUG-CC-PVTZ AUX)
    Blend: AUG-CC-PVTZ-RI
    Molecular point group: c1

    Geometry (in Angstrom), charge = 0, multiplicity = 1:

       Center              X                  Y                   Z               Mass
    ------------   -----------------  -----------------  -----------------  -----------------
         C           -0.002279838967     0.573985430041     0.065210938527    12.000000000000
         C           -1.291190838967    -0.228466569959    -0.004044061473    12.000000000000
         O            1.196492661033    -0.275823269959    -0.098824161473    15.994914619570
         H            0.046006161033     1.292702430041    -0.755894061473     1.007825032230
         H            0.046405161033     1.143456430041     1.004372938527     1.007825032230
         H           -2.165814838967     0.425762430041     0.064329938527     1.007825032230
         H            1.167250161033    -0.869853569959     0.652686938527     1.007825032230
         H           -1.345259838967    -0.947833569959     0.819828938527     1.007825032230
         H           -1.336659838967    -0.780752569959    -0.945217061473     1.007825032230

  Basis Set: AUG-CC-PVTZ
    Blend: AUG-CC-PVTZ
  Basis Set: (AUG-CC-PVTZ AUX)
    Blend: AUG-CC-PVTZ-JKFIT
	 Reference Energy          =    -154.1412475146385361 [Eh]
	 Singles Energy            =      -0.0000000000000000 [Eh]
	 Same-Spin Energy          =      -0.1482315605084307 [Eh]
	 Opposite-Spin Energy      =      -0.5191098492195356 [Eh]
	 Correlation Energy        =      -0.6673414097279663 [Eh]
	 Total Energy              =    -154.8085889243664894 [Eh]

	 ================> DF-SCS-MP2 Energies <==================
	-----------------------------------------------------------
	 SCS Same-Spin Scale       =       0.3333333333333333 [-]
	 SCS Opposite-Spin Scale   =       1.2000000000000000 [-]
	 SCS Same-Spin Energy      =      -0.0494105201694769 [Eh]
	 SCS Opposite-Spin Energy  =      -0.6229318190634427 [Eh]
	 SCS Correlation Energy    =      -0.6723423392329196 [Eh]
	 SCS Total Energy          =    -154.8135898538714628 [Eh]
	-----------------------------------------------------------

  Dipole Moment: [D]
     X:    -1.4875      Y:     0.0515      Z:     1.1973     Total:     1.9102

*** Psi4 exiting successfully. Buy a developer a beer!
