                               Psi4 1.3.2 release

  ==> Input File <==

--------------------------------------------------------------------------
#psi4
#
memory 32 gb

molecule  {
0 1
  C        0.0784890     0.5600950     0.0474820
  C       -1.2632642    -0.1515744    -0.0069027
  O        1.2367980    -0.2609050    -0.1110110
  H        0.1267890     1.2787770    -0.7736430
  H        0.1272170     1.1296450     0.9866060
  H       -2.0849510     0.4119050     0.0472240
  H        1.2481260    -0.8835950     0.6350260
  H       -1.2641960    -0.9621080     0.8017360
  H       -1.2562270    -0.7941330    -0.9631930
units angstrom
no_reorient  #important for SAPT in psi4, default
symmetry c1  #important for SAPT in psi4, default
}

set PROPERTIES_ORIGIN ["COM"]
properties('MP2/aug-cc-pvtz', properties = ['dipole'])
--------------------------------------------------------------------------

    Molecular point group: c1
  Charge       = 0
  Multiplicity = 1
  Basis Set: AUG-CC-PVTZ
    Blend: AUG-CC-PVTZ
  Basis Set: (AUG-CC-PVTZ AUX)
    Blend: AUG-CC-PVTZ-JKFIT

    Orbital Energies [Eh]
    ---------------------

    Doubly Occupied:

       1A    -20.561376     2A    -11.276912     3A    -11.222288
       4A     -1.355531     5A     -1.014997     6A     -0.846754
       7A     -0.684873     8A     -0.634835     9A     -0.605678
      10A     -0.537734    11A     -0.530461    12A     -0.473574
      13A     -0.443752

  @DF-RHF Final Energy:  -154.13016296024122

   => Energetics <=

    Nuclear Repulsion Energy =             81.3272279943747094
    One-Electron Energy =                -370.5372530320426563
    Two-Electron Energy =                 135.0798620774267249
    Total Energy =                       -154.1301629602412220
  Basis Set: (AUG-CC-PVTZ AUX)
    Blend: AUG-CC-PVTZ-RI
    Molecular point group: c1

    Geometry (in Angstrom), charge = 0, multiplicity = 1:

       Center              X                  Y                   Z               Mass
    ------------   -----------------  -----------------  -----------------  -----------------
         C            0.025544770810     0.540308717390     0.059409453519    12.000000000000
         C           -1.316208429190    -0.171360682610     0.005024753519    12.000000000000
         O            1.183853770810    -0.280691282610    -0.099083546481    15.994914619570
         H            0.073844770810     1.258990717390    -0.761715546481     1.007825032230
         H            0.074272770810     1.109858717390     0.998533453519     1.007825032230
         H           -2.137895229190     0.392118717390     0.059151453519     1.007825032230
         H            1.195181770810    -0.903381282610     0.646953453519     1.007825032230
         H           -1.317140229190    -0.981894282610     0.813663453519     1.007825032230
         H           -1.309171229190    -0.813919282610    -0.951265546481     1.007825032230

  Basis Set: AUG-CC-PVTZ
    Blend: AUG-CC-PVTZ
  Basis Set: (AUG-CC-PVTZ AUX)
    Blend: AUG-CC-PVTZ-JKFIT
	 Reference Energy          =    -154.1301629602412220 [Eh]
	 Singles Energy            =      -0.0000000000000000 [Eh]
	 Same-Spin Energy          =      -0.1484187193112300 [Eh]
	 Opposite-Spin Energy      =      -0.5188727772859594 [Eh]
	 Correlation Energy        =      -0.6672914965971893 [Eh]
	 Total Energy              =    -154.7974544568384090 [Eh]

	 ================> DF-SCS-MP2 Energies <==================
	-----------------------------------------------------------
	 SCS Same-Spin Scale       =       0.3333333333333333 [-]
	 SCS Opposite-Spin Scale   =       1.2000000000000000 [-]
	 SCS Same-Spin Energy      =      -0.0494729064370767 [Eh]
	 SCS Opposite-Spin Energy  =      -0.6226473327431512 [Eh]
	 SCS Correlation Energy    =      -0.6721202391802279 [Eh]
	 SCS Total Energy          =    -154.8022831994214528 [Eh]
	-----------------------------------------------------------

  Dipole Moment: [D]
     X:    -1.2708      Y:    -0.0429      Z:     1.1897     Total:     1.7414

*** Psi4 exiting successfully. Buy a developer a beer!
