                               Psi4 1.3.2 release

  ==> Input File <==

--------------------------------------------------------------------------
#psi4
#
memory 32 gb

molecule  {
0 1
  C        0.0784890     0.5600950     0.0474820
  C       -1.2103460    -0.2423030    -0.0217610
  O        1.2367980    -0.2609050    -0.1110110
  H        0.1267890     1.2787770    -0.7736430
  H        0.1272170     1.1296450     0.9866060
  H       -2.0849510     0.4119050     0.0472240
  H        1.2504573    -1.0117437     0.7885593
  H       -1.2641960    -0.9621080     0.8017360
  H       -1.2562270    -0.7941330    -0.9631930
units angstrom
no_reorient  #important for SAPT in psi4, default
symmetry c1  #important for SAPT in psi4, default
}

set PROPERTIES_ORIGIN ["COM"]
properties('MP2/aug-cc-pvtz', properties = ['dipole'])
--------------------------------------------------------------------------

    Molecular point group: c1
  Charge       = 0
  Multiplicity = 1
  Basis Set: AUG-CC-PVTZ
    Blend: AUG-CC-PVTZ
  Basis Set: (AUG-CC-PVTZ AUX)
    Blend: AUG-CC-PVTZ-JKFIT

    Orbital Energies [Eh]
    ---------------------

    Doubly Occupied:

       1A    -20.572944     2A    -11.274821     3A    -11.218764
       4A     -1.322207     5A     -1.005437     6A     -0.834342
       7A     -0.660502     8A     -0.616911     9A     -0.590415
      10A     -0.538932    11A     -0.522951    12A     -0.473086
      13A     -0.441037

  @DF-RHF Final Energy:  -154.10860773717945

   => Energetics <=

    Nuclear Repulsion Energy =             80.6283532024086043
    One-Electron Energy =                -369.3292254124550027
    Two-Electron Energy =                 134.5922644728669297
    Total Energy =                       -154.1086077371794545
  Basis Set: (AUG-CC-PVTZ AUX)
    Blend: AUG-CC-PVTZ-RI
    Molecular point group: c1

    Geometry (in Angstrom), charge = 0, multiplicity = 1:

       Center              X                  Y                   Z               Mass
    ------------   -----------------  -----------------  -----------------  -----------------
         C            0.011701544757     0.566760614433     0.059921268083    12.000000000000
         C           -1.277133455243    -0.235637385567    -0.009321731917    12.000000000000
         O            1.170010544757    -0.254239385567    -0.098571731917    15.994914619570
         H            0.060001544757     1.285442614433    -0.761203731917     1.007825032230
         H            0.060429544757     1.136310614433     0.999045268083     1.007825032230
         H           -2.151738455243     0.418570614433     0.059663268083     1.007825032230
         H            1.183669844757    -1.005078085567     0.800998568083     1.007825032230
         H           -1.330983455243    -0.955442385567     0.814175268083     1.007825032230
         H           -1.323014455243    -0.787467385567    -0.950753731917     1.007825032230

  Basis Set: AUG-CC-PVTZ
    Blend: AUG-CC-PVTZ
  Basis Set: (AUG-CC-PVTZ AUX)
    Blend: AUG-CC-PVTZ-JKFIT
	 Reference Energy          =    -154.1086077371794545 [Eh]
	 Singles Energy            =      -0.0000000000000000 [Eh]
	 Same-Spin Energy          =      -0.1501852790654319 [Eh]
	 Opposite-Spin Energy      =      -0.5247043138900602 [Eh]
	 Correlation Energy        =      -0.6748895929554921 [Eh]
	 Total Energy              =    -154.7834973301349351 [Eh]

	 ================> DF-SCS-MP2 Energies <==================
	-----------------------------------------------------------
	 SCS Same-Spin Scale       =       0.3333333333333333 [-]
	 SCS Opposite-Spin Scale   =       1.2000000000000000 [-]
	 SCS Same-Spin Energy      =      -0.0500617596884773 [Eh]
	 SCS Opposite-Spin Energy  =      -0.6296451766680723 [Eh]
	 SCS Correlation Energy    =      -0.6797069363565496 [Eh]
	 SCS Total Energy          =    -154.7883146735360071 [Eh]
	-----------------------------------------------------------

  Dipole Moment: [D]
     X:    -1.2544      Y:    -0.1403      Z:     1.2651     Total:     1.7871

*** Psi4 exiting successfully. Buy a developer a beer!
