                               Psi4 1.3.2 release

  ==> Input File <==

--------------------------------------------------------------------------
#psi4
#
memory 32 gb

molecule  {
0 1
  C        0.0784890     0.5600950     0.0474820
  C       -1.2103460    -0.2423030    -0.0217610
  O        1.3989603    -0.3758443    -0.1331999
  H        0.1267890     1.2787770    -0.7736430
  H        0.1272170     1.1296450     0.9866060
  H       -2.0849510     0.4119050     0.0472240
  H        1.2481260    -0.8835950     0.6350260
  H       -1.2641960    -0.9621080     0.8017360
  H       -1.2562270    -0.7941330    -0.9631930
units angstrom
no_reorient  #important for SAPT in psi4, default
symmetry c1  #important for SAPT in psi4, default
}

set PROPERTIES_ORIGIN ["COM"]
properties('MP2/aug-cc-pvtz', properties = ['dipole'])
--------------------------------------------------------------------------

    Molecular point group: c1
  Charge       = 0
  Multiplicity = 1
  Basis Set: AUG-CC-PVTZ
    Blend: AUG-CC-PVTZ
  Basis Set: (AUG-CC-PVTZ AUX)
    Blend: AUG-CC-PVTZ-JKFIT

    Orbital Energies [Eh]
    ---------------------

    Doubly Occupied:

       1A    -20.554125     2A    -11.296501     3A    -11.231882
       4A     -1.313242     5A     -1.026354     6A     -0.844006
       7A     -0.665150     8A     -0.603420     9A     -0.598793
      10A     -0.544555    11A     -0.509003    12A     -0.497189
      13A     -0.459311

  @DF-RHF Final Energy:  -154.11856638970514

   => Energetics <=

    Nuclear Repulsion Energy =             78.3600110261521223
    One-Electron Energy =                -364.6700920994497324
    Two-Electron Energy =                 132.1915146835924872
    Total Energy =                       -154.1185663897051370
  Basis Set: (AUG-CC-PVTZ AUX)
    Blend: AUG-CC-PVTZ-RI
    Molecular point group: c1

    Geometry (in Angstrom), charge = 0, multiplicity = 1:

       Center              X                  Y                   Z               Mass
    ------------   -----------------  -----------------  -----------------  -----------------
         C           -0.044582504793     0.603885366638     0.070990417130    12.000000000000
         C           -1.333417504793    -0.198512633362     0.001747417130    12.000000000000
         O            1.275888795207    -0.332053933362    -0.109691482870    15.994914619570
         H            0.003717495207     1.322567366638    -0.750134582870     1.007825032230
         H            0.004145495207     1.173435366638     1.010114417130     1.007825032230
         H           -2.208022504793     0.455695366638     0.070732417130     1.007825032230
         H            1.125054495207    -0.839804633362     0.658534417130     1.007825032230
         H           -1.387267504793    -0.918317633362     0.825244417130     1.007825032230
         H           -1.379298504793    -0.750342633362    -0.939684582870     1.007825032230

  Basis Set: AUG-CC-PVTZ
    Blend: AUG-CC-PVTZ
  Basis Set: (AUG-CC-PVTZ AUX)
    Blend: AUG-CC-PVTZ-JKFIT
	 Reference Energy          =    -154.1185663897051370 [Eh]
	 Singles Energy            =      -0.0000000000000000 [Eh]
	 Same-Spin Energy          =      -0.1488938337519179 [Eh]
	 Opposite-Spin Energy      =      -0.5230681984689578 [Eh]
	 Correlation Energy        =      -0.6719620322208757 [Eh]
	 Total Energy              =    -154.7905284219260125 [Eh]

	 ================> DF-SCS-MP2 Energies <==================
	-----------------------------------------------------------
	 SCS Same-Spin Scale       =       0.3333333333333333 [-]
	 SCS Opposite-Spin Scale   =       1.2000000000000000 [-]
	 SCS Same-Spin Energy      =      -0.0496312779173060 [Eh]
	 SCS Opposite-Spin Energy  =      -0.6276818381627494 [Eh]
	 SCS Correlation Energy    =      -0.6773131160800553 [Eh]
	 SCS Total Energy          =    -154.7958795057851944 [Eh]
	-----------------------------------------------------------

  Dipole Moment: [D]
     X:    -2.0335      Y:     0.3670      Z:     1.2176     Total:     2.3984

*** Psi4 exiting successfully. Buy a developer a beer!
