                               Psi4 1.3.2 release

  ==> Input File <==

--------------------------------------------------------------------------
#psi4
#
memory 32 gb

molecule  {
0 1
  C        0.0784890     0.5600950     0.0474820
  C       -1.2103460    -0.2423030    -0.0217610
  O        1.2367980    -0.2609050    -0.1110110
  H        0.1267890     1.2787770    -0.7736430
  H        0.1272170     1.1296450     0.9866060
  H       -2.0849510     0.4119050     0.0472240
  H        1.2492916    -0.9476693     0.7117927
  H       -1.2641960    -0.9621080     0.8017360
  H       -1.2562270    -0.7941330    -0.9631930
units angstrom
no_reorient  #important for SAPT in psi4, default
symmetry c1  #important for SAPT in psi4, default
}

set PROPERTIES_ORIGIN ["COM"]
properties('MP2/aug-cc-pvtz', properties = ['dipole'])
--------------------------------------------------------------------------

    Molecular point group: c1
  Charge       = 0
  Multiplicity = 1
  Basis Set: AUG-CC-PVTZ
    Blend: AUG-CC-PVTZ
  Basis Set: (AUG-CC-PVTZ AUX)
    Blend: AUG-CC-PVTZ-JKFIT

    Orbital Energies [Eh]
    ---------------------

    Doubly Occupied:

       1A    -20.565604     2A    -11.275212     3A    -11.219233
       4A     -1.335058     5A     -1.008084     6A     -0.839151
       7A     -0.671295     8A     -0.618632     9A     -0.598081
      10A     -0.541992    11A     -0.523867    12A     -0.478353
      13A     -0.442255

  @DF-RHF Final Energy:  -154.13074141444042

   => Energetics <=

    Nuclear Repulsion Energy =             81.0537345704235719
    One-Electron Energy =                -370.1353216776716977
    Two-Electron Energy =                 134.9508456928077180
    Total Energy =                       -154.1307414144404220
  Basis Set: (AUG-CC-PVTZ AUX)
    Blend: AUG-CC-PVTZ-RI
    Molecular point group: c1

    Geometry (in Angstrom), charge = 0, multiplicity = 1:

       Center              X                  Y                   Z               Mass
    ------------   -----------------  -----------------  -----------------  -----------------
         C            0.011727061136     0.565358069499     0.061601636623    12.000000000000
         C           -1.277107938864    -0.237039930501    -0.007641363377    12.000000000000
         O            1.170036061136    -0.255641930501    -0.096891363377    15.994914619570
         H            0.060027061136     1.284040069499    -0.759523363377     1.007825032230
         H            0.060455061136     1.134908069499     1.000725636623     1.007825032230
         H           -2.151712938864     0.417168069499     0.061343636623     1.007825032230
         H            1.182529661136    -0.942406230501     0.725912336623     1.007825032230
         H           -1.330957938864    -0.956844930501     0.815855636623     1.007825032230
         H           -1.322988938864    -0.788869930501    -0.949073363377     1.007825032230

  Basis Set: AUG-CC-PVTZ
    Blend: AUG-CC-PVTZ
  Basis Set: (AUG-CC-PVTZ AUX)
    Blend: AUG-CC-PVTZ-JKFIT
	 Reference Energy          =    -154.1307414144404220 [Eh]
	 Singles Energy            =      -0.0000000000000000 [Eh]
	 Same-Spin Energy          =      -0.1492393393283380 [Eh]
	 Opposite-Spin Energy      =      -0.5213225839926108 [Eh]
	 Correlation Energy        =      -0.6705619233209488 [Eh]
	 Total Energy              =    -154.8013033377613681 [Eh]

	 ================> DF-SCS-MP2 Energies <==================
	-----------------------------------------------------------
	 SCS Same-Spin Scale       =       0.3333333333333333 [-]
	 SCS Opposite-Spin Scale   =       1.2000000000000000 [-]
	 SCS Same-Spin Energy      =      -0.0497464464427793 [Eh]
	 SCS Opposite-Spin Energy  =      -0.6255871007911329 [Eh]
	 SCS Correlation Energy    =      -0.6753335472339123 [Eh]
	 SCS Total Energy          =    -154.8060749616743408 [Eh]
	-----------------------------------------------------------

  Dipole Moment: [D]
     X:    -1.2674      Y:    -0.1075      Z:     1.2294     Total:     1.7690

*** Psi4 exiting successfully. Buy a developer a beer!
