                               Psi4 1.4a3.dev225

  ==> Input File <==

--------------------------------------------------------------------------
#psi4
#
memory 32 gb

molecule  {
0 1
  C        0.0785380     0.5601430     0.0474840
  C       -1.2103730    -0.2423090    -0.0217710
  O        1.2529874    -0.2724231    -0.1132229
  H        0.1268240     1.2788600    -0.7736210
  H        0.1272230     1.1296140     0.9866460
  H       -2.0849970     0.4119200     0.0466030
  H        1.2480680    -0.8836960     0.6349600
  H       -1.2644420    -0.9616760     0.8021020
  H       -1.2558420    -0.7945950    -0.9629440
units angstrom
no_reorient  #important for SAPT in psi4, default
symmetry c1  #important for SAPT in psi4, default
}

set PROPERTIES_ORIGIN ["COM"]
properties('MP2/aug-cc-pvtz', properties = ['dipole'])
--------------------------------------------------------------------------

    Molecular point group: c1
  Charge       = 0
  Multiplicity = 1
  Basis Set: AUG-CC-PVTZ
    Blend: AUG-CC-PVTZ
  Basis Set: (AUG-CC-PVTZ AUX)
    Blend: AUG-CC-PVTZ-JKFIT

    Orbital Energies [Eh]
    ---------------------

    Doubly Occupied:

       1A    -20.556689     2A    -11.278003     3A    -11.221101
       4A     -1.348501     5A     -1.013321     6A     -0.845245
       7A     -0.682696     8A     -0.618321     9A     -0.603366
      10A     -0.544846    11A     -0.523855    12A     -0.485153
      13A     -0.446389

  @DF-RHF Final Energy:  -154.14329531141576

   => Energetics <=

    Nuclear Repulsion Energy =             81.2049505894552510
    One-Electron Energy =                -370.3615221755334801
    Two-Electron Energy =                 135.0132762746625019
    Total Energy =                       -154.1432953114157556
  Basis Set: (AUG-CC-PVTZ AUX)
    Blend: AUG-CC-PVTZ-RI
    Molecular point group: c1

    Geometry (in Angstrom), charge = 0, multiplicity = 1:

       Center              X                  Y                   Z               Mass
    ------------   -----------------  -----------------  -----------------  -----------------
         C            0.006169990538     0.567995361742     0.064054723959    12.000000000000
         C           -1.282741009462    -0.234456638258    -0.005200276041    12.000000000000
         O            1.180619390538    -0.264570738258    -0.096652176041    15.994914619570
         H            0.054455990538     1.286712361742    -0.757050276041     1.007825032230
         H            0.054854990538     1.137466361742     1.003216723959     1.007825032230
         H           -2.157365009462     0.419772361742     0.063173723959     1.007825032230
         H            1.175699990538    -0.875843638258     0.651530723959     1.007825032230
         H           -1.336810009462    -0.953823638258     0.818672723959     1.007825032230
         H           -1.328210009462    -0.786742638258    -0.946373276041     1.007825032230

  Basis Set: AUG-CC-PVTZ
    Blend: AUG-CC-PVTZ
  Basis Set: (AUG-CC-PVTZ AUX)
    Blend: AUG-CC-PVTZ-JKFIT
	 Reference Energy          =    -154.1432953114157556 [Eh]
	 Singles Energy            =      -0.0000000000000000 [Eh]
	 Same-Spin Energy          =      -0.1481947614400842 [Eh]
	 Opposite-Spin Energy      =      -0.5185327903003052 [Eh]
	 Correlation Energy        =      -0.6667275517403894 [Eh]
	 Total Energy              =    -154.8100228631561492 [Eh]

	 ================> DF-SCS-MP2 Energies <==================
	-----------------------------------------------------------
	 SCS Same-Spin Scale       =       0.3333333333333333 [-]
	 SCS Opposite-Spin Scale   =       1.2000000000000000 [-]
	 SCS Same-Spin Energy      =      -0.0493982538133614 [Eh]
	 SCS Opposite-Spin Energy  =      -0.6222393483603662 [Eh]
	 SCS Correlation Energy    =      -0.6716376021737276 [Eh]
	 SCS Total Energy          =    -154.8149329135894732 [Eh]
	-----------------------------------------------------------

  Dipole Moment: [D]
     X:    -1.3691      Y:    -0.0168      Z:     1.1910     Total:     1.8147

*** Psi4 exiting successfully. Buy a developer a beer!
