                               Psi4 1.3.2 release

  ==> Input File <==

--------------------------------------------------------------------------
#psi4
#
memory 32 gb

molecule  {
0 1
  C        0.1048121     0.6073488    -0.0362852
  C       -1.2103460    -0.2423030    -0.0217610
  O        1.2367980    -0.2609050    -0.1110110
  H        0.1267890     1.2787770    -0.7736430
  H        0.1272170     1.1296450     0.9866060
  H       -2.0849510     0.4119050     0.0472240
  H        1.2481260    -0.8835950     0.6350260
  H       -1.2641960    -0.9621080     0.8017360
  H       -1.2562270    -0.7941330    -0.9631930
units angstrom
no_reorient  #important for SAPT in psi4, default
symmetry c1  #important for SAPT in psi4, default
}

set PROPERTIES_ORIGIN ["COM"]
properties('MP2/aug-cc-pvtz', properties = ['dipole'])
--------------------------------------------------------------------------

    Molecular point group: c1
  Charge       = 0
  Multiplicity = 1
  Basis Set: AUG-CC-PVTZ
    Blend: AUG-CC-PVTZ
  Basis Set: (AUG-CC-PVTZ AUX)
    Blend: AUG-CC-PVTZ-JKFIT

    Orbital Energies [Eh]
    ---------------------

    Doubly Occupied:

       1A    -20.554368     2A    -11.276777     3A    -11.220958
       4A     -1.350496     5A     -1.004222     6A     -0.856808
       7A     -0.677071     8A     -0.635580     9A     -0.600186
      10A     -0.537243    11A     -0.533762    12A     -0.488316
      13A     -0.428652

  @DF-RHF Final Energy:  -154.13243279203863

   => Energetics <=

    Nuclear Repulsion Energy =             81.2164084730430460
    One-Electron Energy =                -370.3688035449933977
    Two-Electron Energy =                 135.0199622799117378
    Total Energy =                       -154.1324327920386281
  Basis Set: (AUG-CC-PVTZ AUX)
    Blend: AUG-CC-PVTZ-RI
    Molecular point group: c1

    Geometry (in Angstrom), charge = 0, multiplicity = 1:

       Center              X                  Y                   Z               Mass
    ------------   -----------------  -----------------  -----------------  -----------------
         C            0.031215023584     0.598893457223     0.001347250587    12.000000000000
         C           -1.283943076416    -0.250758342777     0.015871450587    12.000000000000
         O            1.163200923584    -0.269360342777    -0.073378549413    15.994914619570
         H            0.053191923584     1.270321657223    -0.736010549413     1.007825032230
         H            0.053619923584     1.121189657223     1.024238450587     1.007825032230
         H           -2.158548076416     0.403449657223     0.084856450587     1.007825032230
         H            1.174528923584    -0.892050342777     0.672658450587     1.007825032230
         H           -1.337793076416    -0.970563342777     0.839368450587     1.007825032230
         H           -1.329824076416    -0.802588342777    -0.925560549413     1.007825032230

  Basis Set: AUG-CC-PVTZ
    Blend: AUG-CC-PVTZ
  Basis Set: (AUG-CC-PVTZ AUX)
    Blend: AUG-CC-PVTZ-JKFIT
	 Reference Energy          =    -154.1324327920386281 [Eh]
	 Singles Energy            =      -0.0000000000000000 [Eh]
	 Same-Spin Energy          =      -0.1478509233130182 [Eh]
	 Opposite-Spin Energy      =      -0.5179906013351968 [Eh]
	 Correlation Energy        =      -0.6658415246482150 [Eh]
	 Total Energy              =    -154.7982743166868431 [Eh]

	 ================> DF-SCS-MP2 Energies <==================
	-----------------------------------------------------------
	 SCS Same-Spin Scale       =       0.3333333333333333 [-]
	 SCS Opposite-Spin Scale   =       1.2000000000000000 [-]
	 SCS Same-Spin Energy      =      -0.0492836411043394 [Eh]
	 SCS Opposite-Spin Energy  =      -0.6215887216022361 [Eh]
	 SCS Correlation Energy    =      -0.6708723627065755 [Eh]
	 SCS Total Energy          =    -154.8033051547452033 [Eh]
	-----------------------------------------------------------

  Dipole Moment: [D]
     X:    -1.2448      Y:    -0.0203      Z:     1.0890     Total:     1.6540

*** Psi4 exiting successfully. Buy a developer a beer!
