                               Psi4 1.3.2 release

  ==> Input File <==

--------------------------------------------------------------------------
#psi4
#
memory 32 gb

molecule  {
0 1
  C        0.0578091     0.5088413     0.1304770
  C       -1.2103460    -0.2423030    -0.0217610
  O        1.2367980    -0.2609050    -0.1110110
  H        0.1267890     1.2787770    -0.7736430
  H        0.1272170     1.1296450     0.9866060
  H       -2.0849510     0.4119050     0.0472240
  H        1.2481260    -0.8835950     0.6350260
  H       -1.2641960    -0.9621080     0.8017360
  H       -1.2562270    -0.7941330    -0.9631930
units angstrom
no_reorient  #important for SAPT in psi4, default
symmetry c1  #important for SAPT in psi4, default
}

set PROPERTIES_ORIGIN ["COM"]
properties('MP2/aug-cc-pvtz', properties = ['dipole'])
--------------------------------------------------------------------------

    Molecular point group: c1
  Charge       = 0
  Multiplicity = 1
  Basis Set: AUG-CC-PVTZ
    Blend: AUG-CC-PVTZ
  Basis Set: (AUG-CC-PVTZ AUX)
    Blend: AUG-CC-PVTZ-JKFIT

    Orbital Energies [Eh]
    ---------------------

    Doubly Occupied:

       1A    -20.561164     2A    -11.278430     3A    -11.220150
       4A     -1.358228     5A     -1.020750     6A     -0.839902
       7A     -0.690893     8A     -0.624562     9A     -0.600790
      10A     -0.555366    11A     -0.524677    12A     -0.458111
      13A     -0.457049

  @DF-RHF Final Energy:  -154.13178385069611

   => Energetics <=

    Nuclear Repulsion Energy =             81.8548671576442501
    One-Electron Energy =                -371.5931584694998833
    Two-Electron Energy =                 135.6065074611595094
    Total Energy =                       -154.1317838506961095
  Basis Set: (AUG-CC-PVTZ AUX)
    Blend: AUG-CC-PVTZ-RI
    Molecular point group: c1

    Geometry (in Angstrom), charge = 0, multiplicity = 1:

       Center              X                  Y                   Z               Mass
    ------------   -----------------  -----------------  -----------------  -----------------
         C           -0.003537473482     0.526060199672     0.124645824425    12.000000000000
         C           -1.271692573482    -0.225084100328    -0.027592175575    12.000000000000
         O            1.175451426518    -0.243686100328    -0.116842175575    15.994914619570
         H            0.065442426518     1.295995899672    -0.779474175575     1.007825032230
         H            0.065870426518     1.146863899672     0.980774824425     1.007825032230
         H           -2.146297573482     0.429123899672     0.041392824425     1.007825032230
         H            1.186779426518    -0.866376100328     0.629194824425     1.007825032230
         H           -1.325542573482    -0.944889100328     0.795904824425     1.007825032230
         H           -1.317573573482    -0.776914100328    -0.969024175575     1.007825032230

  Basis Set: AUG-CC-PVTZ
    Blend: AUG-CC-PVTZ
  Basis Set: (AUG-CC-PVTZ AUX)
    Blend: AUG-CC-PVTZ-JKFIT
	 Reference Energy          =    -154.1317838506961095 [Eh]
	 Singles Energy            =      -0.0000000000000000 [Eh]
	 Same-Spin Energy          =      -0.1489153109092727 [Eh]
	 Opposite-Spin Energy      =      -0.5195754146937945 [Eh]
	 Correlation Energy        =      -0.6684907256030672 [Eh]
	 Total Energy              =    -154.8002745762991879 [Eh]

	 ================> DF-SCS-MP2 Energies <==================
	-----------------------------------------------------------
	 SCS Same-Spin Scale       =       0.3333333333333333 [-]
	 SCS Opposite-Spin Scale   =       1.2000000000000000 [-]
	 SCS Same-Spin Energy      =      -0.0496384369697576 [Eh]
	 SCS Opposite-Spin Energy  =      -0.6234904976325534 [Eh]
	 SCS Correlation Energy    =      -0.6731289346023109 [Eh]
	 SCS Total Energy          =    -154.8049127852984270 [Eh]
	-----------------------------------------------------------

  Dipole Moment: [D]
     X:    -1.3113      Y:    -0.1532      Z:     1.2885     Total:     1.8447

*** Psi4 exiting successfully. Buy a developer a beer!
