                               Psi4 1.3.2 release

  ==> Input File <==

--------------------------------------------------------------------------
#psi4
#
memory 32 gb

molecule  {
0 1
  C        0.0784890     0.5600950     0.0474820
  C       -1.2103460    -0.2423030    -0.0217610
  O        1.1557169    -0.2034353    -0.0999166
  H        0.1267890     1.2787770    -0.7736430
  H        0.1272170     1.1296450     0.9866060
  H       -2.0849510     0.4119050     0.0472240
  H        1.2481260    -0.8835950     0.6350260
  H       -1.2641960    -0.9621080     0.8017360
  H       -1.2562270    -0.7941330    -0.9631930
units angstrom
no_reorient  #important for SAPT in psi4, default
symmetry c1  #important for SAPT in psi4, default
}

set PROPERTIES_ORIGIN ["COM"]
properties('MP2/aug-cc-pvtz', properties = ['dipole'])
--------------------------------------------------------------------------

    Molecular point group: c1
  Charge       = 0
  Multiplicity = 1
  Basis Set: AUG-CC-PVTZ
    Blend: AUG-CC-PVTZ
  Basis Set: (AUG-CC-PVTZ AUX)
    Blend: AUG-CC-PVTZ-JKFIT

    Orbital Energies [Eh]
    ---------------------

    Doubly Occupied:

       1A    -20.558096     2A    -11.265690     3A    -11.213145
       4A     -1.384971     5A     -1.003238     6A     -0.850050
       7A     -0.696688     8A     -0.637808     9A     -0.615090
      10A     -0.543672    11A     -0.528785    12A     -0.467649
      13A     -0.431336

  @DF-RHF Final Energy:  -154.13707288847993

   => Energetics <=

    Nuclear Repulsion Energy =             83.3817939424120169
    One-Electron Energy =                -374.6453002780202155
    Two-Electron Energy =                 137.1264334471282780
    Total Energy =                       -154.1370728884799348
  Basis Set: (AUG-CC-PVTZ AUX)
    Blend: AUG-CC-PVTZ-RI
    Molecular point group: c1

    Geometry (in Angstrom), charge = 0, multiplicity = 1:

       Center              X                  Y                   Z               Mass
    ------------   -----------------  -----------------  -----------------  -----------------
         C            0.039920098014     0.543990589442     0.059427819831    12.000000000000
         C           -1.248914901986    -0.258407410558    -0.009815180169    12.000000000000
         O            1.117147998014    -0.219539710558    -0.087970780169    15.994914619570
         H            0.088220098014     1.262672589442    -0.761697180169     1.007825032230
         H            0.088648098014     1.113540589442     0.998551819831     1.007825032230
         H           -2.123519901986     0.395800589442     0.059169819831     1.007825032230
         H            1.209557098014    -0.899699410558     0.646971819831     1.007825032230
         H           -1.302764901986    -0.978212410558     0.813681819831     1.007825032230
         H           -1.294795901986    -0.810237410558    -0.951247180169     1.007825032230

  Basis Set: AUG-CC-PVTZ
    Blend: AUG-CC-PVTZ
  Basis Set: (AUG-CC-PVTZ AUX)
    Blend: AUG-CC-PVTZ-JKFIT
	 Reference Energy          =    -154.1370728884799348 [Eh]
	 Singles Energy            =      -0.0000000000000000 [Eh]
	 Same-Spin Energy          =      -0.1484377004472116 [Eh]
	 Opposite-Spin Energy      =      -0.5170368028783257 [Eh]
	 Correlation Energy        =      -0.6654745033255373 [Eh]
	 Total Energy              =    -154.8025473918054615 [Eh]

	 ================> DF-SCS-MP2 Energies <==================
	-----------------------------------------------------------
	 SCS Same-Spin Scale       =       0.3333333333333333 [-]
	 SCS Opposite-Spin Scale   =       1.2000000000000000 [-]
	 SCS Same-Spin Energy      =      -0.0494792334824039 [Eh]
	 SCS Opposite-Spin Energy  =      -0.6204441634539908 [Eh]
	 SCS Correlation Energy    =      -0.6699233969363947 [Eh]
	 SCS Total Energy          =    -154.8069962854163180 [Eh]
	-----------------------------------------------------------

  Dipole Moment: [D]
     X:    -0.8590      Y:    -0.3088      Z:     1.1523     Total:     1.4701

*** Psi4 exiting successfully. Buy a developer a beer!
