                               Psi4 1.4a3.dev225

  ==> Input File <==

--------------------------------------------------------------------------
#psi4
#
memory 32 gb

molecule  {
0 1
  C        0.0785380     0.5601430     0.0474840
  C       -1.2103730    -0.2423090    -0.0217710
  O        1.2367720    -0.2609280    -0.1110040
  H        0.1268240     1.2788600    -0.7736210
  H        0.1272230     1.1296140     0.9866460
  H       -2.0849970     0.4119200     0.0466030
  H        1.2478355    -0.8708794     0.6196081
  H       -1.2644420    -0.9616760     0.8021020
  H       -1.2558420    -0.7945950    -0.9629440
units angstrom
no_reorient  #important for SAPT in psi4, default
symmetry c1  #important for SAPT in psi4, default
}

set PROPERTIES_ORIGIN ["COM"]
properties('MP2/aug-cc-pvtz', properties = ['dipole'])
--------------------------------------------------------------------------

    Molecular point group: c1
  Charge       = 0
  Multiplicity = 1
  Basis Set: AUG-CC-PVTZ
    Blend: AUG-CC-PVTZ
  Basis Set: (AUG-CC-PVTZ AUX)
    Blend: AUG-CC-PVTZ-JKFIT

    Orbital Energies [Eh]
    ---------------------

    Doubly Occupied:

       1A    -20.555020     2A    -11.276107     3A    -11.219961
       4A     -1.358154     5A     -1.012606     6A     -0.847414
       7A     -0.687889     8A     -0.621604     9A     -0.605818
      10A     -0.545367    11A     -0.525368    12A     -0.483385
      13A     -0.444726

  @DF-RHF Final Energy:  -154.14484836584757

   => Energetics <=

    Nuclear Repulsion Energy =             81.6586744986709618
    One-Electron Energy =                -371.2402136617143356
    Two-Electron Energy =                 135.4366907971958085
    Total Energy =                       -154.1448483658475652
  Basis Set: (AUG-CC-PVTZ AUX)
    Blend: AUG-CC-PVTZ-RI
    Molecular point group: c1

    Geometry (in Angstrom), charge = 0, multiplicity = 1:

       Center              X                  Y                   Z               Mass
    ------------   -----------------  -----------------  -----------------  -----------------
         C            0.011808299475     0.563721424660     0.063619922132    12.000000000000
         C           -1.277102700525    -0.238730575340    -0.005635077868    12.000000000000
         O            1.170042299475    -0.257349575340    -0.094868077868    15.994914619570
         H            0.060094299475     1.282438424660    -0.757485077868     1.007825032230
         H            0.060493299475     1.133192424660     1.002781922132     1.007825032230
         H           -2.151726700525     0.415498424660     0.062738922132     1.007825032230
         H            1.181105799475    -0.867300975340     0.635744022132     1.007825032230
         H           -1.331171700525    -0.958097575340     0.818237922132     1.007825032230
         H           -1.322571700525    -0.791016575340    -0.946808077868     1.007825032230

  Basis Set: AUG-CC-PVTZ
    Blend: AUG-CC-PVTZ
  Basis Set: (AUG-CC-PVTZ AUX)
    Blend: AUG-CC-PVTZ-JKFIT
	 Reference Energy          =    -154.1448483658475652 [Eh]
	 Singles Energy            =      -0.0000000000000000 [Eh]
	 Same-Spin Energy          =      -0.1479711486713762 [Eh]
	 Opposite-Spin Energy      =      -0.5175978923748732 [Eh]
	 Correlation Energy        =      -0.6655690410462494 [Eh]
	 Total Energy              =    -154.8104174068938050 [Eh]

	 ================> DF-SCS-MP2 Energies <==================
	-----------------------------------------------------------
	 SCS Same-Spin Scale       =       0.3333333333333333 [-]
	 SCS Opposite-Spin Scale   =       1.2000000000000000 [-]
	 SCS Same-Spin Energy      =      -0.0493237162237921 [Eh]
	 SCS Opposite-Spin Energy  =      -0.6211174708498478 [Eh]
	 SCS Correlation Energy    =      -0.6704411870736399 [Eh]
	 SCS Total Energy          =    -154.8152895529212003 [Eh]
	-----------------------------------------------------------

  Dipole Moment: [D]
     X:    -1.2934      Y:    -0.0533      Z:     1.1768     Total:     1.7494

*** Psi4 exiting successfully. Buy a developer a beer!
