                               Psi4 1.3.2 release

  ==> Input File <==

--------------------------------------------------------------------------
#psi4
#
memory 32 gb

molecule  {
0 1
  C        0.0784890     0.5600950     0.0474820
  C       -1.1192843    -0.3709332    -0.0433937
  O        1.2367980    -0.2609050    -0.1110110
  H        0.1267890     1.2787770    -0.7736430
  H        0.1272170     1.1296450     0.9866060
  H       -2.0849510     0.4119050     0.0472240
  H        1.2481260    -0.8835950     0.6350260
  H       -1.2641960    -0.9621080     0.8017360
  H       -1.2562270    -0.7941330    -0.9631930
units angstrom
no_reorient  #important for SAPT in psi4, default
symmetry c1  #important for SAPT in psi4, default
}

set PROPERTIES_ORIGIN ["COM"]
properties('MP2/aug-cc-pvtz', properties = ['dipole'])
--------------------------------------------------------------------------

    Molecular point group: c1
  Charge       = 0
  Multiplicity = 1
  Basis Set: AUG-CC-PVTZ
    Blend: AUG-CC-PVTZ
  Basis Set: (AUG-CC-PVTZ AUX)
    Blend: AUG-CC-PVTZ-JKFIT

    Orbital Energies [Eh]
    ---------------------

    Doubly Occupied:

       1A    -20.552370     2A    -11.278146     3A    -11.223729
       4A     -1.353307     5A     -1.010829     6A     -0.851010
       7A     -0.689219     8A     -0.621827     9A     -0.607622
      10A     -0.565913    11A     -0.504767    12A     -0.477755
      13A     -0.436425

  @DF-RHF Final Energy:  -154.12090629823172

   => Energetics <=

    Nuclear Repulsion Energy =             81.9412841601013895
    One-Electron Energy =                -371.7785423404300218
    Two-Electron Energy =                 135.7163518820968875
    Total Energy =                       -154.1209062982317164
  Basis Set: (AUG-CC-PVTZ AUX)
    Blend: AUG-CC-PVTZ-RI
    Molecular point group: c1

    Geometry (in Angstrom), charge = 0, multiplicity = 1:

       Center              X                  Y                   Z               Mass
    ------------   -----------------  -----------------  -----------------  -----------------
         C           -0.011981050679     0.597480719669     0.068920189059    12.000000000000
         C           -1.209754350679    -0.333547480331    -0.021955510941    12.000000000000
         O            1.146327949321    -0.223519280331    -0.089572810941    15.994914619570
         H            0.036318949321     1.316162719669    -0.752204810941     1.007825032230
         H            0.036746949321     1.167030719669     1.008044189059     1.007825032230
         H           -2.175421050679     0.449290719669     0.068662189059     1.007825032230
         H            1.157655949321    -0.846209280331     0.656464189059     1.007825032230
         H           -1.354666050679    -0.924722280331     0.823174189059     1.007825032230
         H           -1.346697050679    -0.756747280331    -0.941754810941     1.007825032230

  Basis Set: AUG-CC-PVTZ
    Blend: AUG-CC-PVTZ
  Basis Set: (AUG-CC-PVTZ AUX)
    Blend: AUG-CC-PVTZ-JKFIT
	 Reference Energy          =    -154.1209062982317164 [Eh]
	 Singles Energy            =      -0.0000000000000000 [Eh]
	 Same-Spin Energy          =      -0.1485073510984566 [Eh]
	 Opposite-Spin Energy      =      -0.5192222689709460 [Eh]
	 Correlation Energy        =      -0.6677296200694026 [Eh]
	 Total Energy              =    -154.7886359183011109 [Eh]

	 ================> DF-SCS-MP2 Energies <==================
	-----------------------------------------------------------
	 SCS Same-Spin Scale       =       0.3333333333333333 [-]
	 SCS Opposite-Spin Scale   =       1.2000000000000000 [-]
	 SCS Same-Spin Energy      =      -0.0495024503661522 [Eh]
	 SCS Opposite-Spin Energy  =      -0.6230667227651352 [Eh]
	 SCS Correlation Energy    =      -0.6725691731312874 [Eh]
	 SCS Total Energy          =    -154.7934754713629957 [Eh]
	-----------------------------------------------------------

  Dipole Moment: [D]
     X:    -1.2238      Y:    -0.0981      Z:     1.1794     Total:     1.7025

*** Psi4 exiting successfully. Buy a developer a beer!
