                               Psi4 1.3.2 release

  ==> Input File <==

--------------------------------------------------------------------------
#psi4
#
memory 32 gb

molecule  {
0 1
  C        0.0784890     0.5600950     0.0474820
  C       -1.1961246    -0.2643912    -0.0254256
  O        1.2367980    -0.2609050    -0.1110110
  H        0.1267890     1.2787770    -0.7736430
  H        0.1272170     1.1296450     0.9866060
  H       -2.0849510     0.4119050     0.0472240
  H        1.2481260    -0.8835950     0.6350260
  H       -1.2641960    -0.9621080     0.8017360
  H       -1.2562270    -0.7941330    -0.9631930
units angstrom
no_reorient  #important for SAPT in psi4, default
symmetry c1  #important for SAPT in psi4, default
}

set PROPERTIES_ORIGIN ["COM"]
properties('MP2/aug-cc-pvtz', properties = ['dipole'])
--------------------------------------------------------------------------

    Molecular point group: c1
  Charge       = 0
  Multiplicity = 1
  Basis Set: AUG-CC-PVTZ
    Blend: AUG-CC-PVTZ
  Basis Set: (AUG-CC-PVTZ AUX)
    Blend: AUG-CC-PVTZ-JKFIT

    Orbital Energies [Eh]
    ---------------------

    Doubly Occupied:

       1A    -20.556002     2A    -11.276003     3A    -11.219830
       4A     -1.353323     5A     -1.011299     6A     -0.846292
       7A     -0.685297     8A     -0.619464     9A     -0.604737
      10A     -0.548692    11A     -0.520951    12A     -0.483611
      13A     -0.443826

  @DF-RHF Final Energy:  -154.14331360046697

   => Energetics <=

    Nuclear Repulsion Energy =             81.6115570719567387
    One-Electron Energy =                -371.1710835136779565
    Two-Electron Energy =                 135.4162128412542643
    Total Energy =                       -154.1433136004669677
  Basis Set: (AUG-CC-PVTZ AUX)
    Blend: AUG-CC-PVTZ-RI
    Molecular point group: c1

    Geometry (in Angstrom), charge = 0, multiplicity = 1:

       Center              X                  Y                   Z               Mass
    ------------   -----------------  -----------------  -----------------  -----------------
         C            0.008046018245     0.569712426504     0.064237120706    12.000000000000
         C           -1.266567581755    -0.254773773496    -0.008670479294    12.000000000000
         O            1.166355018245    -0.251287573496    -0.094255879294    15.994914619570
         H            0.056346018245     1.288394426504    -0.756887879294     1.007825032230
         H            0.056774018245     1.139262426504     1.003361120706     1.007825032230
         H           -2.155393981755     0.421522426504     0.063979120706     1.007825032230
         H            1.177683018245    -0.873977573496     0.651781120706     1.007825032230
         H           -1.334638981755    -0.952490573496     0.818491120706     1.007825032230
         H           -1.326669981755    -0.784515573496    -0.946437879294     1.007825032230

  Basis Set: AUG-CC-PVTZ
    Blend: AUG-CC-PVTZ
  Basis Set: (AUG-CC-PVTZ AUX)
    Blend: AUG-CC-PVTZ-JKFIT
	 Reference Energy          =    -154.1433136004669677 [Eh]
	 Singles Energy            =      -0.0000000000000000 [Eh]
	 Same-Spin Energy          =      -0.1481908581457702 [Eh]
	 Opposite-Spin Energy      =      -0.5182010945555529 [Eh]
	 Correlation Energy        =      -0.6663919527013230 [Eh]
	 Total Energy              =    -154.8097055531682997 [Eh]

	 ================> DF-SCS-MP2 Energies <==================
	-----------------------------------------------------------
	 SCS Same-Spin Scale       =       0.3333333333333333 [-]
	 SCS Opposite-Spin Scale   =       1.2000000000000000 [-]
	 SCS Same-Spin Energy      =      -0.0493969527152567 [Eh]
	 SCS Opposite-Spin Energy  =      -0.6218413134666634 [Eh]
	 SCS Correlation Energy    =      -0.6712382661819201 [Eh]
	 SCS Total Energy          =    -154.8145518666488840 [Eh]
	-----------------------------------------------------------

  Dipole Moment: [D]
     X:    -1.2849      Y:    -0.0687      Z:     1.1853     Total:     1.7494

*** Psi4 exiting successfully. Buy a developer a beer!
