                               Psi4 1.3.2 release

  ==> Input File <==

--------------------------------------------------------------------------
#psi4
#
memory 32 gb

molecule  {
0 1
  C        0.0784890     0.5600950     0.0474820
  C       -1.2103460    -0.2423030    -0.0217610
  O        1.2697384    -0.1776882    -0.2308015
  H        0.1267890     1.2787770    -0.7736430
  H        0.1272170     1.1296450     0.9866060
  H       -2.0849510     0.4119050     0.0472240
  H        1.2481260    -0.8835950     0.6350260
  H       -1.2641960    -0.9621080     0.8017360
  H       -1.2562270    -0.7941330    -0.9631930
units angstrom
no_reorient  #important for SAPT in psi4, default
symmetry c1  #important for SAPT in psi4, default
}

set PROPERTIES_ORIGIN ["COM"]
properties('MP2/aug-cc-pvtz', properties = ['dipole'])
--------------------------------------------------------------------------

    Molecular point group: c1
  Charge       = 0
  Multiplicity = 1
  Basis Set: AUG-CC-PVTZ
    Blend: AUG-CC-PVTZ
  Basis Set: (AUG-CC-PVTZ AUX)
    Blend: AUG-CC-PVTZ-JKFIT

    Orbital Energies [Eh]
    ---------------------

    Doubly Occupied:

       1A    -20.574288     2A    -11.274475     3A    -11.221688
       4A     -1.334453     5A     -1.008470     6A     -0.835794
       7A     -0.672098     8A     -0.617353     9A     -0.590537
      10A     -0.545609    11A     -0.524668    12A     -0.476290
      13A     -0.445668

  @DF-RHF Final Energy:  -154.11617287771500

   => Energetics <=

    Nuclear Repulsion Energy =             80.8047651072167241
    One-Electron Energy =                -369.5990909705229228
    Two-Electron Energy =                 134.6781529855911970
    Total Energy =                       -154.1161728777150017
  Basis Set: (AUG-CC-PVTZ AUX)
    Blend: AUG-CC-PVTZ-RI
    Molecular point group: c1

    Geometry (in Angstrom), charge = 0, multiplicity = 1:

       Center              X                  Y                   Z               Mass
    ------------   -----------------  -----------------  -----------------  -----------------
         C            0.000309101268     0.535046063241     0.104897151036    12.000000000000
         C           -1.288525898732    -0.267351936759     0.035654151036    12.000000000000
         O            1.191558501268    -0.202737136759    -0.173386348964    15.994914619570
         H            0.048609101268     1.253728063241    -0.716227848964     1.007825032230
         H            0.049037101268     1.104596063241     1.044021151036     1.007825032230
         H           -2.163130898732     0.386856063241     0.104639151036     1.007825032230
         H            1.169946101268    -0.908643936759     0.692441151036     1.007825032230
         H           -1.342375898732    -0.987156936759     0.859151151036     1.007825032230
         H           -1.334406898732    -0.819181936759    -0.905777848964     1.007825032230

  Basis Set: AUG-CC-PVTZ
    Blend: AUG-CC-PVTZ
  Basis Set: (AUG-CC-PVTZ AUX)
    Blend: AUG-CC-PVTZ-JKFIT
	 Reference Energy          =    -154.1161728777150017 [Eh]
	 Singles Energy            =      -0.0000000000000000 [Eh]
	 Same-Spin Energy          =      -0.1502774912813152 [Eh]
	 Opposite-Spin Energy      =      -0.5241274037254749 [Eh]
	 Correlation Energy        =      -0.6744048950067902 [Eh]
	 Total Energy              =    -154.7905777727218037 [Eh]

	 ================> DF-SCS-MP2 Energies <==================
	-----------------------------------------------------------
	 SCS Same-Spin Scale       =       0.3333333333333333 [-]
	 SCS Opposite-Spin Scale   =       1.2000000000000000 [-]
	 SCS Same-Spin Energy      =      -0.0500924970937717 [Eh]
	 SCS Opposite-Spin Energy  =      -0.6289528844705700 [Eh]
	 SCS Correlation Energy    =      -0.6790453815643417 [Eh]
	 SCS Total Energy          =    -154.7952182592793520 [Eh]
	-----------------------------------------------------------

  Dipole Moment: [D]
     X:    -1.3256      Y:    -0.1874      Z:     1.3172     Total:     1.8781

*** Psi4 exiting successfully. Buy a developer a beer!
