                               Psi4 1.3.2 release

  ==> Input File <==

--------------------------------------------------------------------------
#psi4
#
memory 32 gb

molecule  {
0 1
  C        0.0784890     0.5600950     0.0474820
  C       -1.2103460    -0.2423030    -0.0217610
  O        1.0746357    -0.1459657    -0.0888221
  H        0.1267890     1.2787770    -0.7736430
  H        0.1272170     1.1296450     0.9866060
  H       -2.0849510     0.4119050     0.0472240
  H        1.2481260    -0.8835950     0.6350260
  H       -1.2641960    -0.9621080     0.8017360
  H       -1.2562270    -0.7941330    -0.9631930
units angstrom
no_reorient  #important for SAPT in psi4, default
symmetry c1  #important for SAPT in psi4, default
}

set PROPERTIES_ORIGIN ["COM"]
properties('MP2/aug-cc-pvtz', properties = ['dipole'])
--------------------------------------------------------------------------

    Molecular point group: c1
  Charge       = 0
  Multiplicity = 1
  Basis Set: AUG-CC-PVTZ
    Blend: AUG-CC-PVTZ
  Basis Set: (AUG-CC-PVTZ AUX)
    Blend: AUG-CC-PVTZ-JKFIT

    Orbital Energies [Eh]
    ---------------------

    Doubly Occupied:

       1A    -20.559132     2A    -11.256243     3A    -11.205824
       4A     -1.428672     5A     -0.993835     6A     -0.856059
       7A     -0.710030     8A     -0.660281     9A     -0.631623
      10A     -0.541026    11A     -0.529283    12A     -0.448730
      13A     -0.414843

  @DF-RHF Final Energy:  -154.10507101302130

   => Energetics <=

    Nuclear Repulsion Energy =             85.4411253816963523
    One-Electron Energy =                -378.6212296632519383
    Two-Electron Energy =                 139.0750332685342983
    Total Energy =                       -154.1050710130213020
  Basis Set: (AUG-CC-PVTZ AUX)
    Blend: AUG-CC-PVTZ-RI
    Molecular point group: c1

    Geometry (in Angstrom), charge = 0, multiplicity = 1:

       Center              X                  Y                   Z               Mass
    ------------   -----------------  -----------------  -----------------  -----------------
         C            0.068087655443     0.524025686870     0.055573597571    12.000000000000
         C           -1.220747344557    -0.278372313130    -0.013669402429    12.000000000000
         O            1.064234355443    -0.182035013130    -0.080730502429    15.994914619570
         H            0.116387655443     1.242707686870    -0.765551402429     1.007825032230
         H            0.116815655443     1.093575686870     0.994697597571     1.007825032230
         H           -2.095352344557     0.375835686870     0.055315597571     1.007825032230
         H            1.237724655443    -0.919664313130     0.643117597571     1.007825032230
         H           -1.274597344557    -0.998177313130     0.809827597571     1.007825032230
         H           -1.266628344557    -0.830202313130    -0.955101402429     1.007825032230

  Basis Set: AUG-CC-PVTZ
    Blend: AUG-CC-PVTZ
  Basis Set: (AUG-CC-PVTZ AUX)
    Blend: AUG-CC-PVTZ-JKFIT
	 Reference Energy          =    -154.1050710130213020 [Eh]
	 Singles Energy            =      -0.0000000000000000 [Eh]
	 Same-Spin Energy          =      -0.1492018509951094 [Eh]
	 Opposite-Spin Energy      =      -0.5168723832143851 [Eh]
	 Correlation Energy        =      -0.6660742342094945 [Eh]
	 Total Energy              =    -154.7711452472308054 [Eh]

	 ================> DF-SCS-MP2 Energies <==================
	-----------------------------------------------------------
	 SCS Same-Spin Scale       =       0.3333333333333333 [-]
	 SCS Opposite-Spin Scale   =       1.2000000000000000 [-]
	 SCS Same-Spin Energy      =      -0.0497339503317031 [Eh]
	 SCS Opposite-Spin Energy  =      -0.6202468598572621 [Eh]
	 SCS Correlation Energy    =      -0.6699808101889653 [Eh]
	 SCS Total Energy          =    -154.7750518232102763 [Eh]
	-----------------------------------------------------------

  Dipole Moment: [D]
     X:    -0.3845      Y:    -0.5734      Z:     1.0935     Total:     1.2932

*** Psi4 exiting successfully. Buy a developer a beer!
