                               Psi4 1.3.2 release

  ==> Input File <==

--------------------------------------------------------------------------
#psi4
#
memory 32 gb

molecule  {
0 1
  C        0.0784890     0.5600950     0.0474820
  C       -1.2103460    -0.2423030    -0.0217610
  O        1.1911670    -0.3351268     0.0105160
  H        0.1267890     1.2787770    -0.7736430
  H        0.1272170     1.1296450     0.9866060
  H       -2.0849510     0.4119050     0.0472240
  H        1.2481260    -0.8835950     0.6350260
  H       -1.2641960    -0.9621080     0.8017360
  H       -1.2562270    -0.7941330    -0.9631930
units angstrom
no_reorient  #important for SAPT in psi4, default
symmetry c1  #important for SAPT in psi4, default
}

set PROPERTIES_ORIGIN ["COM"]
properties('MP2/aug-cc-pvtz', properties = ['dipole'])
--------------------------------------------------------------------------

    Molecular point group: c1
  Charge       = 0
  Multiplicity = 1
  Basis Set: AUG-CC-PVTZ
    Blend: AUG-CC-PVTZ
  Basis Set: (AUG-CC-PVTZ AUX)
    Blend: AUG-CC-PVTZ-JKFIT

    Orbital Energies [Eh]
    ---------------------

    Doubly Occupied:

       1A    -20.536236     2A    -11.280236     3A    -11.218419
       4A     -1.384228     5A     -1.019707     6A     -0.861571
       7A     -0.703414     8A     -0.634924     9A     -0.607868
      10A     -0.543110    11A     -0.526608    12A     -0.479083
      13A     -0.444221

  @DF-RHF Final Energy:  -154.12594257644531

   => Energetics <=

    Nuclear Repulsion Energy =             82.5045998648314907
    One-Electron Energy =                -372.7818356021896875
    Two-Electron Energy =                 136.1512931609128714
    Total Energy =                       -154.1259425764453113
  Basis Set: (AUG-CC-PVTZ AUX)
    Blend: AUG-CC-PVTZ-RI
    Molecular point group: c1

    Geometry (in Angstrom), charge = 0, multiplicity = 1:

       Center              X                  Y                   Z               Mass
    ------------   -----------------  -----------------  -----------------  -----------------
         C            0.027604755769     0.589740132976     0.021063604667    12.000000000000
         C           -1.261230244231    -0.212657867024    -0.048179395333    12.000000000000
         O            1.140282755769    -0.305481667024    -0.015902395333    15.994914619570
         H            0.075904755769     1.308422132976    -0.800061395333     1.007825032230
         H            0.076332755769     1.159290132976     0.960187604667     1.007825032230
         H           -2.135835244231     0.441550132976     0.020805604667     1.007825032230
         H            1.197241755769    -0.853949867024     0.608607604667     1.007825032230
         H           -1.315080244231    -0.932462867024     0.775317604667     1.007825032230
         H           -1.307111244231    -0.764487867024    -0.989611395333     1.007825032230

  Basis Set: AUG-CC-PVTZ
    Blend: AUG-CC-PVTZ
  Basis Set: (AUG-CC-PVTZ AUX)
    Blend: AUG-CC-PVTZ-JKFIT
	 Reference Energy          =    -154.1259425764453113 [Eh]
	 Singles Energy            =      -0.0000000000000000 [Eh]
	 Same-Spin Energy          =      -0.1464611128584764 [Eh]
	 Opposite-Spin Energy      =      -0.5138155351969922 [Eh]
	 Correlation Energy        =      -0.6602766480554686 [Eh]
	 Total Energy              =    -154.7862192245007691 [Eh]

	 ================> DF-SCS-MP2 Energies <==================
	-----------------------------------------------------------
	 SCS Same-Spin Scale       =       0.3333333333333333 [-]
	 SCS Opposite-Spin Scale   =       1.2000000000000000 [-]
	 SCS Same-Spin Energy      =      -0.0488203709528255 [Eh]
	 SCS Opposite-Spin Energy  =      -0.6165786422363906 [Eh]
	 SCS Correlation Energy    =      -0.6653990131892160 [Eh]
	 SCS Total Energy          =    -154.7913415896345271 [Eh]
	-----------------------------------------------------------

  Dipole Moment: [D]
     X:    -1.2538      Y:     0.1007      Z:     1.0156     Total:     1.6167

*** Psi4 exiting successfully. Buy a developer a beer!
