                               Psi4 1.3.2 release

  ==> Input File <==

--------------------------------------------------------------------------
#psi4
#
memory 32 gb

molecule  {
0 1
  C        0.0909525     0.5842367     0.0056695
  C       -1.2103460    -0.2423030    -0.0217610
  O        1.2367980    -0.2609050    -0.1110110
  H        0.1267890     1.2787770    -0.7736430
  H        0.1272170     1.1296450     0.9866060
  H       -2.0849510     0.4119050     0.0472240
  H        1.2481260    -0.8835950     0.6350260
  H       -1.2641960    -0.9621080     0.8017360
  H       -1.2562270    -0.7941330    -0.9631930
units angstrom
no_reorient  #important for SAPT in psi4, default
symmetry c1  #important for SAPT in psi4, default
}

set PROPERTIES_ORIGIN ["COM"]
properties('MP2/aug-cc-pvtz', properties = ['dipole'])
--------------------------------------------------------------------------

    Molecular point group: c1
  Charge       = 0
  Multiplicity = 1
  Basis Set: AUG-CC-PVTZ
    Blend: AUG-CC-PVTZ
  Basis Set: (AUG-CC-PVTZ AUX)
    Blend: AUG-CC-PVTZ-JKFIT

    Orbital Energies [Eh]
    ---------------------

    Doubly Occupied:

       1A    -20.555451     2A    -11.275945     3A    -11.220224
       4A     -1.351867     5A     -1.007717     6A     -0.850672
       7A     -0.681166     8A     -0.626432     9A     -0.603045
      10A     -0.540280    11A     -0.529107    12A     -0.487752
      13A     -0.436731

  @DF-RHF Final Energy:  -154.14161847329515

   => Energetics <=

    Nuclear Repulsion Energy =             81.3846106177086028
    One-Electron Energy =                -370.7196780039206487
    Two-Electron Energy =                 135.1934489129168639
    Total Energy =                       -154.1416184732951535
  Basis Set: (AUG-CC-PVTZ AUX)
    Blend: AUG-CC-PVTZ-RI
    Molecular point group: c1

    Geometry (in Angstrom), charge = 0, multiplicity = 1:

       Center              X                  Y                   Z               Mass
    ------------   -----------------  -----------------  -----------------  -----------------
         C            0.020967683875     0.581805118449     0.032367198008    12.000000000000
         C           -1.280330816125    -0.244734581551     0.004936698008    12.000000000000
         O            1.166813183875    -0.263336581551    -0.084313301992    15.994914619570
         H            0.056804183875     1.276345418449    -0.746945301992     1.007825032230
         H            0.057232183875     1.127213418449     1.013303698008     1.007825032230
         H           -2.154935816125     0.409473418449     0.073921698008     1.007825032230
         H            1.178141183875    -0.886026581551     0.661723698008     1.007825032230
         H           -1.334180816125    -0.964539581551     0.828433698008     1.007825032230
         H           -1.326211816125    -0.796564581551    -0.936495301992     1.007825032230

  Basis Set: AUG-CC-PVTZ
    Blend: AUG-CC-PVTZ
  Basis Set: (AUG-CC-PVTZ AUX)
    Blend: AUG-CC-PVTZ-JKFIT
	 Reference Energy          =    -154.1416184732951535 [Eh]
	 Singles Energy            =      -0.0000000000000000 [Eh]
	 Same-Spin Energy          =      -0.1479696008023836 [Eh]
	 Opposite-Spin Energy      =      -0.5179309812862237 [Eh]
	 Correlation Energy        =      -0.6659005820886074 [Eh]
	 Total Energy              =    -154.8075190553837501 [Eh]

	 ================> DF-SCS-MP2 Energies <==================
	-----------------------------------------------------------
	 SCS Same-Spin Scale       =       0.3333333333333333 [-]
	 SCS Opposite-Spin Scale   =       1.2000000000000000 [-]
	 SCS Same-Spin Energy      =      -0.0493232002674612 [Eh]
	 SCS Opposite-Spin Energy  =      -0.6215171775434685 [Eh]
	 SCS Correlation Energy    =      -0.6708403778109296 [Eh]
	 SCS Total Energy          =    -154.8124588511060722 [Eh]
	-----------------------------------------------------------

  Dipole Moment: [D]
     X:    -1.2691      Y:    -0.0358      Z:     1.1369     Total:     1.7043

*** Psi4 exiting successfully. Buy a developer a beer!
