                               Psi4 1.3.2 release

  ==> Input File <==

--------------------------------------------------------------------------
#psi4
#
memory 32 gb

molecule  {
0 1
  C        0.1200508     0.6294031    -0.0783309
  C       -1.2103460    -0.2423030    -0.0217610
  O        1.2367980    -0.2609050    -0.1110110
  H        0.1267890     1.2787770    -0.7736430
  H        0.1272170     1.1296450     0.9866060
  H       -2.0849510     0.4119050     0.0472240
  H        1.2481260    -0.8835950     0.6350260
  H       -1.2641960    -0.9621080     0.8017360
  H       -1.2562270    -0.7941330    -0.9631930
units angstrom
no_reorient  #important for SAPT in psi4, default
symmetry c1  #important for SAPT in psi4, default
}

set PROPERTIES_ORIGIN ["COM"]
properties('MP2/aug-cc-pvtz', properties = ['dipole'])
--------------------------------------------------------------------------

    Molecular point group: c1
  Charge       = 0
  Multiplicity = 1
  Basis Set: AUG-CC-PVTZ
    Blend: AUG-CC-PVTZ
  Basis Set: (AUG-CC-PVTZ AUX)
    Blend: AUG-CC-PVTZ-JKFIT

    Orbital Energies [Eh]
    ---------------------

    Doubly Occupied:

       1A    -20.553689     2A    -11.278408     3A    -11.221993
       4A     -1.349462     5A     -1.001504     6A     -0.864122
       7A     -0.673181     8A     -0.646607     9A     -0.597227
      10A     -0.540835    11A     -0.532111    12A     -0.486120
      13A     -0.420088

  @DF-RHF Final Energy:  -154.11553787789452

   => Energetics <=

    Nuclear Repulsion Energy =             81.0487429599350975
    One-Electron Energy =                -369.9978682450025076
    Two-Electron Energy =                 134.8335874071728711
    Total Energy =                       -154.1155378778945249
  Basis Set: (AUG-CC-PVTZ AUX)
    Blend: AUG-CC-PVTZ-RI
    Molecular point group: c1

    Geometry (in Angstrom), charge = 0, multiplicity = 1:

       Center              X                  Y                   Z               Mass
    ------------   -----------------  -----------------  -----------------  -----------------
         C            0.042482025201     0.615199692911    -0.029739979290    12.000000000000
         C           -1.287914774799    -0.256506407089     0.026829920710    12.000000000000
         O            1.159229225201    -0.275108407089    -0.062420079290    15.994914619570
         H            0.049220225201     1.264573592911    -0.725052079290     1.007825032230
         H            0.049648225201     1.115441592911     1.035196920710     1.007825032230
         H           -2.162519774799     0.397701592911     0.095814920710     1.007825032230
         H            1.170557225201    -0.897798407089     0.683616920710     1.007825032230
         H           -1.341764774799    -0.976311407089     0.850326920710     1.007825032230
         H           -1.333795774799    -0.808336407089    -0.914602079290     1.007825032230

  Basis Set: AUG-CC-PVTZ
    Blend: AUG-CC-PVTZ
  Basis Set: (AUG-CC-PVTZ AUX)
    Blend: AUG-CC-PVTZ-JKFIT
	 Reference Energy          =    -154.1155378778945249 [Eh]
	 Singles Energy            =      -0.0000000000000000 [Eh]
	 Same-Spin Energy          =      -0.1478412294400865 [Eh]
	 Opposite-Spin Energy      =      -0.5183934651053127 [Eh]
	 Correlation Energy        =      -0.6662346945453992 [Eh]
	 Total Energy              =    -154.7817725724399338 [Eh]

	 ================> DF-SCS-MP2 Energies <==================
	-----------------------------------------------------------
	 SCS Same-Spin Scale       =       0.3333333333333333 [-]
	 SCS Opposite-Spin Scale   =       1.2000000000000000 [-]
	 SCS Same-Spin Energy      =      -0.0492804098133622 [Eh]
	 SCS Opposite-Spin Energy  =      -0.6220721581263752 [Eh]
	 SCS Correlation Energy    =      -0.6713525679397373 [Eh]
	 SCS Total Energy          =    -154.7868904458342740 [Eh]
	-----------------------------------------------------------

  Dipole Moment: [D]
     X:    -1.2154      Y:    -0.0171      Z:     1.0425     Total:     1.6014

*** Psi4 exiting successfully. Buy a developer a beer!
