                               Psi4 1.3.2 release

  ==> Input File <==

--------------------------------------------------------------------------
#psi4
#
memory 32 gb

molecule  {
0 1
  C        0.0784890     0.5600950     0.0474820
  C       -1.2103460    -0.2423030    -0.0217610
  O        1.2367980    -0.2609050    -0.1110110
  H        0.1267890     1.2787770    -0.7736430
  H        0.1272170     1.1296450     0.9866060
  H       -2.0849510     0.4119050     0.0472240
  H        1.2481260    -0.8835950     0.6350260
  H       -1.2641960    -0.9621080     0.8017360
  H       -1.2562270    -0.7941330    -0.9631930
units angstrom
no_reorient  #important for SAPT in psi4, default
symmetry c1  #important for SAPT in psi4, default
}

set PROPERTIES_ORIGIN ["COM"]
properties('MP2/aug-cc-pvtz', properties = ['dipole'])
--------------------------------------------------------------------------

    Molecular point group: c1
  Charge       = 0
  Multiplicity = 1
  Basis Set: AUG-CC-PVTZ
    Blend: AUG-CC-PVTZ
  Basis Set: (AUG-CC-PVTZ AUX)
    Blend: AUG-CC-PVTZ-JKFIT

    Orbital Energies [Eh]
    ---------------------

    Doubly Occupied:

       1A    -20.556945     2A    -11.275924     3A    -11.219828
       4A     -1.353599     5A     -1.011754     6A     -0.845827
       7A     -0.684926     8A     -0.621049     9A     -0.604676
      10A     -0.544826    11A     -0.525082    12A     -0.482618
      13A     -0.444249

  @DF-RHF Final Energy:  -154.14399435187363

   => Energetics <=

    Nuclear Repulsion Energy =             81.5497024625158815
    One-Electron Energy =                -371.0447885180779508
    Two-Electron Energy =                 135.3510917036884393
    Total Energy =                       -154.1439943518736300
  Basis Set: (AUG-CC-PVTZ AUX)
    Blend: AUG-CC-PVTZ-RI
    Molecular point group: c1

    Geometry (in Angstrom), charge = 0, multiplicity = 1:

       Center              X                  Y                   Z               Mass
    ------------   -----------------  -----------------  -----------------  -----------------
         C            0.011752575325     0.563955526754     0.063282007351    12.000000000000
         C           -1.277082424675    -0.238442473246    -0.005960992649    12.000000000000
         O            1.170061575325    -0.257044473246    -0.095210992649    15.994914619570
         H            0.060052575325     1.282637526754    -0.757842992649     1.007825032230
         H            0.060480575325     1.133505526754     1.002406007351     1.007825032230
         H           -2.151687424675     0.415765526754     0.063024007351     1.007825032230
         H            1.181389575325    -0.879734473246     0.650826007351     1.007825032230
         H           -1.330932424675    -0.958247473246     0.817536007351     1.007825032230
         H           -1.322963424675    -0.790272473246    -0.947392992649     1.007825032230

  Basis Set: AUG-CC-PVTZ
    Blend: AUG-CC-PVTZ
  Basis Set: (AUG-CC-PVTZ AUX)
    Blend: AUG-CC-PVTZ-JKFIT
	 Reference Energy          =    -154.1439943518736300 [Eh]
	 Singles Energy            =      -0.0000000000000000 [Eh]
	 Same-Spin Energy          =      -0.1481911282745524 [Eh]
	 Opposite-Spin Energy      =      -0.5181922785746750 [Eh]
	 Correlation Energy        =      -0.6663834068492274 [Eh]
	 Total Energy              =    -154.8103777587228649 [Eh]

	 ================> DF-SCS-MP2 Energies <==================
	-----------------------------------------------------------
	 SCS Same-Spin Scale       =       0.3333333333333333 [-]
	 SCS Opposite-Spin Scale   =       1.2000000000000000 [-]
	 SCS Same-Spin Energy      =      -0.0493970427581841 [Eh]
	 SCS Opposite-Spin Energy  =      -0.6218307342896100 [Eh]
	 SCS Correlation Energy    =      -0.6712277770477941 [Eh]
	 SCS Total Energy          =    -154.8152221289214197 [Eh]
	-----------------------------------------------------------

  Dipole Moment: [D]
     X:    -1.2884      Y:    -0.0634      Z:     1.1863     Total:     1.7525

*** Psi4 exiting successfully. Buy a developer a beer!
