                               Psi4 1.3.2 release

  ==> Input File <==

--------------------------------------------------------------------------
#psi4
#
memory 32 gb

molecule  {
0 1
  C        0.0784890     0.5600950     0.0474820
  C       -1.2103460    -0.2423030    -0.0217610
  O        1.2300623    -0.2739232    -0.0908413
  H        0.1267890     1.2787770    -0.7736430
  H        0.1272170     1.1296450     0.9866060
  H       -2.0849510     0.4119050     0.0472240
  H        1.2481260    -0.8835950     0.6350260
  H       -1.2641960    -0.9621080     0.8017360
  H       -1.2562270    -0.7941330    -0.9631930
units angstrom
no_reorient  #important for SAPT in psi4, default
symmetry c1  #important for SAPT in psi4, default
}

set PROPERTIES_ORIGIN ["COM"]
properties('MP2/aug-cc-pvtz', properties = ['dipole'])
--------------------------------------------------------------------------

    Molecular point group: c1
  Charge       = 0
  Multiplicity = 1
  Basis Set: AUG-CC-PVTZ
    Blend: AUG-CC-PVTZ
  Basis Set: (AUG-CC-PVTZ AUX)
    Blend: AUG-CC-PVTZ-JKFIT

    Orbital Energies [Eh]
    ---------------------

    Doubly Occupied:

       1A    -20.553730     2A    -11.276426     3A    -11.219562
       4A     -1.357881     5A     -1.012700     6A     -0.848077
       7A     -0.687661     8A     -0.622932     9A     -0.605971
      10A     -0.544570    11A     -0.525307    12A     -0.482579
      13A     -0.444166

  @DF-RHF Final Energy:  -154.14509963271561

   => Energetics <=

    Nuclear Repulsion Energy =             81.6933137665444207
    One-Electron Energy =                -371.3137020783627236
    Two-Electron Energy =                 135.4752886791027038
    Total Energy =                       -154.1450996327156133
  Basis Set: (AUG-CC-PVTZ AUX)
    Blend: AUG-CC-PVTZ-RI
    Molecular point group: c1

    Geometry (in Angstrom), charge = 0, multiplicity = 1:

       Center              X                  Y                   Z               Mass
    ------------   -----------------  -----------------  -----------------  -----------------
         C            0.014092553231     0.568478041173     0.056275066370    12.000000000000
         C           -1.274742446769    -0.233919958827    -0.012967933630    12.000000000000
         O            1.165665853231    -0.265540158827    -0.082048233630    15.994914619570
         H            0.062392553231     1.287160041173    -0.764849933630     1.007825032230
         H            0.062820553231     1.138028041173     0.995399066370     1.007825032230
         H           -2.149347446769     0.420288041173     0.056017066370     1.007825032230
         H            1.183729553231    -0.875211958827     0.643819066370     1.007825032230
         H           -1.328592446769    -0.953724958827     0.810529066370     1.007825032230
         H           -1.320623446769    -0.785749958827    -0.954399933630     1.007825032230

  Basis Set: AUG-CC-PVTZ
    Blend: AUG-CC-PVTZ
  Basis Set: (AUG-CC-PVTZ AUX)
    Blend: AUG-CC-PVTZ-JKFIT
	 Reference Energy          =    -154.1450996327156133 [Eh]
	 Singles Energy            =      -0.0000000000000000 [Eh]
	 Same-Spin Energy          =      -0.1478684504303095 [Eh]
	 Opposite-Spin Energy      =      -0.5173458614685258 [Eh]
	 Correlation Energy        =      -0.6652143118988353 [Eh]
	 Total Energy              =    -154.8103139446144496 [Eh]

	 ================> DF-SCS-MP2 Energies <==================
	-----------------------------------------------------------
	 SCS Same-Spin Scale       =       0.3333333333333333 [-]
	 SCS Opposite-Spin Scale   =       1.2000000000000000 [-]
	 SCS Same-Spin Energy      =      -0.0492894834767698 [Eh]
	 SCS Opposite-Spin Energy  =      -0.6208150337622309 [Eh]
	 SCS Correlation Energy    =      -0.6701045172390008 [Eh]
	 SCS Total Energy          =    -154.8152041499546101 [Eh]
	-----------------------------------------------------------

  Dipole Moment: [D]
     X:    -1.2827      Y:    -0.0388      Z:     1.1607     Total:     1.7303

*** Psi4 exiting successfully. Buy a developer a beer!
