                               Psi4 1.3.2 release

  ==> Input File <==

--------------------------------------------------------------------------
#psi4
#
memory 32 gb

molecule  {
0 1
  C        0.0727856     0.5476471     0.0683190
  C       -1.2103460    -0.2423030    -0.0217610
  O        1.2367980    -0.2609050    -0.1110110
  H        0.1267890     1.2787770    -0.7736430
  H        0.1272170     1.1296450     0.9866060
  H       -2.0849510     0.4119050     0.0472240
  H        1.2481260    -0.8835950     0.6350260
  H       -1.2641960    -0.9621080     0.8017360
  H       -1.2562270    -0.7941330    -0.9631930
units angstrom
no_reorient  #important for SAPT in psi4, default
symmetry c1  #important for SAPT in psi4, default
}

set PROPERTIES_ORIGIN ["COM"]
properties('MP2/aug-cc-pvtz', properties = ['dipole'])
--------------------------------------------------------------------------

    Molecular point group: c1
  Charge       = 0
  Multiplicity = 1
  Basis Set: AUG-CC-PVTZ
    Blend: AUG-CC-PVTZ
  Basis Set: (AUG-CC-PVTZ AUX)
    Blend: AUG-CC-PVTZ-JKFIT

    Orbital Energies [Eh]
    ---------------------

    Doubly Occupied:

       1A    -20.557846     2A    -11.276227     3A    -11.219766
       4A     -1.354607     5A     -1.013917     6A     -0.843891
       7A     -0.686624     8A     -0.620360     9A     -0.604448
      10A     -0.547317    11A     -0.524098    12A     -0.478001
      13A     -0.447782

  @DF-RHF Final Energy:  -154.14290264481767

   => Energetics <=

    Nuclear Repulsion Energy =             81.6298718204897256
    One-Electron Energy =                -371.1957811340112130
    Two-Electron Energy =                 135.4230066687038345
    Total Energy =                       -154.1429026448176671
  Basis Set: (AUG-CC-PVTZ AUX)
    Blend: AUG-CC-PVTZ-RI
    Molecular point group: c1

    Geometry (in Angstrom), charge = 0, multiplicity = 1:

       Center              X                  Y                   Z               Mass
    ------------   -----------------  -----------------  -----------------  -----------------
         C            0.007535665941     0.554751952339     0.078688210813    12.000000000000
         C           -1.275595934059    -0.235198147661    -0.011391789187    12.000000000000
         O            1.171548065941    -0.253800147661    -0.100641789187    15.994914619570
         H            0.061539065941     1.285881852339    -0.763273789187     1.007825032230
         H            0.061967065941     1.136749852339     0.996975210813     1.007825032230
         H           -2.150200934059     0.419009852339     0.057593210813     1.007825032230
         H            1.182876065941    -0.876490147661     0.645395210813     1.007825032230
         H           -1.329445934059    -0.955003147661     0.812105210813     1.007825032230
         H           -1.321476934059    -0.787028147661    -0.952823789187     1.007825032230

  Basis Set: AUG-CC-PVTZ
    Blend: AUG-CC-PVTZ
  Basis Set: (AUG-CC-PVTZ AUX)
    Blend: AUG-CC-PVTZ-JKFIT
	 Reference Energy          =    -154.1429026448176671 [Eh]
	 Singles Energy            =      -0.0000000000000000 [Eh]
	 Same-Spin Energy          =      -0.1483383571021867 [Eh]
	 Opposite-Spin Energy      =      -0.5184352766499376 [Eh]
	 Correlation Energy        =      -0.6667736337521244 [Eh]
	 Total Energy              =    -154.8096762785697820 [Eh]

	 ================> DF-SCS-MP2 Energies <==================
	-----------------------------------------------------------
	 SCS Same-Spin Scale       =       0.3333333333333333 [-]
	 SCS Opposite-Spin Scale   =       1.2000000000000000 [-]
	 SCS Same-Spin Energy      =      -0.0494461190340622 [Eh]
	 SCS Opposite-Spin Energy  =      -0.6221223319799251 [Eh]
	 SCS Correlation Energy    =      -0.6715684510139873 [Eh]
	 SCS Total Energy          =    -154.8144710958316637 [Eh]
	-----------------------------------------------------------

  Dipole Moment: [D]
     X:    -1.2961      Y:    -0.0816      Z:     1.2114     Total:     1.7760

*** Psi4 exiting successfully. Buy a developer a beer!
