                               Psi4 1.4a3.dev225

  ==> Input File <==

--------------------------------------------------------------------------
#psi4
#
memory 32 gb

molecule  {
0 1
  C        0.0785380     0.5601430     0.0474840
  C       -1.2103730    -0.2423090    -0.0217710
  O        1.2367720    -0.2609280    -0.1110040
  H        0.1268240     1.2788600    -0.7736210
  H        0.1272230     1.1296140     0.9866460
  H       -2.0849970     0.4119200     0.0466030
  H        1.2483005    -0.8965126     0.6503119
  H       -1.2644420    -0.9616760     0.8021020
  H       -1.2558420    -0.7945950    -0.9629440
units angstrom
no_reorient  #important for SAPT in psi4, default
symmetry c1  #important for SAPT in psi4, default
}

set PROPERTIES_ORIGIN ["COM"]
properties('MP2/aug-cc-pvtz', properties = ['dipole'])
--------------------------------------------------------------------------

    Molecular point group: c1
  Charge       = 0
  Multiplicity = 1
  Basis Set: AUG-CC-PVTZ
    Blend: AUG-CC-PVTZ
  Basis Set: (AUG-CC-PVTZ AUX)
    Blend: AUG-CC-PVTZ-JKFIT

    Orbital Energies [Eh]
    ---------------------

    Doubly Occupied:

       1A    -20.558802     2A    -11.275763     3A    -11.219700
       4A     -1.349359     5A     -1.010907     6A     -0.844334
       7A     -0.682028     8A     -0.620513     9A     -0.603472
      10A     -0.544257    11A     -0.524825    12A     -0.481830
      13A     -0.443778

  @DF-RHF Final Energy:  -154.14242844403867

   => Energetics <=

    Nuclear Repulsion Energy =             81.4432847670856859
    One-Electron Energy =                -370.8522896057621665
    Two-Electron Energy =                 135.2665763946378092
    Total Energy =                       -154.1424284440386714
  Basis Set: (AUG-CC-PVTZ AUX)
    Blend: AUG-CC-PVTZ-RI
    Molecular point group: c1

    Geometry (in Angstrom), charge = 0, multiplicity = 1:

       Center              X                  Y                   Z               Mass
    ------------   -----------------  -----------------  -----------------  -----------------
         C            0.011798120942     0.564282517933     0.062947836882    12.000000000000
         C           -1.277112879058    -0.238169482067    -0.006307163118    12.000000000000
         O            1.170032120942    -0.256788482067    -0.095540163118    15.994914619570
         H            0.060084120942     1.282999517933    -0.758157163118     1.007825032230
         H            0.060483120942     1.133753517933     1.002109836882     1.007825032230
         H           -2.151736879058     0.416059517933     0.062066836882     1.007825032230
         H            1.181560620942    -0.892373082067     0.665775736882     1.007825032230
         H           -1.331181879058    -0.957536482067     0.817565836882     1.007825032230
         H           -1.322581879058    -0.790455482067    -0.947480163118     1.007825032230

  Basis Set: AUG-CC-PVTZ
    Blend: AUG-CC-PVTZ
  Basis Set: (AUG-CC-PVTZ AUX)
    Blend: AUG-CC-PVTZ-JKFIT
	 Reference Energy          =    -154.1424284440386714 [Eh]
	 Singles Energy            =      -0.0000000000000000 [Eh]
	 Same-Spin Energy          =      -0.1484071307251347 [Eh]
	 Opposite-Spin Energy      =      -0.5187961070305775 [Eh]
	 Correlation Energy        =      -0.6672032377557122 [Eh]
	 Total Energy              =    -154.8096316817943716 [Eh]

	 ================> DF-SCS-MP2 Energies <==================
	-----------------------------------------------------------
	 SCS Same-Spin Scale       =       0.3333333333333333 [-]
	 SCS Opposite-Spin Scale   =       1.2000000000000000 [-]
	 SCS Same-Spin Energy      =      -0.0494690435750449 [Eh]
	 SCS Opposite-Spin Energy  =      -0.6225553284366930 [Eh]
	 SCS Correlation Energy    =      -0.6720243720117379 [Eh]
	 SCS Total Energy          =    -154.8144528160504194 [Eh]
	-----------------------------------------------------------

  Dipole Moment: [D]
     X:    -1.2834      Y:    -0.0731      Z:     1.1953     Total:     1.7554

*** Psi4 exiting successfully. Buy a developer a beer!
