                               Psi4 1.3.2 release

  ==> Input File <==

--------------------------------------------------------------------------
#psi4
#
memory 32 gb

molecule  {
0 1
  C        0.0784890     0.5600950     0.0474820
  C       -1.1511487    -0.3291224    -0.0362819
  O        1.2367980    -0.2609050    -0.1110110
  H        0.1267890     1.2787770    -0.7736430
  H        0.1272170     1.1296450     0.9866060
  H       -2.0849510     0.4119050     0.0472240
  H        1.2481260    -0.8835950     0.6350260
  H       -1.2641960    -0.9621080     0.8017360
  H       -1.2562270    -0.7941330    -0.9631930
units angstrom
no_reorient  #important for SAPT in psi4, default
symmetry c1  #important for SAPT in psi4, default
}

set PROPERTIES_ORIGIN ["COM"]
properties('MP2/aug-cc-pvtz', properties = ['dipole'])
--------------------------------------------------------------------------

    Molecular point group: c1
  Charge       = 0
  Multiplicity = 1
  Basis Set: AUG-CC-PVTZ
    Blend: AUG-CC-PVTZ
  Basis Set: (AUG-CC-PVTZ AUX)
    Blend: AUG-CC-PVTZ-JKFIT

    Orbital Energies [Eh]
    ---------------------

    Doubly Occupied:

       1A    -20.553600     2A    -11.276959     3A    -11.221385
       4A     -1.353033     5A     -1.010688     6A     -0.848766
       7A     -0.687226     8A     -0.619239     9A     -0.605829
      10A     -0.559783    11A     -0.509288    12A     -0.482346
      13A     -0.440784

  @DF-RHF Final Energy:  -154.13318331684874

   => Energetics <=

    Nuclear Repulsion Energy =             81.8067651066382098
    One-Electron Energy =                -371.5420445876362692
    Two-Electron Energy =                 135.6020961641493443
    Total Energy =                       -154.1331833168487435
  Basis Set: (AUG-CC-PVTZ AUX)
    Blend: AUG-CC-PVTZ-RI
    Molecular point group: c1

    Geometry (in Angstrom), charge = 0, multiplicity = 1:

       Center              X                  Y                   Z               Mass
    ------------   -----------------  -----------------  -----------------  -----------------
         C           -0.003676156828     0.586583472087     0.067066623823    12.000000000000
         C           -1.233313856828    -0.302633927913    -0.016697276177    12.000000000000
         O            1.154632843172    -0.234416527913    -0.091426376177    15.994914619570
         H            0.044623843172     1.305265472087    -0.754058376177     1.007825032230
         H            0.045051843172     1.156133472087     1.006190623823     1.007825032230
         H           -2.167116156828     0.438393472087     0.066808623823     1.007825032230
         H            1.165960843172    -0.857106527913     0.654610623823     1.007825032230
         H           -1.346361156828    -0.935619527913     0.821320623823     1.007825032230
         H           -1.338392156828    -0.767644527913    -0.943608376177     1.007825032230

  Basis Set: AUG-CC-PVTZ
    Blend: AUG-CC-PVTZ
  Basis Set: (AUG-CC-PVTZ AUX)
    Blend: AUG-CC-PVTZ-JKFIT
	 Reference Energy          =    -154.1331833168487435 [Eh]
	 Singles Energy            =      -0.0000000000000000 [Eh]
	 Same-Spin Energy          =      -0.1483183608706319 [Eh]
	 Opposite-Spin Energy      =      -0.5186239034317501 [Eh]
	 Correlation Energy        =      -0.6669422643023820 [Eh]
	 Total Energy              =    -154.8001255811511214 [Eh]

	 ================> DF-SCS-MP2 Energies <==================
	-----------------------------------------------------------
	 SCS Same-Spin Scale       =       0.3333333333333333 [-]
	 SCS Opposite-Spin Scale   =       1.2000000000000000 [-]
	 SCS Same-Spin Energy      =      -0.0494394536235440 [Eh]
	 SCS Opposite-Spin Energy  =      -0.6223486841181002 [Eh]
	 SCS Correlation Energy    =      -0.6717881377416441 [Eh]
	 SCS Total Energy          =    -154.8049714545904010 [Eh]
	-----------------------------------------------------------

  Dipole Moment: [D]
     X:    -1.2564      Y:    -0.0860      Z:     1.1820     Total:     1.7272

*** Psi4 exiting successfully. Buy a developer a beer!
