                               Psi4 1.3.2 release

  ==> Input File <==

--------------------------------------------------------------------------
#psi4
#
memory 32 gb

molecule  {
0 1
  C        0.0784890     0.5600950     0.0474820
  C       -1.2103460    -0.2423030    -0.0217610
  O        1.2492089    -0.2341224    -0.1511995
  H        0.1267890     1.2787770    -0.7736430
  H        0.1272170     1.1296450     0.9866060
  H       -2.0849510     0.4119050     0.0472240
  H        1.2481260    -0.8835950     0.6350260
  H       -1.2641960    -0.9621080     0.8017360
  H       -1.2562270    -0.7941330    -0.9631930
units angstrom
no_reorient  #important for SAPT in psi4, default
symmetry c1  #important for SAPT in psi4, default
}

set PROPERTIES_ORIGIN ["COM"]
properties('MP2/aug-cc-pvtz', properties = ['dipole'])
--------------------------------------------------------------------------

    Molecular point group: c1
  Charge       = 0
  Multiplicity = 1
  Basis Set: AUG-CC-PVTZ
    Blend: AUG-CC-PVTZ
  Basis Set: (AUG-CC-PVTZ AUX)
    Blend: AUG-CC-PVTZ-JKFIT

    Orbital Energies [Eh]
    ---------------------

    Doubly Occupied:

       1A    -20.563084     2A    -11.275156     3A    -11.220399
       4A     -1.346004     5A     -1.010241     6A     -0.841832
       7A     -0.679968     8A     -0.618566     9A     -0.600748
      10A     -0.545262    11A     -0.524733    12A     -0.481850
      13A     -0.444537

  @DF-RHF Final Energy:  -154.13823420522712

   => Energetics <=

    Nuclear Repulsion Energy =             81.2798520599414616
    One-Electron Energy =                -370.5314101132372002
    Two-Electron Energy =                 135.1133238480686316
    Total Energy =                       -154.1382342052271213
  Basis Set: (AUG-CC-PVTZ AUX)
    Blend: AUG-CC-PVTZ-RI
    Molecular point group: c1

    Geometry (in Angstrom), charge = 0, multiplicity = 1:

       Center              X                  Y                   Z               Mass
    ------------   -----------------  -----------------  -----------------  -----------------
         C            0.007441036540     0.554651268510     0.077243466749    12.000000000000
         C           -1.281393963460    -0.247746731490     0.008000466749    12.000000000000
         O            1.178160936540    -0.239566131490    -0.121438033251    15.994914619570
         H            0.055741036540     1.273333268510    -0.743881533251     1.007825032230
         H            0.056169036540     1.124201268510     1.016367466749     1.007825032230
         H           -2.155998963460     0.406461268510     0.076985466749     1.007825032230
         H            1.177078036540    -0.889038731490     0.664787466749     1.007825032230
         H           -1.335243963460    -0.967551731490     0.831497466749     1.007825032230
         H           -1.327274963460    -0.799576731490    -0.933431533251     1.007825032230

  Basis Set: AUG-CC-PVTZ
    Blend: AUG-CC-PVTZ
  Basis Set: (AUG-CC-PVTZ AUX)
    Blend: AUG-CC-PVTZ-JKFIT
	 Reference Energy          =    -154.1382342052271213 [Eh]
	 Singles Energy            =      -0.0000000000000000 [Eh]
	 Same-Spin Energy          =      -0.1488630318009156 [Eh]
	 Opposite-Spin Energy      =      -0.5200126057241699 [Eh]
	 Correlation Energy        =      -0.6688756375250855 [Eh]
	 Total Energy              =    -154.8071098427521974 [Eh]

	 ================> DF-SCS-MP2 Energies <==================
	-----------------------------------------------------------
	 SCS Same-Spin Scale       =       0.3333333333333333 [-]
	 SCS Opposite-Spin Scale   =       1.2000000000000000 [-]
	 SCS Same-Spin Energy      =      -0.0496210106003052 [Eh]
	 SCS Opposite-Spin Energy  =      -0.6240151268690038 [Eh]
	 SCS Correlation Energy    =      -0.6736361374693091 [Eh]
	 SCS Total Energy          =    -154.8118703426964373 [Eh]
	-----------------------------------------------------------

  Dipole Moment: [D]
     X:    -1.3002      Y:    -0.1090      Z:     1.2340     Total:     1.7959

*** Psi4 exiting successfully. Buy a developer a beer!
