                               Psi4 1.3.2 release

  ==> Input File <==

--------------------------------------------------------------------------
#psi4
#
memory 32 gb

molecule  {
0 1
  C        0.0784890     0.5600950     0.0474820
  C       -1.2103460    -0.2423030    -0.0217610
  O        1.3178791    -0.3183747    -0.1221054
  H        0.1267890     1.2787770    -0.7736430
  H        0.1272170     1.1296450     0.9866060
  H       -2.0849510     0.4119050     0.0472240
  H        1.2481260    -0.8835950     0.6350260
  H       -1.2641960    -0.9621080     0.8017360
  H       -1.2562270    -0.7941330    -0.9631930
units angstrom
no_reorient  #important for SAPT in psi4, default
symmetry c1  #important for SAPT in psi4, default
}

set PROPERTIES_ORIGIN ["COM"]
properties('MP2/aug-cc-pvtz', properties = ['dipole'])
--------------------------------------------------------------------------

    Molecular point group: c1
  Charge       = 0
  Multiplicity = 1
  Basis Set: AUG-CC-PVTZ
    Blend: AUG-CC-PVTZ
  Basis Set: (AUG-CC-PVTZ AUX)
    Blend: AUG-CC-PVTZ-JKFIT

    Orbital Energies [Eh]
    ---------------------

    Doubly Occupied:

       1A    -20.555590     2A    -11.286279     3A    -11.226018
       4A     -1.330937     5A     -1.019371     6A     -0.843805
       7A     -0.674243     8A     -0.609417     9A     -0.600330
      10A     -0.544628    11A     -0.517139    12A     -0.493697
      13A     -0.453571

  @DF-RHF Final Energy:  -154.13561858715224

   => Energetics <=

    Nuclear Repulsion Energy =             79.8901939668863861
    One-Electron Energy =                -367.7415786778327629
    Two-Electron Energy =                 133.7157661237941397
    Total Energy =                       -154.1356185871522371
  Basis Set: (AUG-CC-PVTZ AUX)
    Blend: AUG-CC-PVTZ-RI
    Molecular point group: c1

    Geometry (in Angstrom), charge = 0, multiplicity = 1:

       Center              X                  Y                   Z               Mass
    ------------   -----------------  -----------------  -----------------  -----------------
         C           -0.016414947364     0.583920464066     0.067136194871    12.000000000000
         C           -1.305249947364    -0.218477535934    -0.002106805129    12.000000000000
         O            1.222975152636    -0.294549235934    -0.102451205129    15.994914619570
         H            0.031885052636     1.302602464066    -0.753988805129     1.007825032230
         H            0.032313052636     1.153470464066     1.006260194871     1.007825032230
         H           -2.179854947364     0.435730464066     0.066878194871     1.007825032230
         H            1.153222052636    -0.859769535934     0.654680194871     1.007825032230
         H           -1.359099947364    -0.938282535934     0.821390194871     1.007825032230
         H           -1.351130947364    -0.770307535934    -0.943538805129     1.007825032230

  Basis Set: AUG-CC-PVTZ
    Blend: AUG-CC-PVTZ
  Basis Set: (AUG-CC-PVTZ AUX)
    Blend: AUG-CC-PVTZ-JKFIT
	 Reference Energy          =    -154.1356185871522371 [Eh]
	 Singles Energy            =      -0.0000000000000000 [Eh]
	 Same-Spin Energy          =      -0.1483693986824928 [Eh]
	 Opposite-Spin Energy      =      -0.5202391198729585 [Eh]
	 Correlation Energy        =      -0.6686085185554513 [Eh]
	 Total Energy              =    -154.8042271057076960 [Eh]

	 ================> DF-SCS-MP2 Energies <==================
	-----------------------------------------------------------
	 SCS Same-Spin Scale       =       0.3333333333333333 [-]
	 SCS Opposite-Spin Scale   =       1.2000000000000000 [-]
	 SCS Same-Spin Energy      =      -0.0494564662274976 [Eh]
	 SCS Opposite-Spin Energy  =      -0.6242869438475501 [Eh]
	 SCS Correlation Energy    =      -0.6737434100750477 [Eh]
	 SCS Total Energy          =    -154.8093619972272847 [Eh]
	-----------------------------------------------------------

  Dipole Moment: [D]
     X:    -1.6778      Y:     0.1614      Z:     1.2059     Total:     2.0725

*** Psi4 exiting successfully. Buy a developer a beer!
