                               Psi4 1.3.2 release

  ==> Input File <==

--------------------------------------------------------------------------
#psi4
#
memory 32 gb

molecule  {
0 1
  C        0.0784890     0.5600950     0.0474820
  C       -1.2103460    -0.2423030    -0.0217610
  O        1.2367980    -0.2609050    -0.1110110
  H        0.1267890     1.2787770    -0.7736430
  H        0.1272170     1.1296450     0.9866060
  H       -2.0849510     0.4119050     0.0472240
  H        1.2457947    -0.7554463     0.4814927
  H       -1.2641960    -0.9621080     0.8017360
  H       -1.2562270    -0.7941330    -0.9631930
units angstrom
no_reorient  #important for SAPT in psi4, default
symmetry c1  #important for SAPT in psi4, default
}

set PROPERTIES_ORIGIN ["COM"]
properties('MP2/aug-cc-pvtz', properties = ['dipole'])
--------------------------------------------------------------------------

    Molecular point group: c1
  Charge       = 0
  Multiplicity = 1
  Basis Set: AUG-CC-PVTZ
    Blend: AUG-CC-PVTZ
  Basis Set: (AUG-CC-PVTZ AUX)
    Blend: AUG-CC-PVTZ-JKFIT

    Orbital Energies [Eh]
    ---------------------

    Doubly Occupied:

       1A    -20.534547     2A    -11.278148     3A    -11.221301
       4A     -1.415437     5A     -1.022807     6A     -0.865164
       7A     -0.714704     8A     -0.627190     9A     -0.613978
      10A     -0.550446    11A     -0.528257    12A     -0.489409
      13A     -0.450348

  @DF-RHF Final Energy:  -154.09708434857350

   => Energetics <=

    Nuclear Repulsion Energy =             82.8596031906074302
    One-Electron Energy =                -373.2899024292447621
    Two-Electron Energy =                 136.3332148900638003
    Total Energy =                       -154.0970843485735031
  Basis Set: (AUG-CC-PVTZ AUX)
    Blend: AUG-CC-PVTZ-RI
    Molecular point group: c1

    Geometry (in Angstrom), charge = 0, multiplicity = 1:

       Center              X                  Y                   Z               Mass
    ------------   -----------------  -----------------  -----------------  -----------------
         C            0.011803605893     0.561150439075     0.066642746618    12.000000000000
         C           -1.277031394107    -0.241247560925    -0.002600253382    12.000000000000
         O            1.170112605893    -0.259849560925    -0.091850253382    15.994914619570
         H            0.060103605893     1.279832439075    -0.754482253382     1.007825032230
         H            0.060531605893     1.130700439075     1.005766746618     1.007825032230
         H           -2.151636394107     0.412960439075     0.066384746618     1.007825032230
         H            1.179109305893    -0.754390860925     0.500653446618     1.007825032230
         H           -1.330881394107    -0.961052560925     0.820896746618     1.007825032230
         H           -1.322912394107    -0.793077560925    -0.944032253382     1.007825032230

  Basis Set: AUG-CC-PVTZ
    Blend: AUG-CC-PVTZ
  Basis Set: (AUG-CC-PVTZ AUX)
    Blend: AUG-CC-PVTZ-JKFIT
	 Reference Energy          =    -154.0970843485735031 [Eh]
	 Singles Energy            =      -0.0000000000000000 [Eh]
	 Same-Spin Energy          =      -0.1460189674103506 [Eh]
	 Opposite-Spin Energy      =      -0.5128472641141349 [Eh]
	 Correlation Energy        =      -0.6588662315244855 [Eh]
	 Total Energy              =    -154.7559505800979878 [Eh]

	 ================> DF-SCS-MP2 Energies <==================
	-----------------------------------------------------------
	 SCS Same-Spin Scale       =       0.3333333333333333 [-]
	 SCS Opposite-Spin Scale   =       1.2000000000000000 [-]
	 SCS Same-Spin Energy      =      -0.0486729891367835 [Eh]
	 SCS Opposite-Spin Energy  =      -0.6154167169369619 [Eh]
	 SCS Correlation Energy    =      -0.6640897060737454 [Eh]
	 SCS Total Energy          =    -154.7611740546472561 [Eh]
	-----------------------------------------------------------

  Dipole Moment: [D]
     X:    -1.3542      Y:     0.0532      Z:     1.0860     Total:     1.7367

*** Psi4 exiting successfully. Buy a developer a beer!
