                               Psi4 1.3.2 release

  ==> Input File <==

--------------------------------------------------------------------------
#psi4
#
memory 32 gb

molecule  {
0 1
  C        0.0784890     0.5600950     0.0474820
  C       -1.2103460    -0.2423030    -0.0217610
  O        1.2601935    -0.2063722    -0.1911459
  H        0.1267890     1.2787770    -0.7736430
  H        0.1272170     1.1296450     0.9866060
  H       -2.0849510     0.4119050     0.0472240
  H        1.2481260    -0.8835950     0.6350260
  H       -1.2641960    -0.9621080     0.8017360
  H       -1.2562270    -0.7941330    -0.9631930
units angstrom
no_reorient  #important for SAPT in psi4, default
symmetry c1  #important for SAPT in psi4, default
}

set PROPERTIES_ORIGIN ["COM"]
properties('MP2/aug-cc-pvtz', properties = ['dipole'])
--------------------------------------------------------------------------

    Molecular point group: c1
  Charge       = 0
  Multiplicity = 1
  Basis Set: AUG-CC-PVTZ
    Blend: AUG-CC-PVTZ
  Basis Set: (AUG-CC-PVTZ AUX)
    Blend: AUG-CC-PVTZ-JKFIT

    Orbital Energies [Eh]
    ---------------------

    Doubly Occupied:

       1A    -20.568853     2A    -11.274681     3A    -11.221019
       4A     -1.339649     5A     -1.009170     6A     -0.838501
       7A     -0.675703     8A     -0.617543     9A     -0.595672
      10A     -0.545546    11A     -0.524578    12A     -0.479792
      13A     -0.445006

  @DF-RHF Final Energy:  -154.12865631336038

   => Energetics <=

    Nuclear Repulsion Energy =             81.0319991964316273
    One-Electron Energy =                -370.0498856558657508
    Two-Electron Energy =                 134.8892301460737428
    Total Energy =                       -154.1286563133603806
  Basis Set: (AUG-CC-PVTZ AUX)
    Blend: AUG-CC-PVTZ-RI
    Molecular point group: c1

    Geometry (in Angstrom), charge = 0, multiplicity = 1:

       Center              X                  Y                   Z               Mass
    ------------   -----------------  -----------------  -----------------  -----------------
         C            0.003624993471     0.545010866639     0.091120820760    12.000000000000
         C           -1.285210006529    -0.257387133361     0.021877820760    12.000000000000
         O            1.185329493471    -0.221456333361    -0.147507079240    15.994914619570
         H            0.051924993471     1.263692866639    -0.730004179240     1.007825032230
         H            0.052352993471     1.114560866639     1.030244820760     1.007825032230
         H           -2.159815006529     0.396820866639     0.090862820760     1.007825032230
         H            1.173261993471    -0.898679133361     0.678664820760     1.007825032230
         H           -1.339060006529    -0.977192133361     0.845374820760     1.007825032230
         H           -1.331091006529    -0.809217133361    -0.919554179240     1.007825032230

  Basis Set: AUG-CC-PVTZ
    Blend: AUG-CC-PVTZ
  Basis Set: (AUG-CC-PVTZ AUX)
    Blend: AUG-CC-PVTZ-JKFIT
	 Reference Energy          =    -154.1286563133603806 [Eh]
	 Singles Energy            =      -0.0000000000000000 [Eh]
	 Same-Spin Energy          =      -0.1495611307267934 [Eh]
	 Opposite-Spin Energy      =      -0.5219941805150252 [Eh]
	 Correlation Energy        =      -0.6715553112418187 [Eh]
	 Total Energy              =    -154.8002116246022126 [Eh]

	 ================> DF-SCS-MP2 Energies <==================
	-----------------------------------------------------------
	 SCS Same-Spin Scale       =       0.3333333333333333 [-]
	 SCS Opposite-Spin Scale   =       1.2000000000000000 [-]
	 SCS Same-Spin Energy      =      -0.0498537102422645 [Eh]
	 SCS Opposite-Spin Energy  =      -0.6263930166180303 [Eh]
	 SCS Correlation Energy    =      -0.6762467268602947 [Eh]
	 SCS Total Energy          =    -154.8049030402206654 [Eh]
	-----------------------------------------------------------

  Dipole Moment: [D]
     X:    -1.3126      Y:    -0.1503      Z:     1.2775     Total:     1.8378

*** Psi4 exiting successfully. Buy a developer a beer!
