                               Psi4 1.3.2 release

  ==> Input File <==

--------------------------------------------------------------------------
#psi4
#
memory 32 gb

molecule  {
0 1
  C        0.0784890     0.5600950     0.0474820
  C       -1.1815149    -0.2862283    -0.0290681
  O        1.2367980    -0.2609050    -0.1110110
  H        0.1267890     1.2787770    -0.7736430
  H        0.1272170     1.1296450     0.9866060
  H       -2.0849510     0.4119050     0.0472240
  H        1.2481260    -0.8835950     0.6350260
  H       -1.2641960    -0.9621080     0.8017360
  H       -1.2562270    -0.7941330    -0.9631930
units angstrom
no_reorient  #important for SAPT in psi4, default
symmetry c1  #important for SAPT in psi4, default
}

set PROPERTIES_ORIGIN ["COM"]
properties('MP2/aug-cc-pvtz', properties = ['dipole'])
--------------------------------------------------------------------------

    Molecular point group: c1
  Charge       = 0
  Multiplicity = 1
  Basis Set: AUG-CC-PVTZ
    Blend: AUG-CC-PVTZ
  Basis Set: (AUG-CC-PVTZ AUX)
    Blend: AUG-CC-PVTZ-JKFIT

    Orbital Energies [Eh]
    ---------------------

    Doubly Occupied:

       1A    -20.555130     2A    -11.276204     3A    -11.220088
       4A     -1.353136     5A     -1.010975     6A     -0.846959
       7A     -0.685802     8A     -0.618685     9A     -0.604932
      10A     -0.552539    11A     -0.516731    12A     -0.483962
      13A     -0.443150

  @DF-RHF Final Energy:  -154.14120497090488

   => Energetics <=

    Nuclear Repulsion Energy =             81.6752586052336937
    One-Electron Energy =                -371.2963435456204024
    Two-Electron Energy =                 135.4798799694818285
    Total Energy =                       -154.1412049709048802
  Basis Set: (AUG-CC-PVTZ AUX)
    Blend: AUG-CC-PVTZ-RI
    Molecular point group: c1

    Geometry (in Angstrom), charge = 0, multiplicity = 1:

       Center              X                  Y                   Z               Mass
    ------------   -----------------  -----------------  -----------------  -----------------
         C            0.004238257619     0.575403881467     0.065186474087    12.000000000000
         C           -1.255765642381    -0.270919418533    -0.011363625913    12.000000000000
         O            1.162547257619    -0.245596118533    -0.093306525913    15.994914619570
         H            0.052538257619     1.294085881467    -0.755938525913     1.007825032230
         H            0.052966257619     1.144953881467     1.004310474087     1.007825032230
         H           -2.159201742381     0.427213881467     0.064928474087     1.007825032230
         H            1.173875257619    -0.868286118533     0.652730474087     1.007825032230
         H           -1.338446742381    -0.946799118533     0.819440474087     1.007825032230
         H           -1.330477742381    -0.778824118533    -0.945488525913     1.007825032230

  Basis Set: AUG-CC-PVTZ
    Blend: AUG-CC-PVTZ
  Basis Set: (AUG-CC-PVTZ AUX)
    Blend: AUG-CC-PVTZ-JKFIT
	 Reference Energy          =    -154.1412049709048802 [Eh]
	 Singles Energy            =      -0.0000000000000000 [Eh]
	 Same-Spin Energy          =      -0.1482122396282239 [Eh]
	 Opposite-Spin Energy      =      -0.5182770306190887 [Eh]
	 Correlation Energy        =      -0.6664892702473126 [Eh]
	 Total Energy              =    -154.8076942411522054 [Eh]

	 ================> DF-SCS-MP2 Energies <==================
	-----------------------------------------------------------
	 SCS Same-Spin Scale       =       0.3333333333333333 [-]
	 SCS Opposite-Spin Scale   =       1.2000000000000000 [-]
	 SCS Same-Spin Energy      =      -0.0494040798760746 [Eh]
	 SCS Opposite-Spin Energy  =      -0.6219324367429064 [Eh]
	 SCS Correlation Energy    =      -0.6713365166189811 [Eh]
	 SCS Total Energy          =    -154.8125414875238732 [Eh]
	-----------------------------------------------------------

  Dipole Moment: [D]
     X:    -1.2783      Y:    -0.0743      Z:     1.1843     Total:     1.7441

*** Psi4 exiting successfully. Buy a developer a beer!
