                               Psi4 1.3.2 release

  ==> Input File <==

--------------------------------------------------------------------------
#psi4
#
memory 32 gb

molecule  {
0 1
  C        0.0784890     0.5600950     0.0474820
  C       -1.2872869    -0.1048816     0.0006303
  O        1.2367980    -0.2609050    -0.1110110
  H        0.1267890     1.2787770    -0.7736430
  H        0.1272170     1.1296450     0.9866060
  H       -2.0849510     0.4119050     0.0472240
  H        1.2481260    -0.8835950     0.6350260
  H       -1.2641960    -0.9621080     0.8017360
  H       -1.2562270    -0.7941330    -0.9631930
units angstrom
no_reorient  #important for SAPT in psi4, default
symmetry c1  #important for SAPT in psi4, default
}

set PROPERTIES_ORIGIN ["COM"]
properties('MP2/aug-cc-pvtz', properties = ['dipole'])
--------------------------------------------------------------------------

    Molecular point group: c1
  Charge       = 0
  Multiplicity = 1
  Basis Set: AUG-CC-PVTZ
    Blend: AUG-CC-PVTZ
  Basis Set: (AUG-CC-PVTZ AUX)
    Blend: AUG-CC-PVTZ-JKFIT

    Orbital Energies [Eh]
    ---------------------

    Doubly Occupied:

       1A    -20.563962     2A    -11.278228     3A    -11.224948
       4A     -1.356959     5A     -1.017531     6A     -0.849452
       7A     -0.686029     8A     -0.644249     9A     -0.606881
      10A     -0.540974    11A     -0.525024    12A     -0.467057
      13A     -0.441893

  @DF-RHF Final Energy:  -154.11184342817279

   => Energetics <=

    Nuclear Repulsion Energy =             81.2346962048625016
    One-Electron Energy =                -370.2867018946838584
    Two-Electron Energy =                 134.9401622616485952
    Total Energy =                       -154.1118434281727900
  Basis Set: (AUG-CC-PVTZ AUX)
    Blend: AUG-CC-PVTZ-RI
    Molecular point group: c1

    Geometry (in Angstrom), charge = 0, multiplicity = 1:

       Center              X                  Y                   Z               Mass
    ------------   -----------------  -----------------  -----------------  -----------------
         C            0.031805863865     0.528139062615     0.057446109932    12.000000000000
         C           -1.333970036135    -0.136837537385     0.010594409932    12.000000000000
         O            1.190114863865    -0.292860937385    -0.101046890068    15.994914619570
         H            0.080105863865     1.246821062615    -0.763678890068     1.007825032230
         H            0.080533863865     1.097689062615     0.996570109932     1.007825032230
         H           -2.131634136135     0.379949062615     0.057188109932     1.007825032230
         H            1.201442863865    -0.915550937385     0.644990109932     1.007825032230
         H           -1.310879136135    -0.994063937385     0.811700109932     1.007825032230
         H           -1.302910136135    -0.826088937385    -0.953228890068     1.007825032230

  Basis Set: AUG-CC-PVTZ
    Blend: AUG-CC-PVTZ
  Basis Set: (AUG-CC-PVTZ AUX)
    Blend: AUG-CC-PVTZ-JKFIT
	 Reference Energy          =    -154.1118434281727900 [Eh]
	 Singles Energy            =      -0.0000000000000000 [Eh]
	 Same-Spin Energy          =      -0.1486756915169880 [Eh]
	 Opposite-Spin Energy      =      -0.5196853576564593 [Eh]
	 Correlation Energy        =      -0.6683610491734473 [Eh]
	 Total Energy              =    -154.7802044773462455 [Eh]

	 ================> DF-SCS-MP2 Energies <==================
	-----------------------------------------------------------
	 SCS Same-Spin Scale       =       0.3333333333333333 [-]
	 SCS Opposite-Spin Scale   =       1.2000000000000000 [-]
	 SCS Same-Spin Energy      =      -0.0495585638389960 [Eh]
	 SCS Opposite-Spin Energy  =      -0.6236224291877511 [Eh]
	 SCS Correlation Energy    =      -0.6731809930267472 [Eh]
	 SCS Total Energy          =    -154.7850244211995232 [Eh]
	-----------------------------------------------------------

  Dipole Moment: [D]
     X:    -1.2431      Y:    -0.0324      Z:     1.1912     Total:     1.7220

*** Psi4 exiting successfully. Buy a developer a beer!
