                               Psi4 1.3.2 release

  ==> Input File <==

--------------------------------------------------------------------------
#psi4
#
memory 32 gb

molecule  {
0 1
  S       -1.4679970    -1.1088850     0.1509200
  O        1.4861710    -1.4617920    -0.3475990
  N        2.0488620     0.7112420     0.1011850
  C       -0.2734750     0.1140250    -0.0519740
  C        1.1480630    -0.2971330    -0.1085980
  C       -0.8399206     1.3851725    -0.0333974
  C       -2.2598870     1.3270920    -0.0933710
  C       -2.7341550     0.0450510     0.0925010
  C        3.4678020     0.4025420     0.1643440
  H       -0.2776640     2.2711280    -0.3728590
  H        1.7182220     1.5388600     0.5795510
  H       -2.9045110     2.1962980    -0.1738640
  H       -3.7641930    -0.2736150     0.1955190
  H        3.7134240    -0.2643480    -0.6614350
  H        3.7418120    -0.0946250     1.1012270
  H        4.0344840     1.3296500     0.0646150
units angstrom
no_reorient  #important for SAPT in psi4, default
symmetry c1  #important for SAPT in psi4, default
}

set PROPERTIES_ORIGIN ["COM"]
properties('MP2/aug-cc-pvtz', properties = ['dipole'])
--------------------------------------------------------------------------

    Molecular point group: c1
  Charge       = 0
  Multiplicity = 1
  Basis Set: AUG-CC-PVTZ
    Blend: AUG-CC-PVTZ
  Basis Set: (AUG-CC-PVTZ AUX)
    Blend: AUG-CC-PVTZ-JKFIT

    Orbital Energies [Eh]
    ---------------------

    Doubly Occupied:

       1A    -91.997333     2A    -20.524023     3A    -15.590619
       4A    -11.363127     5A    -11.280088     6A    -11.278978
       7A    -11.264587     8A    -11.261676     9A    -11.252484
      10A     -8.997055    11A     -6.677880    12A     -6.677324
      13A     -6.676665    14A     -1.378621    15A     -1.233375
      16A     -1.183619    17A     -1.020685    18A     -1.000000
      19A     -0.945964    20A     -0.833375    21A     -0.769921
      22A     -0.769207    23A     -0.717951    24A     -0.645762
      25A     -0.641731    26A     -0.626620    27A     -0.578876
      28A     -0.571093    29A     -0.555775    30A     -0.552348
      31A     -0.533536    32A     -0.511730    33A     -0.485669
      34A     -0.437075    35A     -0.400524    36A     -0.357563
      37A     -0.335879

  @DF-RHF Final Energy:  -758.26166137996427

   => Energetics <=

    Nuclear Repulsion Energy =            499.7323593693815269
    One-Electron Energy =               -2032.1305624808223911
    Two-Electron Energy =                 774.1365417314765409
    Total Energy =                       -758.2616613799642664
  Basis Set: (AUG-CC-PVTZ AUX)
    Blend: AUG-CC-PVTZ-RI
    Molecular point group: c1

    Geometry (in Angstrom), charge = 0, multiplicity = 1:

       Center              X                  Y                   Z               Mass
    ------------   -----------------  -----------------  -----------------  -----------------
         S           -1.425014072330    -1.063515557806     0.143440092497    31.972071174400
         O            1.529153927670    -1.416422557806    -0.355078907503    15.994914619570
         N            2.091844927670     0.756611442194     0.093705092497    14.003074004430
         C           -0.230492072330     0.159394442194    -0.059453907503    12.000000000000
         C            1.191045927670    -0.251763557806    -0.116077907503    12.000000000000
         C           -0.796937672330     1.430541942194    -0.040877307503    12.000000000000
         C           -2.216904072330     1.372461442194    -0.100850907503    12.000000000000
         C           -2.691172072330     0.090420442194     0.085021092497    12.000000000000
         C            3.510784927670     0.447911442194     0.156864092497    12.000000000000
         H           -0.234681072330     2.316497442194    -0.380338907503     1.007825032230
         H            1.761204927670     1.584229442194     0.572071092497     1.007825032230
         H           -2.861528072330     2.241667442194    -0.181343907503     1.007825032230
         H           -3.721210072330    -0.228245557806     0.188039092497     1.007825032230
         H            3.756406927670    -0.218978557806    -0.668914907503     1.007825032230
         H            3.784794927670    -0.049255557806     1.093747092497     1.007825032230
         H            4.077466927670     1.375019442194     0.057135092497     1.007825032230

  Basis Set: AUG-CC-PVTZ
    Blend: AUG-CC-PVTZ
  Basis Set: (AUG-CC-PVTZ AUX)
    Blend: AUG-CC-PVTZ-JKFIT
	 Reference Energy          =    -758.2616613799642664 [Eh]
	 Singles Energy            =      -0.0000000000000000 [Eh]
	 Same-Spin Energy          =      -0.4440155087455308 [Eh]
	 Opposite-Spin Energy      =      -1.3489081343510132 [Eh]
	 Correlation Energy        =      -1.7929236430965441 [Eh]
	 Total Energy              =    -760.0545850230607812 [Eh]

	 ================> DF-SCS-MP2 Energies <==================
	-----------------------------------------------------------
	 SCS Same-Spin Scale       =       0.3333333333333333 [-]
	 SCS Opposite-Spin Scale   =       1.2000000000000000 [-]
	 SCS Same-Spin Energy      =      -0.1480051695818436 [Eh]
	 SCS Opposite-Spin Energy  =      -1.6186897612212159 [Eh]
	 SCS Correlation Energy    =      -1.7666949308030595 [Eh]
	 SCS Total Energy          =    -760.0283563107673217 [Eh]
	-----------------------------------------------------------

  Dipole Moment: [D]
     X:    -0.3805      Y:     3.5367      Z:     0.9939     Total:     3.6934

*** Psi4 exiting successfully. Buy a developer a beer!
