                               Psi4 1.3.2 release

  ==> Input File <==

--------------------------------------------------------------------------
#psi4
#
memory 32 gb

molecule  {
0 1
  S       -1.4679970    -1.1088850     0.1509200
  O        1.4861710    -1.4617920    -0.3475990
  N        2.0488620     0.7112420     0.1011850
  C       -0.2734750     0.1140250    -0.0519740
  C        1.1480630    -0.2971330    -0.1085980
  C       -0.8491840     1.3674970    -0.1820640
  C       -2.2598870     1.3270920    -0.0933710
  C       -2.7341550     0.0450510     0.0925010
  C        3.4678020     0.4025420     0.1643440
  H       -0.2776640     2.2711280    -0.3728590
  H        1.7182220     1.5388600     0.5795510
  H       -2.9045110     2.1962980    -0.1738640
  H       -3.7610521    -0.2676258     0.2450595
  H        3.7134240    -0.2643480    -0.6614350
  H        3.7418120    -0.0946250     1.1012270
  H        4.0344840     1.3296500     0.0646150
units angstrom
no_reorient  #important for SAPT in psi4, default
symmetry c1  #important for SAPT in psi4, default
}

set PROPERTIES_ORIGIN ["COM"]
properties('MP2/aug-cc-pvtz', properties = ['dipole'])
--------------------------------------------------------------------------

    Molecular point group: c1
  Charge       = 0
  Multiplicity = 1
  Basis Set: AUG-CC-PVTZ
    Blend: AUG-CC-PVTZ
  Basis Set: (AUG-CC-PVTZ AUX)
    Blend: AUG-CC-PVTZ-JKFIT

    Orbital Energies [Eh]
    ---------------------

    Doubly Occupied:

       1A    -91.996203     2A    -20.523395     3A    -15.590831
       4A    -11.362679     5A    -11.279284     6A    -11.276866
       7A    -11.262759     8A    -11.261717     9A    -11.250905
      10A     -8.995935    11A     -6.676769    12A     -6.676216
      13A     -6.675542    14A     -1.378112    15A     -1.233315
      16A     -1.184233    17A     -1.020518    18A     -1.000911
      19A     -0.946240    20A     -0.833081    21A     -0.770964
      22A     -0.769292    23A     -0.721928    24A     -0.646200
      25A     -0.641683    26A     -0.626004    27A     -0.579485
      28A     -0.573524    29A     -0.557993    30A     -0.552731
      31A     -0.532427    32A     -0.511862    33A     -0.486273
      34A     -0.436747    35A     -0.400346    36A     -0.357017
      37A     -0.335926

  @DF-RHF Final Energy:  -758.26844115811343

   => Energetics <=

    Nuclear Repulsion Energy =            499.9349913249970996
    One-Electron Energy =               -2032.5550363813006243
    Two-Electron Energy =                 774.3516038981900920
    Total Energy =                       -758.2684411581134327
  Basis Set: (AUG-CC-PVTZ AUX)
    Blend: AUG-CC-PVTZ-RI
    Molecular point group: c1

    Geometry (in Angstrom), charge = 0, multiplicity = 1:

       Center              X                  Y                   Z               Mass
    ------------   -----------------  -----------------  -----------------  -----------------
         S           -1.424248282940    -1.062054326284     0.155736302904    31.972071174400
         O            1.529919717060    -1.414961326284    -0.342782697096    15.994914619570
         N            2.092610717060     0.758072673716     0.106001302904    14.003074004430
         C           -0.229726282940     0.160855673716    -0.047157697096    12.000000000000
         C            1.191811717060    -0.250302326284    -0.103781697096    12.000000000000
         C           -0.805435282940     1.414327673716    -0.177247697096    12.000000000000
         C           -2.216138282940     1.373922673716    -0.088554697096    12.000000000000
         C           -2.690406282940     0.091881673716     0.097317302904    12.000000000000
         C            3.511550717060     0.449372673716     0.169160302904    12.000000000000
         H           -0.233915282940     2.317958673716    -0.368042697096     1.007825032230
         H            1.761970717060     1.585690673716     0.584367302904     1.007825032230
         H           -2.860762282940     2.243128673716    -0.169047697096     1.007825032230
         H           -3.717303382940    -0.220795126284     0.249875802904     1.007825032230
         H            3.757172717060    -0.217517326284    -0.656618697096     1.007825032230
         H            3.785560717060    -0.047794326284     1.106043302904     1.007825032230
         H            4.078232717060     1.376480673716     0.069431302904     1.007825032230

  Basis Set: AUG-CC-PVTZ
    Blend: AUG-CC-PVTZ
  Basis Set: (AUG-CC-PVTZ AUX)
    Blend: AUG-CC-PVTZ-JKFIT
	 Reference Energy          =    -758.2684411581134327 [Eh]
	 Singles Energy            =      -0.0000000000000000 [Eh]
	 Same-Spin Energy          =      -0.4434985172451287 [Eh]
	 Opposite-Spin Energy      =      -1.3477820594620729 [Eh]
	 Correlation Energy        =      -1.7912805767072015 [Eh]
	 Total Energy              =    -760.0597217348206414 [Eh]

	 ================> DF-SCS-MP2 Energies <==================
	-----------------------------------------------------------
	 SCS Same-Spin Scale       =       0.3333333333333333 [-]
	 SCS Opposite-Spin Scale   =       1.2000000000000000 [-]
	 SCS Same-Spin Energy      =      -0.1478328390817095 [Eh]
	 SCS Opposite-Spin Energy  =      -1.6173384713544874 [Eh]
	 SCS Correlation Energy    =      -1.7651713104361970 [Eh]
	 SCS Total Energy          =    -760.0336124685496770 [Eh]
	-----------------------------------------------------------

  Dipole Moment: [D]
     X:    -0.3258      Y:     3.6215      Z:     1.1217     Total:     3.8052

*** Psi4 exiting successfully. Buy a developer a beer!
