                               Psi4 1.3.2 release

  ==> Input File <==

--------------------------------------------------------------------------
#psi4
#
memory 32 gb

molecule  {
0 1
  S       -1.4679970    -1.1088850     0.1509200
  O        1.4861710    -1.4617920    -0.3475990
  N        2.0488620     0.7112420     0.1011850
  C       -0.2734750     0.1140250    -0.0519740
  C        1.1480630    -0.2971330    -0.1085980
  C       -0.8491840     1.3674970    -0.1820640
  C       -2.2598870     1.3270920    -0.0933710
  C       -2.7341550     0.0450510     0.0925010
  C        3.4678020     0.4025420     0.1643440
  H       -0.2776640     2.2711280    -0.3728590
  H        1.7182220     1.5388600     0.5795510
  H       -2.9045110     2.1962980    -0.1738640
  H       -3.7579113    -0.2616366     0.2946001
  H        3.7134240    -0.2643480    -0.6614350
  H        3.7418120    -0.0946250     1.1012270
  H        4.0344840     1.3296500     0.0646150
units angstrom
no_reorient  #important for SAPT in psi4, default
symmetry c1  #important for SAPT in psi4, default
}

set PROPERTIES_ORIGIN ["COM"]
properties('MP2/aug-cc-pvtz', properties = ['dipole'])
--------------------------------------------------------------------------

    Molecular point group: c1
  Charge       = 0
  Multiplicity = 1
  Basis Set: AUG-CC-PVTZ
    Blend: AUG-CC-PVTZ
  Basis Set: (AUG-CC-PVTZ AUX)
    Blend: AUG-CC-PVTZ-JKFIT

    Orbital Energies [Eh]
    ---------------------

    Doubly Occupied:

       1A    -91.996208     2A    -20.523403     3A    -15.590857
       4A    -11.362707     5A    -11.279523     6A    -11.276980
       7A    -11.262789     8A    -11.261742     9A    -11.251008
      10A     -8.995942    11A     -6.676775    12A     -6.676220
      13A     -6.675548    14A     -1.378130    15A     -1.233345
      16A     -1.184261    17A     -1.020485    18A     -1.000921
      19A     -0.946207    20A     -0.833050    21A     -0.770568
      22A     -0.769260    23A     -0.721860    24A     -0.646049
      25A     -0.641686    26A     -0.626058    27A     -0.579502
      28A     -0.573575    29A     -0.558202    30A     -0.552566
      31A     -0.531664    32A     -0.512075    33A     -0.486283
      34A     -0.436776    35A     -0.400381    36A     -0.357044
      37A     -0.335932

  @DF-RHF Final Energy:  -758.26803311199944

   => Energetics <=

    Nuclear Repulsion Energy =            499.9218732064110782
    One-Electron Energy =               -2032.5286429741966003
    Two-Electron Energy =                 774.3387366557859650
    Total Energy =                       -758.2680331119994435
  Basis Set: (AUG-CC-PVTZ AUX)
    Blend: AUG-CC-PVTZ-RI
    Molecular point group: c1

    Geometry (in Angstrom), charge = 0, multiplicity = 1:

       Center              X                  Y                   Z               Mass
    ------------   -----------------  -----------------  -----------------  -----------------
         S           -1.424270728468    -1.062097127721     0.155382264150    31.972071174400
         O            1.529897271532    -1.415004127721    -0.343136735850    15.994914619570
         N            2.092588271532     0.758029872279     0.105647264150    14.003074004430
         C           -0.229748728468     0.160812872279    -0.047511735850    12.000000000000
         C            1.191789271532    -0.250345127721    -0.104135735850    12.000000000000
         C           -0.805457728468     1.414284872279    -0.177601735850    12.000000000000
         C           -2.216160728468     1.373879872279    -0.088908735850    12.000000000000
         C           -2.690428728468     0.091838872279     0.096963264150    12.000000000000
         C            3.511528271532     0.449329872279     0.168806264150    12.000000000000
         H           -0.233937728468     2.317915872279    -0.368396735850     1.007825032230
         H            1.761948271532     1.585647872279     0.584013264150     1.007825032230
         H           -2.860784728468     2.243085872279    -0.169401735850     1.007825032230
         H           -3.714185028468    -0.214848727721     0.299062364150     1.007825032230
         H            3.757150271532    -0.217560127721    -0.656972735850     1.007825032230
         H            3.785538271532    -0.047837127721     1.105689264150     1.007825032230
         H            4.078210271532     1.376437872279     0.069077264150     1.007825032230

  Basis Set: AUG-CC-PVTZ
    Blend: AUG-CC-PVTZ
  Basis Set: (AUG-CC-PVTZ AUX)
    Blend: AUG-CC-PVTZ-JKFIT
	 Reference Energy          =    -758.2680331119994435 [Eh]
	 Singles Energy            =      -0.0000000000000000 [Eh]
	 Same-Spin Energy          =      -0.4435316946005763 [Eh]
	 Opposite-Spin Energy      =      -1.3478452672618348 [Eh]
	 Correlation Energy        =      -1.7913769618624111 [Eh]
	 Total Energy              =    -760.0594100738618408 [Eh]

	 ================> DF-SCS-MP2 Energies <==================
	-----------------------------------------------------------
	 SCS Same-Spin Scale       =       0.3333333333333333 [-]
	 SCS Opposite-Spin Scale   =       1.2000000000000000 [-]
	 SCS Same-Spin Energy      =      -0.1478438982001921 [Eh]
	 SCS Opposite-Spin Energy  =      -1.6174143207142018 [Eh]
	 SCS Correlation Energy    =      -1.7652582189143939 [Eh]
	 SCS Total Energy          =    -760.0332913309138121 [Eh]
	-----------------------------------------------------------

  Dipole Moment: [D]
     X:    -0.3188      Y:     3.6289      Z:     1.1608     Total:     3.8233

*** Psi4 exiting successfully. Buy a developer a beer!
