                               Psi4 1.3.2 release

  ==> Input File <==

--------------------------------------------------------------------------
#psi4
#
memory 32 gb

molecule  {
0 1
  S       -1.4679970    -1.1088850     0.1509200
  O        1.4861710    -1.4617920    -0.3475990
  N        2.0488620     0.7112420     0.1011850
  C       -0.2734750     0.1140250    -0.0519740
  C        1.1480630    -0.2971330    -0.1085980
  C       -0.8337450     1.3969562     0.0657137
  C       -2.2598870     1.3270920    -0.0933710
  C       -2.7341550     0.0450510     0.0925010
  C        3.4678020     0.4025420     0.1643440
  H       -0.2776640     2.2711280    -0.3728590
  H        1.7182220     1.5388600     0.5795510
  H       -2.9045110     2.1962980    -0.1738640
  H       -3.7641930    -0.2736150     0.1955190
  H        3.7134240    -0.2643480    -0.6614350
  H        3.7418120    -0.0946250     1.1012270
  H        4.0344840     1.3296500     0.0646150
units angstrom
no_reorient  #important for SAPT in psi4, default
symmetry c1  #important for SAPT in psi4, default
}

set PROPERTIES_ORIGIN ["COM"]
properties('MP2/aug-cc-pvtz', properties = ['dipole'])
--------------------------------------------------------------------------

    Molecular point group: c1
  Charge       = 0
  Multiplicity = 1
  Basis Set: AUG-CC-PVTZ
    Blend: AUG-CC-PVTZ
  Basis Set: (AUG-CC-PVTZ AUX)
    Blend: AUG-CC-PVTZ-JKFIT

    Orbital Energies [Eh]
    ---------------------

    Doubly Occupied:

       1A    -91.998856     2A    -20.525087     3A    -15.590765
       4A    -11.363887     5A    -11.285048     6A    -11.278478
       7A    -11.267622     8A    -11.261831     9A    -11.254779
      10A     -8.998576    11A     -6.679387    12A     -6.678828
      13A     -6.678189    14A     -1.379509    15A     -1.233671
      16A     -1.182203    17A     -1.020605    18A     -0.998291
      19A     -0.945669    20A     -0.833810    21A     -0.769404
      22A     -0.767803    23A     -0.712268    24A     -0.645680
      25A     -0.641431    26A     -0.627238    27A     -0.578022
      28A     -0.567523    29A     -0.554419    30A     -0.550656
      31A     -0.533287    32A     -0.511742    33A     -0.484202
      34A     -0.437844    35A     -0.400875    36A     -0.358017
      37A     -0.335372

  @DF-RHF Final Energy:  -758.24918789845299

   => Energetics <=

    Nuclear Repulsion Energy =            499.3058809520921955
    One-Electron Energy =               -2031.2483903892646140
    Two-Electron Energy =                 773.6933215387194878
    Total Energy =                       -758.2491878984529876
  Basis Set: (AUG-CC-PVTZ AUX)
    Blend: AUG-CC-PVTZ-RI
    Molecular point group: c1

    Geometry (in Angstrom), charge = 0, multiplicity = 1:

       Center              X                  Y                   Z               Mass
    ------------   -----------------  -----------------  -----------------  -----------------
         S           -1.425539562752    -1.064518249282     0.135006590697    31.972071174400
         O            1.528628437248    -1.417425249282    -0.363512409303    15.994914619570
         N            2.091319437248     0.755608750718     0.085271590697    14.003074004430
         C           -0.231017562752     0.158391750718    -0.067887409303    12.000000000000
         C            1.190520437248    -0.252766249282    -0.124511409303    12.000000000000
         C           -0.791287562752     1.441322950718     0.049800290697    12.000000000000
         C           -2.217429562752     1.371458750718    -0.109284409303    12.000000000000
         C           -2.691697562752     0.089417750718     0.076587590697    12.000000000000
         C            3.510259437248     0.446908750718     0.148430590697    12.000000000000
         H           -0.235206562752     2.315494750718    -0.388772409303     1.007825032230
         H            1.760679437248     1.583226750718     0.563637590697     1.007825032230
         H           -2.862053562752     2.240664750718    -0.189777409303     1.007825032230
         H           -3.721735562752    -0.229248249282     0.179605590697     1.007825032230
         H            3.755881437248    -0.219981249282    -0.677348409303     1.007825032230
         H            3.784269437248    -0.050258249282     1.085313590697     1.007825032230
         H            4.076941437248     1.374016750718     0.048701590697     1.007825032230

  Basis Set: AUG-CC-PVTZ
    Blend: AUG-CC-PVTZ
  Basis Set: (AUG-CC-PVTZ AUX)
    Blend: AUG-CC-PVTZ-JKFIT
	 Reference Energy          =    -758.2491878984529876 [Eh]
	 Singles Energy            =      -0.0000000000000000 [Eh]
	 Same-Spin Energy          =      -0.4448236247479966 [Eh]
	 Opposite-Spin Energy      =      -1.3509632929661679 [Eh]
	 Correlation Energy        =      -1.7957869177141645 [Eh]
	 Total Energy              =    -760.0449748161671550 [Eh]

	 ================> DF-SCS-MP2 Energies <==================
	-----------------------------------------------------------
	 SCS Same-Spin Scale       =       0.3333333333333333 [-]
	 SCS Opposite-Spin Scale   =       1.2000000000000000 [-]
	 SCS Same-Spin Energy      =      -0.1482745415826655 [Eh]
	 SCS Opposite-Spin Energy  =      -1.6211559515594014 [Eh]
	 SCS Correlation Energy    =      -1.7694304931420670 [Eh]
	 SCS Total Energy          =    -760.0186183915950551 [Eh]
	-----------------------------------------------------------

  Dipole Moment: [D]
     X:    -0.4259      Y:     3.4312      Z:     0.9360     Total:     3.5820

*** Psi4 exiting successfully. Buy a developer a beer!
