                               Psi4 1.3.2 release

  ==> Input File <==

--------------------------------------------------------------------------
#psi4
#
memory 32 gb

molecule  {
0 1
  S       -1.4679970    -1.1088850     0.1509200
  O        1.4861710    -1.4617920    -0.3475990
  N        2.0488620     0.7112420     0.1011850
  C       -0.2734750     0.1140250    -0.0519740
  C        1.1480630    -0.2971330    -0.1085980
  C       -0.8491840     1.3674970    -0.1820640
  C       -2.2598870     1.3270920    -0.0933710
  C       -2.7341550     0.0450510     0.0925010
  C        3.4678020     0.4025420     0.1643440
  H       -0.2776640     2.2711280    -0.3728590
  H        1.7182220     1.5388600     0.5795510
  H       -2.9183013     2.1645494    -0.4214561
  H       -3.7641930    -0.2736150     0.1955190
  H        3.7134240    -0.2643480    -0.6614350
  H        3.7418120    -0.0946250     1.1012270
  H        4.0344840     1.3296500     0.0646150
units angstrom
no_reorient  #important for SAPT in psi4, default
symmetry c1  #important for SAPT in psi4, default
}

set PROPERTIES_ORIGIN ["COM"]
properties('MP2/aug-cc-pvtz', properties = ['dipole'])
--------------------------------------------------------------------------

    Molecular point group: c1
  Charge       = 0
  Multiplicity = 1
  Basis Set: AUG-CC-PVTZ
    Blend: AUG-CC-PVTZ
  Basis Set: (AUG-CC-PVTZ AUX)
    Blend: AUG-CC-PVTZ-JKFIT

    Orbital Energies [Eh]
    ---------------------

    Doubly Occupied:

       1A    -91.996874     2A    -20.523573     3A    -15.590929
       4A    -11.362862     5A    -11.280214     6A    -11.277029
       7A    -11.263076     8A    -11.261778     9A    -11.253205
      10A     -8.996592    11A     -6.677418    12A     -6.676869
      13A     -6.676195    14A     -1.378289    15A     -1.233421
      16A     -1.184554    17A     -1.020441    18A     -1.000660
      19A     -0.946248    20A     -0.832960    21A     -0.769671
      22A     -0.768725    23A     -0.720586    24A     -0.646319
      25A     -0.639401    26A     -0.625541    27A     -0.578093
      28A     -0.573778    29A     -0.559482    30A     -0.552684
      31A     -0.529476    32A     -0.512886    33A     -0.485934
      34A     -0.436463    35A     -0.400452    36A     -0.357229
      37A     -0.336053

  @DF-RHF Final Energy:  -758.26451365213416

   => Energetics <=

    Nuclear Repulsion Energy =            499.8282036047395991
    One-Electron Energy =               -2032.3335161231427719
    Two-Electron Energy =                 774.2407988662689604
    Total Energy =                       -758.2645136521341556
  Basis Set: (AUG-CC-PVTZ AUX)
    Blend: AUG-CC-PVTZ-RI
    Molecular point group: c1

    Geometry (in Angstrom), charge = 0, multiplicity = 1:

       Center              X                  Y                   Z               Mass
    ------------   -----------------  -----------------  -----------------  -----------------
         S           -1.424127285194    -1.061784635491     0.157859742170    31.972071174400
         O            1.530040714806    -1.414691635491    -0.340659257830    15.994914619570
         N            2.092731714806     0.758342364509     0.108124742170    14.003074004430
         C           -0.229605285194     0.161125364509    -0.045034257830    12.000000000000
         C            1.191932714806    -0.250032635491    -0.101658257830    12.000000000000
         C           -0.805314285194     1.414597364509    -0.175124257830    12.000000000000
         C           -2.216017285194     1.374192364509    -0.086431257830    12.000000000000
         C           -2.690285285194     0.092151364509     0.099440742170    12.000000000000
         C            3.511671714806     0.449642364509     0.171283742170    12.000000000000
         H           -0.233794285194     2.318228364509    -0.365919257830     1.007825032230
         H            1.762091714806     1.585960364509     0.586490742170     1.007825032230
         H           -2.874431585194     2.211649764509    -0.414516357830     1.007825032230
         H           -3.720323285194    -0.226514635491     0.202458742170     1.007825032230
         H            3.757293714806    -0.217247635491    -0.654495257830     1.007825032230
         H            3.785681714806    -0.047524635491     1.108166742170     1.007825032230
         H            4.078353714806     1.376750364509     0.071554742170     1.007825032230

  Basis Set: AUG-CC-PVTZ
    Blend: AUG-CC-PVTZ
  Basis Set: (AUG-CC-PVTZ AUX)
    Blend: AUG-CC-PVTZ-JKFIT
	 Reference Energy          =    -758.2645136521341556 [Eh]
	 Singles Energy            =      -0.0000000000000000 [Eh]
	 Same-Spin Energy          =      -0.4437007590477017 [Eh]
	 Opposite-Spin Energy      =      -1.3482405418056205 [Eh]
	 Correlation Energy        =      -1.7919413008533223 [Eh]
	 Total Energy              =    -760.0564549529874512 [Eh]

	 ================> DF-SCS-MP2 Energies <==================
	-----------------------------------------------------------
	 SCS Same-Spin Scale       =       0.3333333333333333 [-]
	 SCS Opposite-Spin Scale   =       1.2000000000000000 [-]
	 SCS Same-Spin Energy      =      -0.1479002530159005 [Eh]
	 SCS Opposite-Spin Energy  =      -1.6178886501667444 [Eh]
	 SCS Correlation Energy    =      -1.7657889031826450 [Eh]
	 SCS Total Energy          =    -760.0303025553167799 [Eh]
	-----------------------------------------------------------

  Dipole Moment: [D]
     X:    -0.3036      Y:     3.5457      Z:     0.8981     Total:     3.6702

*** Psi4 exiting successfully. Buy a developer a beer!
