                               Psi4 1.3.2 release

  ==> Input File <==

--------------------------------------------------------------------------
#psi4
#
memory 32 gb

molecule  {
0 1
  S       -1.4679970    -1.1088850     0.1509200
  O        1.4861710    -1.4617920    -0.3475990
  N        2.0488620     0.7112420     0.1011850
  C       -0.2734750     0.1140250    -0.0519740
  C        1.1480630    -0.2971330    -0.1085980
  C       -0.8491840     1.3674970    -0.1820640
  C       -2.2598870     1.3270920    -0.0933710
  C       -2.7341550     0.0450510     0.0925010
  C        3.4678020     0.4025420     0.1643440
  H       -0.2811218     2.2637821    -0.4221954
  H        1.7182220     1.5388600     0.5795510
  H       -2.9045110     2.1962980    -0.1738640
  H       -3.7641930    -0.2736150     0.1955190
  H        3.7134240    -0.2643480    -0.6614350
  H        3.7418120    -0.0946250     1.1012270
  H        4.0344840     1.3296500     0.0646150
units angstrom
no_reorient  #important for SAPT in psi4, default
symmetry c1  #important for SAPT in psi4, default
}

set PROPERTIES_ORIGIN ["COM"]
properties('MP2/aug-cc-pvtz', properties = ['dipole'])
--------------------------------------------------------------------------

    Molecular point group: c1
  Charge       = 0
  Multiplicity = 1
  Basis Set: AUG-CC-PVTZ
    Blend: AUG-CC-PVTZ
  Basis Set: (AUG-CC-PVTZ AUX)
    Blend: AUG-CC-PVTZ-JKFIT

    Orbital Energies [Eh]
    ---------------------

    Doubly Occupied:

       1A    -91.996261     2A    -20.523359     3A    -15.590828
       4A    -11.362639     5A    -11.279181     6A    -11.276902
       7A    -11.262744     8A    -11.261686     9A    -11.250866
      10A     -8.995990    11A     -6.676823    12A     -6.676271
      13A     -6.675596    14A     -1.378088    15A     -1.233271
      16A     -1.184224    17A     -1.020515    18A     -1.000828
      19A     -0.946239    20A     -0.832999    21A     -0.771004
      22A     -0.769265    23A     -0.721508    24A     -0.646322
      25A     -0.641668    26A     -0.625902    27A     -0.579463
      28A     -0.573358    29A     -0.557166    30A     -0.552823
      31A     -0.533563    32A     -0.511376    33A     -0.486236
      34A     -0.436698    35A     -0.400248    36A     -0.357020
      37A     -0.335944

  @DF-RHF Final Energy:  -758.26834773940470

   => Energetics <=

    Nuclear Repulsion Energy =            499.9276724548996071
    One-Electron Energy =               -2032.5422951263490177
    Two-Electron Energy =                 774.3462749320448211
    Total Energy =                       -758.2683477394047031
  Basis Set: (AUG-CC-PVTZ AUX)
    Blend: AUG-CC-PVTZ-RI
    Molecular point group: c1

    Geometry (in Angstrom), charge = 0, multiplicity = 1:

       Center              X                  Y                   Z               Mass
    ------------   -----------------  -----------------  -----------------  -----------------
         S           -1.424201125750    -1.061959027838     0.156442920393    31.972071174400
         O            1.529966874250    -1.414866027838    -0.342076079607    15.994914619570
         N            2.092657874250     0.758167972162     0.106707920393    14.003074004430
         C           -0.229679125750     0.160950972162    -0.046451079607    12.000000000000
         C            1.191858874250    -0.250207027838    -0.103075079607    12.000000000000
         C           -0.805388125750     1.414422972162    -0.176541079607    12.000000000000
         C           -2.216091125750     1.374017972162    -0.087848079607    12.000000000000
         C           -2.690359125750     0.091976972162     0.098023920393    12.000000000000
         C            3.511597874250     0.449467972162     0.169866920393    12.000000000000
         H           -0.237325925750     2.310708072162    -0.416672479607     1.007825032230
         H            1.762017874250     1.585785972162     0.585073920393     1.007825032230
         H           -2.860715125750     2.243223972162    -0.168341079607     1.007825032230
         H           -3.720397125750    -0.226689027838     0.201041920393     1.007825032230
         H            3.757219874250    -0.217422027838    -0.655912079607     1.007825032230
         H            3.785607874250    -0.047699027838     1.106749920393     1.007825032230
         H            4.078279874250     1.376575972162     0.070137920393     1.007825032230

  Basis Set: AUG-CC-PVTZ
    Blend: AUG-CC-PVTZ
  Basis Set: (AUG-CC-PVTZ AUX)
    Blend: AUG-CC-PVTZ-JKFIT
	 Reference Energy          =    -758.2683477394047031 [Eh]
	 Singles Energy            =      -0.0000000000000000 [Eh]
	 Same-Spin Energy          =      -0.4435149121702656 [Eh]
	 Opposite-Spin Energy      =      -1.3477964668347893 [Eh]
	 Correlation Energy        =      -1.7913113790050548 [Eh]
	 Total Energy              =    -760.0596591184097406 [Eh]

	 ================> DF-SCS-MP2 Energies <==================
	-----------------------------------------------------------
	 SCS Same-Spin Scale       =       0.3333333333333333 [-]
	 SCS Opposite-Spin Scale   =       1.2000000000000000 [-]
	 SCS Same-Spin Energy      =      -0.1478383040567552 [Eh]
	 SCS Opposite-Spin Energy  =      -1.6173557602017470 [Eh]
	 SCS Correlation Energy    =      -1.7651940642585022 [Eh]
	 SCS Total Energy          =    -760.0335418036631836 [Eh]
	-----------------------------------------------------------

  Dipole Moment: [D]
     X:    -0.3328      Y:     3.6087      Z:     1.0448     Total:     3.7716

*** Psi4 exiting successfully. Buy a developer a beer!
