                               Psi4 1.3.2 release

  ==> Input File <==

--------------------------------------------------------------------------
#psi4
#
memory 32 gb

molecule  {
0 1
  S       -1.4679970    -1.1088850     0.1509200
  O        1.4861710    -1.4617920    -0.3475990
  N        2.0488620     0.7112420     0.1011850
  C       -0.2734750     0.1140250    -0.0519740
  C        1.1480630    -0.2971330    -0.1085980
  C       -0.8491840     1.3674970    -0.1820640
  C       -2.2598870     1.3270920    -0.0933710
  C       -2.7341550     0.0450510     0.0925010
  C        3.4678020     0.4025420     0.1643440
  H       -0.2949531     2.2343986    -0.6195411
  H        1.7182220     1.5388600     0.5795510
  H       -2.9045110     2.1962980    -0.1738640
  H       -3.7641930    -0.2736150     0.1955190
  H        3.7134240    -0.2643480    -0.6614350
  H        3.7418120    -0.0946250     1.1012270
  H        4.0344840     1.3296500     0.0646150
units angstrom
no_reorient  #important for SAPT in psi4, default
symmetry c1  #important for SAPT in psi4, default
}

set PROPERTIES_ORIGIN ["COM"]
properties('MP2/aug-cc-pvtz', properties = ['dipole'])
--------------------------------------------------------------------------

    Molecular point group: c1
  Charge       = 0
  Multiplicity = 1
  Basis Set: AUG-CC-PVTZ
    Blend: AUG-CC-PVTZ
  Basis Set: (AUG-CC-PVTZ AUX)
    Blend: AUG-CC-PVTZ-JKFIT

    Orbital Energies [Eh]
    ---------------------

    Doubly Occupied:

       1A    -91.996926     2A    -20.523309     3A    -15.590804
       4A    -11.362636     5A    -11.279195     6A    -11.277936
       7A    -11.264548     8A    -11.261587     9A    -11.251131
      10A     -8.996639    11A     -6.677465    12A     -6.676915
      13A     -6.676240    14A     -1.378112    15A     -1.233122
      16A     -1.184437    17A     -1.020584    18A     -0.999983
      19A     -0.946122    20A     -0.832473    21A     -0.770155
      22A     -0.769018    23A     -0.716284    24A     -0.646405
      25A     -0.641743    26A     -0.625904    27A     -0.579110
      28A     -0.572598    29A     -0.553941    30A     -0.552019
      31A     -0.535066    32A     -0.510547    33A     -0.485774
      34A     -0.436687    35A     -0.399884    36A     -0.357000
      37A     -0.336198

  @DF-RHF Final Energy:  -758.26407300163908

   => Energetics <=

    Nuclear Repulsion Energy =            499.7916931701641943
    One-Electron Energy =               -2032.2745455855961154
    Two-Electron Energy =                 774.2187794137927312
    Total Energy =                       -758.2640730016390762
  Basis Set: (AUG-CC-PVTZ AUX)
    Blend: AUG-CC-PVTZ-RI
    Molecular point group: c1

    Geometry (in Angstrom), charge = 0, multiplicity = 1:

       Center              X                  Y                   Z               Mass
    ------------   -----------------  -----------------  -----------------  -----------------
         S           -1.424102281242    -1.061749040520     0.157853238912    31.972071174400
         O            1.530065718758    -1.414656040520    -0.340665761088    15.994914619570
         N            2.092756718758     0.758377959480     0.108118238912    14.003074004430
         C           -0.229580281242     0.161160959480    -0.045040761088    12.000000000000
         C            1.191957718758    -0.249997040520    -0.101664761088    12.000000000000
         C           -0.805289281242     1.414632959480    -0.175130761088    12.000000000000
         C           -2.215992281242     1.374227959480    -0.086437761088    12.000000000000
         C           -2.690260281242     0.092186959480     0.099434238912    12.000000000000
         C            3.511696718758     0.449677959480     0.171277238912    12.000000000000
         H           -0.251058381242     2.281534559480    -0.612607861088     1.007825032230
         H            1.762116718758     1.585995959480     0.586484238912     1.007825032230
         H           -2.860616281242     2.243433959480    -0.166930761088     1.007825032230
         H           -3.720298281242    -0.226479040520     0.202452238912     1.007825032230
         H            3.757318718758    -0.217212040520    -0.654501761088     1.007825032230
         H            3.785706718758    -0.047489040520     1.108160238912     1.007825032230
         H            4.078378718758     1.376785959480     0.071548238912     1.007825032230

  Basis Set: AUG-CC-PVTZ
    Blend: AUG-CC-PVTZ
  Basis Set: (AUG-CC-PVTZ AUX)
    Blend: AUG-CC-PVTZ-JKFIT
	 Reference Energy          =    -758.2640730016390762 [Eh]
	 Singles Energy            =      -0.0000000000000000 [Eh]
	 Same-Spin Energy          =      -0.4438295951254191 [Eh]
	 Opposite-Spin Energy      =      -1.3483931766569908 [Eh]
	 Correlation Energy        =      -1.7922227717824097 [Eh]
	 Total Energy              =    -760.0562957734215388 [Eh]

	 ================> DF-SCS-MP2 Energies <==================
	-----------------------------------------------------------
	 SCS Same-Spin Scale       =       0.3333333333333333 [-]
	 SCS Opposite-Spin Scale   =       1.2000000000000000 [-]
	 SCS Same-Spin Energy      =      -0.1479431983751397 [Eh]
	 SCS Opposite-Spin Energy  =      -1.6180718119883888 [Eh]
	 SCS Correlation Energy    =      -1.7660150103635286 [Eh]
	 SCS Total Energy          =    -760.0300880120025795 [Eh]
	-----------------------------------------------------------

  Dipole Moment: [D]
     X:    -0.3688      Y:     3.5496      Z:     0.9039     Total:     3.6814

*** Psi4 exiting successfully. Buy a developer a beer!
