                               Psi4 1.3.2 release

  ==> Input File <==

--------------------------------------------------------------------------
#psi4
#
memory 32 gb

molecule  {
0 1
  S       -1.4679970    -1.1088850     0.1509200
  O        1.4861710    -1.4617920    -0.3475990
  N        2.0488620     0.7112420     0.1011850
  C       -0.2734750     0.1140250    -0.0519740
  C        1.1480630    -0.2971330    -0.1085980
  C       -0.8430084     1.3792807    -0.0829529
  C       -2.2598870     1.3270920    -0.0933710
  C       -2.7341550     0.0450510     0.0925010
  C        3.4678020     0.4025420     0.1643440
  H       -0.2776640     2.2711280    -0.3728590
  H        1.7182220     1.5388600     0.5795510
  H       -2.9045110     2.1962980    -0.1738640
  H       -3.7641930    -0.2736150     0.1955190
  H        3.7134240    -0.2643480    -0.6614350
  H        3.7418120    -0.0946250     1.1012270
  H        4.0344840     1.3296500     0.0646150
units angstrom
no_reorient  #important for SAPT in psi4, default
symmetry c1  #important for SAPT in psi4, default
}

set PROPERTIES_ORIGIN ["COM"]
properties('MP2/aug-cc-pvtz', properties = ['dipole'])
--------------------------------------------------------------------------

    Molecular point group: c1
  Charge       = 0
  Multiplicity = 1
  Basis Set: AUG-CC-PVTZ
    Blend: AUG-CC-PVTZ
  Basis Set: (AUG-CC-PVTZ AUX)
    Blend: AUG-CC-PVTZ-JKFIT

    Orbital Energies [Eh]
    ---------------------

    Doubly Occupied:

       1A    -91.996808     2A    -20.523690     3A    -15.590632
       4A    -11.362885     5A    -11.279134     6A    -11.278423
       7A    -11.263588     8A    -11.261651     9A    -11.251685
      10A     -8.996532    11A     -6.677361    12A     -6.676807
      13A     -6.676141    14A     -1.378344    15A     -1.233303
      16A     -1.184033    17A     -1.020678    18A     -1.000523
      19A     -0.946077    20A     -0.833231    21A     -0.770591
      22A     -0.769208    23A     -0.719969    24A     -0.645909
      25A     -0.641773    26A     -0.626353    27A     -0.579174
      28A     -0.572340    29A     -0.556587    30A     -0.552611
      31A     -0.533490    32A     -0.511698    33A     -0.486047
      34A     -0.436854    35A     -0.400416    36A     -0.357374
      37A     -0.335999

  @DF-RHF Final Energy:  -758.26551390287136

   => Energetics <=

    Nuclear Repulsion Energy =            499.8603666091518676
    One-Electron Energy =               -2032.3959225005028202
    Two-Electron Energy =                 774.2700419884795338
    Total Energy =                       -758.2655139028713620
  Basis Set: (AUG-CC-PVTZ AUX)
    Blend: AUG-CC-PVTZ-RI
    Molecular point group: c1

    Geometry (in Angstrom), charge = 0, multiplicity = 1:

       Center              X                  Y                   Z               Mass
    ------------   -----------------  -----------------  -----------------  -----------------
         S           -1.424751327119    -1.063014216322     0.147656839142    31.972071174400
         O            1.529416672881    -1.415921216322    -0.350862160858    15.994914619570
         N            2.092107672881     0.757112783678     0.097921839142    14.003074004430
         C           -0.230229327119     0.159895783678    -0.055237160858    12.000000000000
         C            1.191308672881    -0.251262216322    -0.111861160858    12.000000000000
         C           -0.799762727119     1.425151483678    -0.086216060858    12.000000000000
         C           -2.216641327119     1.372962783678    -0.096634160858    12.000000000000
         C           -2.690909327119     0.090921783678     0.089237839142    12.000000000000
         C            3.511047672881     0.448412783678     0.161080839142    12.000000000000
         H           -0.234418327119     2.316998783678    -0.376122160858     1.007825032230
         H            1.761467672881     1.584730783678     0.576287839142     1.007825032230
         H           -2.861265327119     2.242168783678    -0.177127160858     1.007825032230
         H           -3.720947327119    -0.227744216322     0.192255839142     1.007825032230
         H            3.756669672881    -0.218477216322    -0.664698160858     1.007825032230
         H            3.785057672881    -0.048754216322     1.097963839142     1.007825032230
         H            4.077729672881     1.375520783678     0.061351839142     1.007825032230

  Basis Set: AUG-CC-PVTZ
    Blend: AUG-CC-PVTZ
  Basis Set: (AUG-CC-PVTZ AUX)
    Blend: AUG-CC-PVTZ-JKFIT
	 Reference Energy          =    -758.2655139028713620 [Eh]
	 Singles Energy            =      -0.0000000000000000 [Eh]
	 Same-Spin Energy          =      -0.4437426481352627 [Eh]
	 Opposite-Spin Energy      =      -1.3482746339438614 [Eh]
	 Correlation Energy        =      -1.7920172820791240 [Eh]
	 Total Energy              =    -760.0575311849504487 [Eh]

	 ================> DF-SCS-MP2 Energies <==================
	-----------------------------------------------------------
	 SCS Same-Spin Scale       =       0.3333333333333333 [-]
	 SCS Opposite-Spin Scale   =       1.2000000000000000 [-]
	 SCS Same-Spin Energy      =      -0.1479142160450875 [Eh]
	 SCS Opposite-Spin Energy  =      -1.6179295607326336 [Eh]
	 SCS Correlation Energy    =      -1.7658437767777211 [Eh]
	 SCS Total Energy          =    -760.0313576796490906 [Eh]
	-----------------------------------------------------------

  Dipole Moment: [D]
     X:    -0.3614      Y:     3.5740      Z:     1.0229     Total:     3.7350

*** Psi4 exiting successfully. Buy a developer a beer!
