                               Psi4 1.3.2 release

  ==> Input File <==

--------------------------------------------------------------------------
#psi4
#
memory 32 gb

molecule  {
0 1
  S       -1.4679970    -1.1088850     0.1509200
  O        1.4861710    -1.4617920    -0.3475990
  N        2.0488620     0.7112420     0.1011850
  C       -0.2734750     0.1140250    -0.0519740
  C        1.1480630    -0.2971330    -0.1085980
  C       -0.8491840     1.3674970    -0.1820640
  C       -2.2598870     1.3270920    -0.0933710
  C       -2.7341550     0.0450510     0.0925010
  C        3.4678020     0.4025420     0.1643440
  H       -0.2776640     2.2711280    -0.3728590
  H        1.7182220     1.5388600     0.5795510
  H       -2.9045110     2.1962980    -0.1738640
  H       -3.7516295    -0.2496582     0.3936811
  H        3.7134240    -0.2643480    -0.6614350
  H        3.7418120    -0.0946250     1.1012270
  H        4.0344840     1.3296500     0.0646150
units angstrom
no_reorient  #important for SAPT in psi4, default
symmetry c1  #important for SAPT in psi4, default
}

set PROPERTIES_ORIGIN ["COM"]
properties('MP2/aug-cc-pvtz', properties = ['dipole'])
--------------------------------------------------------------------------

    Molecular point group: c1
  Charge       = 0
  Multiplicity = 1
  Basis Set: AUG-CC-PVTZ
    Blend: AUG-CC-PVTZ
  Basis Set: (AUG-CC-PVTZ AUX)
    Blend: AUG-CC-PVTZ-JKFIT

    Orbital Energies [Eh]
    ---------------------

    Doubly Occupied:

       1A    -91.996210     2A    -20.523504     3A    -15.590985
       4A    -11.362838     5A    -11.280446     6A    -11.277374
       7A    -11.262893     8A    -11.261843     9A    -11.251384
      10A     -8.995955    11A     -6.676786    12A     -6.676223
      13A     -6.675556    14A     -1.378244    15A     -1.233476
      16A     -1.184351    17A     -1.020349    18A     -1.000942
      19A     -0.946086    20A     -0.832943    21A     -0.769798
      22A     -0.768370    23A     -0.721575    24A     -0.645625
      25A     -0.641703    26A     -0.626055    27A     -0.579535
      28A     -0.573463    29A     -0.558569    30A     -0.552223
      31A     -0.529989    32A     -0.512092    33A     -0.486316
      34A     -0.436913    35A     -0.400507    36A     -0.357126
      37A     -0.335944

  @DF-RHF Final Energy:  -758.26628315438347

   => Energetics <=

    Nuclear Repulsion Energy =            499.8693743428267453
    One-Electron Energy =               -2032.4229303759591403
    Two-Electron Energy =                 774.2872728787488086
    Total Energy =                       -758.2662831543834727
  Basis Set: (AUG-CC-PVTZ AUX)
    Blend: AUG-CC-PVTZ-RI
    Molecular point group: c1

    Geometry (in Angstrom), charge = 0, multiplicity = 1:

       Center              X                  Y                   Z               Mass
    ------------   -----------------  -----------------  -----------------  -----------------
         S           -1.424315620953    -1.062182730597     0.154674188073    31.972071174400
         O            1.529852379047    -1.415089730597    -0.343844811927    15.994914619570
         N            2.092543379047     0.757944269403     0.104939188073    14.003074004430
         C           -0.229793620953     0.160727269403    -0.048219811927    12.000000000000
         C            1.191744379047    -0.250430730597    -0.104843811927    12.000000000000
         C           -0.805502620953     1.414199269403    -0.178309811927    12.000000000000
         C           -2.216205620953     1.373794269403    -0.089616811927    12.000000000000
         C           -2.690473620953     0.091753269403     0.096255188073    12.000000000000
         C            3.511483379047     0.449244269403     0.168098188073    12.000000000000
         H           -0.233982620953     2.317830269403    -0.369104811927     1.007825032230
         H            1.761903379047     1.585562269403     0.583305188073     1.007825032230
         H           -2.860829620953     2.243000269403    -0.170109811927     1.007825032230
         H           -3.707948120953    -0.202955930597     0.397435288073     1.007825032230
         H            3.757105379047    -0.217645730597    -0.657680811927     1.007825032230
         H            3.785493379047    -0.047922730597     1.104981188073     1.007825032230
         H            4.078165379047     1.376352269403     0.068369188073     1.007825032230

  Basis Set: AUG-CC-PVTZ
    Blend: AUG-CC-PVTZ
  Basis Set: (AUG-CC-PVTZ AUX)
    Blend: AUG-CC-PVTZ-JKFIT
	 Reference Energy          =    -758.2662831543834727 [Eh]
	 Singles Energy            =      -0.0000000000000000 [Eh]
	 Same-Spin Energy          =      -0.4436636943699637 [Eh]
	 Opposite-Spin Energy      =      -1.3481178968853986 [Eh]
	 Correlation Energy        =      -1.7917815912553623 [Eh]
	 Total Energy              =    -760.0580647456388306 [Eh]

	 ================> DF-SCS-MP2 Energies <==================
	-----------------------------------------------------------
	 SCS Same-Spin Scale       =       0.3333333333333333 [-]
	 SCS Opposite-Spin Scale   =       1.2000000000000000 [-]
	 SCS Same-Spin Energy      =      -0.1478878981233212 [Eh]
	 SCS Opposite-Spin Energy  =      -1.6177414762624782 [Eh]
	 SCS Correlation Energy    =      -1.7656293743857994 [Eh]
	 SCS Total Energy          =    -760.0319125287692259 [Eh]
	-----------------------------------------------------------

  Dipole Moment: [D]
     X:    -0.2923      Y:     3.6476      Z:     1.2368     Total:     3.8626

*** Psi4 exiting successfully. Buy a developer a beer!
