                               Psi4 1.3.2 release

  ==> Input File <==

--------------------------------------------------------------------------
#psi4
#
memory 32 gb

molecule  {
0 1
  S       -1.4679970    -1.1088850     0.1509200
  O        1.4861710    -1.4617920    -0.3475990
  N        2.0488620     0.7112420     0.1011850
  C       -0.2734750     0.1140250    -0.0519740
  C        1.1480630    -0.2971330    -0.1085980
  C       -0.8460962     1.3733888    -0.1325085
  C       -2.2598870     1.3270920    -0.0933710
  C       -2.7341550     0.0450510     0.0925010
  C        3.4678020     0.4025420     0.1643440
  H       -0.2776640     2.2711280    -0.3728590
  H        1.7182220     1.5388600     0.5795510
  H       -2.9045110     2.1962980    -0.1738640
  H       -3.7641930    -0.2736150     0.1955190
  H        3.7134240    -0.2643480    -0.6614350
  H        3.7418120    -0.0946250     1.1012270
  H        4.0344840     1.3296500     0.0646150
units angstrom
no_reorient  #important for SAPT in psi4, default
symmetry c1  #important for SAPT in psi4, default
}

set PROPERTIES_ORIGIN ["COM"]
properties('MP2/aug-cc-pvtz', properties = ['dipole'])
--------------------------------------------------------------------------

    Molecular point group: c1
  Charge       = 0
  Multiplicity = 1
  Basis Set: AUG-CC-PVTZ
    Blend: AUG-CC-PVTZ
  Basis Set: (AUG-CC-PVTZ AUX)
    Blend: AUG-CC-PVTZ-JKFIT

    Orbital Energies [Eh]
    ---------------------

    Doubly Occupied:

       1A    -91.996431     2A    -20.523489     3A    -15.590702
       4A    -11.362735     5A    -11.279209     6A    -11.277327
       7A    -11.262969     8A    -11.261661     9A    -11.251142
      10A     -8.996158    11A     -6.676990    12A     -6.676437
      13A     -6.675766    14A     -1.378177    15A     -1.233280
      16A     -1.184235    17A     -1.020626    18A     -1.000823
      19A     -0.946172    20A     -0.833136    21A     -0.770988
      22A     -0.769240    23A     -0.721320    24A     -0.646095
      25A     -0.641754    26A     -0.626119    27A     -0.579375
      28A     -0.573125    29A     -0.557265    30A     -0.552764
      31A     -0.533354    32A     -0.511635    33A     -0.486241
      34A     -0.436744    35A     -0.400352    36A     -0.357190
      37A     -0.336016

  @DF-RHF Final Energy:  -758.26781054062201

   => Energetics <=

    Nuclear Repulsion Energy =            499.9295536354134128
    One-Electron Energy =               -2032.5406498262273089
    Two-Electron Energy =                 774.3432856501918877
    Total Energy =                       -758.2678105406220084
  Basis Set: (AUG-CC-PVTZ AUX)
    Blend: AUG-CC-PVTZ-RI
    Molecular point group: c1

    Geometry (in Angstrom), charge = 0, multiplicity = 1:

       Center              X                  Y                   Z               Mass
    ------------   -----------------  -----------------  -----------------  -----------------
         S           -1.424488581909    -1.062512866330     0.151873594297    31.972071174400
         O            1.529679418091    -1.415419866330    -0.346645405703    15.994914619570
         N            2.092370418091     0.757614133670     0.102138594297    14.003074004430
         C           -0.229966581909     0.160397133670    -0.051020405703    12.000000000000
         C            1.191571418091    -0.250760866330    -0.107644405703    12.000000000000
         C           -0.802587781909     1.419760933670    -0.131554905703    12.000000000000
         C           -2.216378581909     1.373464133670    -0.092417405703    12.000000000000
         C           -2.690646581909     0.091423133670     0.093454594297    12.000000000000
         C            3.511310418091     0.448914133670     0.165297594297    12.000000000000
         H           -0.234155581909     2.317500133670    -0.371905405703     1.007825032230
         H            1.761730418091     1.585232133670     0.580504594297     1.007825032230
         H           -2.861002581909     2.242670133670    -0.172910405703     1.007825032230
         H           -3.720684581909    -0.227242866330     0.196472594297     1.007825032230
         H            3.756932418091    -0.217975866330    -0.660481405703     1.007825032230
         H            3.785320418091    -0.048252866330     1.102180594297     1.007825032230
         H            4.077992418091     1.376022133670     0.065568594297     1.007825032230

  Basis Set: AUG-CC-PVTZ
    Blend: AUG-CC-PVTZ
  Basis Set: (AUG-CC-PVTZ AUX)
    Blend: AUG-CC-PVTZ-JKFIT
	 Reference Energy          =    -758.2678105406220084 [Eh]
	 Singles Energy            =      -0.0000000000000000 [Eh]
	 Same-Spin Energy          =      -0.4435649512219507 [Eh]
	 Opposite-Spin Energy      =      -1.3479009695259445 [Eh]
	 Correlation Energy        =      -1.7914659207478951 [Eh]
	 Total Energy              =    -760.0592764613699046 [Eh]

	 ================> DF-SCS-MP2 Energies <==================
	-----------------------------------------------------------
	 SCS Same-Spin Scale       =       0.3333333333333333 [-]
	 SCS Opposite-Spin Scale   =       1.2000000000000000 [-]
	 SCS Same-Spin Energy      =      -0.1478549837406502 [Eh]
	 SCS Opposite-Spin Energy  =      -1.6174811634311335 [Eh]
	 SCS Correlation Energy    =      -1.7653361471717837 [Eh]
	 SCS Total Energy          =    -760.0331466877937601 [Eh]
	-----------------------------------------------------------

  Dipole Moment: [D]
     X:    -0.3441      Y:     3.6004      Z:     1.0521     Total:     3.7667

*** Psi4 exiting successfully. Buy a developer a beer!
