                               Psi4 1.3.2 release

  ==> Input File <==

--------------------------------------------------------------------------
#psi4
#
memory 32 gb

molecule  {
0 1
  S       -1.4679970    -1.1088850     0.1509200
  O        1.4861710    -1.4617920    -0.3475990
  N        2.0488620     0.7112420     0.1011850
  C       -0.2741490     0.1040806    -0.0029775
  C        1.1480630    -0.2971330    -0.1085980
  C       -0.8491840     1.3674970    -0.1820640
  C       -2.2598870     1.3270920    -0.0933710
  C       -2.7341550     0.0450510     0.0925010
  C        3.4678020     0.4025420     0.1643440
  H       -0.2776640     2.2711280    -0.3728590
  H        1.7182220     1.5388600     0.5795510
  H       -2.9045110     2.1962980    -0.1738640
  H       -3.7641930    -0.2736150     0.1955190
  H        3.7134240    -0.2643480    -0.6614350
  H        3.7418120    -0.0946250     1.1012270
  H        4.0344840     1.3296500     0.0646150
units angstrom
no_reorient  #important for SAPT in psi4, default
symmetry c1  #important for SAPT in psi4, default
}

set PROPERTIES_ORIGIN ["COM"]
properties('MP2/aug-cc-pvtz', properties = ['dipole'])
--------------------------------------------------------------------------

    Molecular point group: c1
  Charge       = 0
  Multiplicity = 1
  Basis Set: AUG-CC-PVTZ
    Blend: AUG-CC-PVTZ
  Basis Set: (AUG-CC-PVTZ AUX)
    Blend: AUG-CC-PVTZ-JKFIT

    Orbital Energies [Eh]
    ---------------------

    Doubly Occupied:

       1A    -91.997148     2A    -20.522901     3A    -15.590354
       4A    -11.362395     5A    -11.279141     6A    -11.277225
       7A    -11.264290     8A    -11.261521     9A    -11.251196
      10A     -8.997027    11A     -6.677863    12A     -6.677329
      13A     -6.676642    14A     -1.377733    15A     -1.232888
      16A     -1.184377    17A     -1.020019    18A     -1.001506
      19A     -0.945695    20A     -0.832695    21A     -0.770489
      22A     -0.769126    23A     -0.721471    24A     -0.645947
      25A     -0.641494    26A     -0.625675    27A     -0.578759
      28A     -0.573270    29A     -0.557937    30A     -0.552619
      31A     -0.534421    32A     -0.511802    33A     -0.486928
      34A     -0.436562    35A     -0.399857    36A     -0.356748
      37A     -0.334979

  @DF-RHF Final Energy:  -758.26714133475161

   => Energetics <=

    Nuclear Repulsion Energy =            499.9901039653116186
    One-Electron Energy =               -2032.6584332705883753
    Two-Electron Energy =                 774.4011879705251431
    Total Energy =                       -758.2671413347516136
  Basis Set: (AUG-CC-PVTZ AUX)
    Blend: AUG-CC-PVTZ-RI
    Molecular point group: c1

    Geometry (in Angstrom), charge = 0, multiplicity = 1:

       Center              X                  Y                   Z               Mass
    ------------   -----------------  -----------------  -----------------  -----------------
         S           -1.424168485097    -1.061165341974     0.151921160387    31.972071174400
         O            1.529999514903    -1.414072341974    -0.346597839613    15.994914619570
         N            2.092690514903     0.758961658026     0.102186160387    14.003074004430
         C           -0.230320485097     0.151800258026    -0.001976339613    12.000000000000
         C            1.191891514903    -0.249413341974    -0.107596839613    12.000000000000
         C           -0.805355485097     1.415216658026    -0.181062839613    12.000000000000
         C           -2.216058485097     1.374811658026    -0.092369839613    12.000000000000
         C           -2.690326485097     0.092770658026     0.093502160387    12.000000000000
         C            3.511630514903     0.450261658026     0.165345160387    12.000000000000
         H           -0.233835485097     2.318847658026    -0.371857839613     1.007825032230
         H            1.762050514903     1.586579658026     0.580552160387     1.007825032230
         H           -2.860682485097     2.244017658026    -0.172862839613     1.007825032230
         H           -3.720364485097    -0.225895341974     0.196520160387     1.007825032230
         H            3.757252514903    -0.216628341974    -0.660433839613     1.007825032230
         H            3.785640514903    -0.046905341974     1.102228160387     1.007825032230
         H            4.078312514903     1.377369658026     0.065616160387     1.007825032230

  Basis Set: AUG-CC-PVTZ
    Blend: AUG-CC-PVTZ
  Basis Set: (AUG-CC-PVTZ AUX)
    Blend: AUG-CC-PVTZ-JKFIT
	 Reference Energy          =    -758.2671413347516136 [Eh]
	 Singles Energy            =      -0.0000000000000000 [Eh]
	 Same-Spin Energy          =      -0.4438010208984370 [Eh]
	 Opposite-Spin Energy      =      -1.3480503206868917 [Eh]
	 Correlation Energy        =      -1.7918513415853288 [Eh]
	 Total Energy              =    -760.0589926763369704 [Eh]

	 ================> DF-SCS-MP2 Energies <==================
	-----------------------------------------------------------
	 SCS Same-Spin Scale       =       0.3333333333333333 [-]
	 SCS Opposite-Spin Scale   =       1.2000000000000000 [-]
	 SCS Same-Spin Energy      =      -0.1479336736328123 [Eh]
	 SCS Opposite-Spin Energy  =      -1.6176603848242699 [Eh]
	 SCS Correlation Energy    =      -1.7655940584570822 [Eh]
	 SCS Total Energy          =    -760.0327353932086680 [Eh]
	-----------------------------------------------------------

  Dipole Moment: [D]
     X:    -0.3581      Y:     3.5949      Z:     1.0552     Total:     3.7636

*** Psi4 exiting successfully. Buy a developer a beer!
