                               Psi4 1.3.2 release

  ==> Input File <==

--------------------------------------------------------------------------
#psi4
#
memory 32 gb

molecule  {
0 1
  S       -1.4679970    -1.1088850     0.1509200
  O        1.4861710    -1.4617920    -0.3475990
  N        2.0488620     0.7112420     0.1011850
  C       -0.2734750     0.1140250    -0.0519740
  C        1.1480630    -0.2971330    -0.1085980
  C       -0.8491840     1.3674970    -0.1820640
  C       -2.2598870     1.3270920    -0.0933710
  C       -2.7341550     0.0450510     0.0925010
  C        3.4678020     0.4025420     0.1643440
  H       -0.2776640     2.2711280    -0.3728590
  H        1.7182220     1.5388600     0.5795510
  H       -2.9210593     2.1581997    -0.4709745
  H       -3.7641930    -0.2736150     0.1955190
  H        3.7134240    -0.2643480    -0.6614350
  H        3.7418120    -0.0946250     1.1012270
  H        4.0344840     1.3296500     0.0646150
units angstrom
no_reorient  #important for SAPT in psi4, default
symmetry c1  #important for SAPT in psi4, default
}

set PROPERTIES_ORIGIN ["COM"]
properties('MP2/aug-cc-pvtz', properties = ['dipole'])
--------------------------------------------------------------------------

    Molecular point group: c1
  Charge       = 0
  Multiplicity = 1
  Basis Set: AUG-CC-PVTZ
    Blend: AUG-CC-PVTZ
  Basis Set: (AUG-CC-PVTZ AUX)
    Blend: AUG-CC-PVTZ-JKFIT

    Orbital Energies [Eh]
    ---------------------

    Doubly Occupied:

       1A    -91.997121     2A    -20.523653     3A    -15.590984
       4A    -11.362943     5A    -11.280614     6A    -11.277127
       7A    -11.263220     8A    -11.261818     9A    -11.254191
      10A     -8.996838    11A     -6.677661    12A     -6.677112
      13A     -6.676439    14A     -1.378370    15A     -1.233480
      16A     -1.184690    17A     -1.020423    18A     -1.000559
      19A     -0.946258    20A     -0.832931    21A     -0.769682
      22A     -0.768005    23A     -0.720018    24A     -0.646334
      25A     -0.638517    26A     -0.625423    27A     -0.577600
      28A     -0.573847    29A     -0.559795    30A     -0.552668
      31A     -0.528650    32A     -0.512952    33A     -0.485756
      34A     -0.436424    35A     -0.400512    36A     -0.357269
      37A     -0.336123

  @DF-RHF Final Energy:  -758.26253965587375

   => Energetics <=

    Nuclear Repulsion Energy =            499.7825400078046414
    One-Electron Energy =               -2032.2381474229164269
    Two-Electron Energy =                 774.1930677592381471
    Total Energy =                       -758.2625396558737521
  Basis Set: (AUG-CC-PVTZ AUX)
    Blend: AUG-CC-PVTZ-RI
    Molecular point group: c1

    Geometry (in Angstrom), charge = 0, multiplicity = 1:

       Center              X                  Y                   Z               Mass
    ------------   -----------------  -----------------  -----------------  -----------------
         S           -1.424107575322    -1.061739257763     0.158213622272    31.972071174400
         O            1.530060424678    -1.414646257763    -0.340305377728    15.994914619570
         N            2.092751424678     0.758387742237     0.108478622272    14.003074004430
         C           -0.229585575322     0.161170742237    -0.044680377728    12.000000000000
         C            1.191952424678    -0.249987257763    -0.101304377728    12.000000000000
         C           -0.805294575322     1.414642742237    -0.174770377728    12.000000000000
         C           -2.215997575322     1.374237742237    -0.086077377728    12.000000000000
         C           -2.690265575322     0.092196742237     0.099794622272    12.000000000000
         C            3.511691424678     0.449687742237     0.171637622272    12.000000000000
         H           -0.233774575322     2.318273742237    -0.365565377728     1.007825032230
         H            1.762111424678     1.586005742237     0.586844622272     1.007825032230
         H           -2.877169875322     2.205345442237    -0.463680877728     1.007825032230
         H           -3.720303575322    -0.226469257763     0.202812622272     1.007825032230
         H            3.757313424678    -0.217202257763    -0.654141377728     1.007825032230
         H            3.785701424678    -0.047479257763     1.108520622272     1.007825032230
         H            4.078373424678     1.376795742237     0.071908622272     1.007825032230

  Basis Set: AUG-CC-PVTZ
    Blend: AUG-CC-PVTZ
  Basis Set: (AUG-CC-PVTZ AUX)
    Blend: AUG-CC-PVTZ-JKFIT
	 Reference Energy          =    -758.2625396558737521 [Eh]
	 Singles Energy            =      -0.0000000000000000 [Eh]
	 Same-Spin Energy          =      -0.4437830895170273 [Eh]
	 Opposite-Spin Energy      =      -1.3484534825188677 [Eh]
	 Correlation Energy        =      -1.7922365720358950 [Eh]
	 Total Energy              =    -760.0547762279096560 [Eh]

	 ================> DF-SCS-MP2 Energies <==================
	-----------------------------------------------------------
	 SCS Same-Spin Scale       =       0.3333333333333333 [-]
	 SCS Opposite-Spin Scale   =       1.2000000000000000 [-]
	 SCS Same-Spin Energy      =      -0.1479276965056758 [Eh]
	 SCS Opposite-Spin Energy  =      -1.6181441790226412 [Eh]
	 SCS Correlation Energy    =      -1.7660718755283169 [Eh]
	 SCS Total Energy          =    -760.0286115314020208 [Eh]
	-----------------------------------------------------------

  Dipole Moment: [D]
     X:    -0.2900      Y:     3.5220      Z:     0.8638     Total:     3.6379

*** Psi4 exiting successfully. Buy a developer a beer!
