                               Psi4 1.3.2 release

  ==> Input File <==

--------------------------------------------------------------------------
#psi4
#
memory 32 gb

molecule  {
0 1
  S       -1.4679970    -1.1088850     0.1509200
  O        1.4861710    -1.4617920    -0.3475990
  N        2.0488620     0.7112420     0.1011850
  C       -0.2761710     0.0742473     0.1440119
  C        1.1480630    -0.2971330    -0.1085980
  C       -0.8491840     1.3674970    -0.1820640
  C       -2.2598870     1.3270920    -0.0933710
  C       -2.7341550     0.0450510     0.0925010
  C        3.4678020     0.4025420     0.1643440
  H       -0.2776640     2.2711280    -0.3728590
  H        1.7182220     1.5388600     0.5795510
  H       -2.9045110     2.1962980    -0.1738640
  H       -3.7641930    -0.2736150     0.1955190
  H        3.7134240    -0.2643480    -0.6614350
  H        3.7418120    -0.0946250     1.1012270
  H        4.0344840     1.3296500     0.0646150
units angstrom
no_reorient  #important for SAPT in psi4, default
symmetry c1  #important for SAPT in psi4, default
}

set PROPERTIES_ORIGIN ["COM"]
properties('MP2/aug-cc-pvtz', properties = ['dipole'])
--------------------------------------------------------------------------

    Molecular point group: c1
  Charge       = 0
  Multiplicity = 1
  Basis Set: AUG-CC-PVTZ
    Blend: AUG-CC-PVTZ
  Basis Set: (AUG-CC-PVTZ AUX)
    Blend: AUG-CC-PVTZ-JKFIT

    Orbital Energies [Eh]
    ---------------------

    Doubly Occupied:

       1A    -91.999845     2A    -20.521315     3A    -15.588700
       4A    -11.362046     5A    -11.280197     6A    -11.279639
       7A    -11.270710     8A    -11.260847     9A    -11.252640
      10A     -9.000095    11A     -6.680936    12A     -6.680410
      13A     -6.679717    14A     -1.376182    15A     -1.231289
      16A     -1.184137    17A     -1.019320    18A     -1.000801
      19A     -0.943545    20A     -0.829840    21A     -0.769088
      22A     -0.767195    23A     -0.718944    24A     -0.645023
      25A     -0.640931    26A     -0.624744    27A     -0.577071
      28A     -0.573040    29A     -0.557377    30A     -0.551394
      31A     -0.536755    32A     -0.510863    33A     -0.487160
      34A     -0.434689    35A     -0.398177    36A     -0.357395
      37A     -0.330837

  @DF-RHF Final Energy:  -758.25349358355356

   => Energetics <=

    Nuclear Repulsion Energy =            499.7475185170128498
    One-Electron Energy =               -2032.1562322890529231
    Two-Electron Energy =                 774.1552201884865099
    Total Energy =                       -758.2534935835535634
  Basis Set: (AUG-CC-PVTZ AUX)
    Blend: AUG-CC-PVTZ-RI
    Molecular point group: c1

    Geometry (in Angstrom), charge = 0, multiplicity = 1:

       Center              X                  Y                   Z               Mass
    ------------   -----------------  -----------------  -----------------  -----------------
         S           -1.423996430296    -1.058626784847     0.139413627230    31.972071174400
         O            1.530171569704    -1.411533784847    -0.359105372770    15.994914619570
         N            2.092862569704     0.761500215153     0.089678627230    14.003074004430
         C           -0.232170430296     0.124505515153     0.132505527230    12.000000000000
         C            1.192063569704    -0.246874784847    -0.120104372770    12.000000000000
         C           -0.805183430296     1.417755215153    -0.193570372770    12.000000000000
         C           -2.215886430296     1.377350215153    -0.104877372770    12.000000000000
         C           -2.690154430296     0.095309215153     0.080994627230    12.000000000000
         C            3.511802569704     0.452800215153     0.152837627230    12.000000000000
         H           -0.233663430296     2.321386215153    -0.384365372770     1.007825032230
         H            1.762222569704     1.589118215153     0.568044627230     1.007825032230
         H           -2.860510430296     2.246556215153    -0.185370372770     1.007825032230
         H           -3.720192430296    -0.223356784847     0.184012627230     1.007825032230
         H            3.757424569704    -0.214089784847    -0.672941372770     1.007825032230
         H            3.785812569704    -0.044366784847     1.089720627230     1.007825032230
         H            4.078484569704     1.379908215153     0.053108627230     1.007825032230

  Basis Set: AUG-CC-PVTZ
    Blend: AUG-CC-PVTZ
  Basis Set: (AUG-CC-PVTZ AUX)
    Blend: AUG-CC-PVTZ-JKFIT
	 Reference Energy          =    -758.2534935835535634 [Eh]
	 Singles Energy            =      -0.0000000000000000 [Eh]
	 Same-Spin Energy          =      -0.4450663887732170 [Eh]
	 Opposite-Spin Energy      =      -1.3498625671119995 [Eh]
	 Correlation Energy        =      -1.7949289558852164 [Eh]
	 Total Energy              =    -760.0484225394387749 [Eh]

	 ================> DF-SCS-MP2 Energies <==================
	-----------------------------------------------------------
	 SCS Same-Spin Scale       =       0.3333333333333333 [-]
	 SCS Opposite-Spin Scale   =       1.2000000000000000 [-]
	 SCS Same-Spin Energy      =      -0.1483554629244057 [Eh]
	 SCS Opposite-Spin Energy  =      -1.6198350805343993 [Eh]
	 SCS Correlation Energy    =      -1.7681905434588050 [Eh]
	 SCS Total Energy          =    -760.0216841270123496 [Eh]
	-----------------------------------------------------------

  Dipole Moment: [D]
     X:    -0.4524      Y:     3.5501      Z:     0.9674     Total:     3.7073

*** Psi4 exiting successfully. Buy a developer a beer!
