                               Psi4 1.3.2 release

  ==> Input File <==

--------------------------------------------------------------------------
#psi4
#
memory 32 gb

molecule  {
0 1
  S       -1.4679970    -1.1088850     0.1509200
  O        1.4861710    -1.4617920    -0.3475990
  N        2.0488620     0.7112420     0.1011850
  C       -0.2734750     0.1140250    -0.0519740
  C        1.1480630    -0.2971330    -0.1085980
  C       -0.8368328     1.3910643     0.0161582
  C       -2.2598870     1.3270920    -0.0933710
  C       -2.7341550     0.0450510     0.0925010
  C        3.4678020     0.4025420     0.1643440
  H       -0.2776640     2.2711280    -0.3728590
  H        1.7182220     1.5388600     0.5795510
  H       -2.9045110     2.1962980    -0.1738640
  H       -3.7641930    -0.2736150     0.1955190
  H        3.7134240    -0.2643480    -0.6614350
  H        3.7418120    -0.0946250     1.1012270
  H        4.0344840     1.3296500     0.0646150
units angstrom
no_reorient  #important for SAPT in psi4, default
symmetry c1  #important for SAPT in psi4, default
}

set PROPERTIES_ORIGIN ["COM"]
properties('MP2/aug-cc-pvtz', properties = ['dipole'])
--------------------------------------------------------------------------

    Molecular point group: c1
  Charge       = 0
  Multiplicity = 1
  Basis Set: AUG-CC-PVTZ
    Blend: AUG-CC-PVTZ
  Basis Set: (AUG-CC-PVTZ AUX)
    Blend: AUG-CC-PVTZ-JKFIT

    Orbital Energies [Eh]
    ---------------------

    Doubly Occupied:

       1A    -91.998013     2A    -20.524488     3A    -15.590664
       4A    -11.363461     5A    -11.282303     6A    -11.278755
       7A    -11.265942     8A    -11.261736     9A    -11.253523
      10A     -8.997734    11A     -6.678553    12A     -6.677995
      13A     -6.677345    14A     -1.379009    15A     -1.233498
      16A     -1.183004    17A     -1.020656    18A     -0.999257
      19A     -0.945830    20A     -0.833568    21A     -0.769328
      22A     -0.768924    23A     -0.715349    24A     -0.645679
      25A     -0.641617    26A     -0.626916    27A     -0.578490
      28A     -0.569452    29A     -0.554975    30A     -0.551791
      31A     -0.533476    32A     -0.511740    33A     -0.485070
      34A     -0.437406    35A     -0.400677    36A     -0.357771
      37A     -0.335665

  @DF-RHF Final Energy:  -758.25622752533206

   => Energetics <=

    Nuclear Repulsion Energy =            499.5469104479806788
    One-Electron Energy =               -2031.7469522315952872
    Two-Electron Energy =                 773.9438142582824867
    Total Energy =                       -758.2562275253320649
  Basis Set: (AUG-CC-PVTZ AUX)
    Blend: AUG-CC-PVTZ-RI
    Molecular point group: c1

    Geometry (in Angstrom), charge = 0, multiplicity = 1:

       Center              X                  Y                   Z               Mass
    ------------   -----------------  -----------------  -----------------  -----------------
         S           -1.425276817541    -1.064016899289     0.139223337343    31.972071174400
         O            1.528891182459    -1.416923899289    -0.359295662657    15.994914619570
         N            2.091582182459     0.756110100711     0.089488337343    14.003074004430
         C           -0.230754817541     0.158893100711    -0.063670662657    12.000000000000
         C            1.190783182459    -0.252264899289    -0.120294662657    12.000000000000
         C           -0.794112617541     1.435932400711     0.004461537343    12.000000000000
         C           -2.217166817541     1.371960100711    -0.105067662657    12.000000000000
         C           -2.691434817541     0.089919100711     0.080804337343    12.000000000000
         C            3.510522182459     0.447410100711     0.152647337343    12.000000000000
         H           -0.234943817541     2.315996100711    -0.384555662657     1.007825032230
         H            1.760942182459     1.583728100711     0.567854337343     1.007825032230
         H           -2.861790817541     2.241166100711    -0.185560662657     1.007825032230
         H           -3.721472817541    -0.228746899289     0.183822337343     1.007825032230
         H            3.756144182459    -0.219479899289    -0.673131662657     1.007825032230
         H            3.784532182459    -0.049756899289     1.089530337343     1.007825032230
         H            4.077204182459     1.374518100711     0.052918337343     1.007825032230

  Basis Set: AUG-CC-PVTZ
    Blend: AUG-CC-PVTZ
  Basis Set: (AUG-CC-PVTZ AUX)
    Blend: AUG-CC-PVTZ-JKFIT
	 Reference Energy          =    -758.2562275253320649 [Eh]
	 Singles Energy            =      -0.0000000000000000 [Eh]
	 Same-Spin Energy          =      -0.4443775878187473 [Eh]
	 Opposite-Spin Energy      =      -1.3498064831710619 [Eh]
	 Correlation Energy        =      -1.7941840709898091 [Eh]
	 Total Energy              =    -760.0504115963218510 [Eh]

	 ================> DF-SCS-MP2 Energies <==================
	-----------------------------------------------------------
	 SCS Same-Spin Scale       =       0.3333333333333333 [-]
	 SCS Opposite-Spin Scale   =       1.2000000000000000 [-]
	 SCS Same-Spin Energy      =      -0.1481258626062491 [Eh]
	 SCS Opposite-Spin Energy  =      -1.6197677798052743 [Eh]
	 SCS Correlation Energy    =      -1.7678936424115235 [Eh]
	 SCS Total Energy          =    -760.0241211677436013 [Eh]
	-----------------------------------------------------------

  Dipole Moment: [D]
     X:    -0.4019      Y:     3.4889      Z:     0.9650     Total:     3.6421

*** Psi4 exiting successfully. Buy a developer a beer!
