                               Psi4 1.3.2 release

  ==> Input File <==

--------------------------------------------------------------------------
#psi4
#
memory 32 gb

molecule  {
0 1
  S       -1.4679970    -1.1088850     0.1509200
  O        1.4861710    -1.4617920    -0.3475990
  N        2.0488620     0.7112420     0.1011850
  C       -0.2748230     0.0941361     0.0460189
  C        1.1480630    -0.2971330    -0.1085980
  C       -0.8491840     1.3674970    -0.1820640
  C       -2.2598870     1.3270920    -0.0933710
  C       -2.7341550     0.0450510     0.0925010
  C        3.4678020     0.4025420     0.1643440
  H       -0.2776640     2.2711280    -0.3728590
  H        1.7182220     1.5388600     0.5795510
  H       -2.9045110     2.1962980    -0.1738640
  H       -3.7641930    -0.2736150     0.1955190
  H        3.7134240    -0.2643480    -0.6614350
  H        3.7418120    -0.0946250     1.1012270
  H        4.0344840     1.3296500     0.0646150
units angstrom
no_reorient  #important for SAPT in psi4, default
symmetry c1  #important for SAPT in psi4, default
}

set PROPERTIES_ORIGIN ["COM"]
properties('MP2/aug-cc-pvtz', properties = ['dipole'])
--------------------------------------------------------------------------

    Molecular point group: c1
  Charge       = 0
  Multiplicity = 1
  Basis Set: AUG-CC-PVTZ
    Blend: AUG-CC-PVTZ
  Basis Set: (AUG-CC-PVTZ AUX)
    Blend: AUG-CC-PVTZ-JKFIT

    Orbital Energies [Eh]
    ---------------------

    Doubly Occupied:

       1A    -91.998077     2A    -20.522374     3A    -15.589839
       4A    -11.362201     5A    -11.279279     6A    -11.277852
       7A    -11.266156     8A    -11.261316     9A    -11.251602
      10A     -8.998095    11A     -6.678933    12A     -6.678409
      13A     -6.677715    14A     -1.377279    15A     -1.232410
      16A     -1.184421    17A     -1.019624    18A     -1.001716
      19A     -0.945050    20A     -0.832010    21A     -0.769907
      22A     -0.768739    23A     -0.720816    24A     -0.645602
      25A     -0.641312    26A     -0.625404    27A     -0.578041
      28A     -0.573212    29A     -0.557973    30A     -0.552278
      31A     -0.535473    32A     -0.511772    33A     -0.487293
      34A     -0.436155    35A     -0.399340    36A     -0.356748
      37A     -0.333780

  @DF-RHF Final Energy:  -758.26414284449356

   => Energetics <=

    Nuclear Repulsion Energy =            499.9748729550487951
    One-Electron Energy =               -2032.6216270755273854
    Two-Electron Energy =                 774.3826112759850275
    Total Energy =                       -758.2641428444935627
  Basis Set: (AUG-CC-PVTZ AUX)
    Blend: AUG-CC-PVTZ-RI
    Molecular point group: c1

    Geometry (in Angstrom), charge = 0, multiplicity = 1:

       Center              X                  Y                   Z               Mass
    ------------   -----------------  -----------------  -----------------  -----------------
         S           -1.424111133497    -1.060319150592     0.147751988341    31.972071174400
         O            1.530056866503    -1.413226150592    -0.350767011659    15.994914619570
         N            2.092747866503     0.759807849408     0.098016988341    14.003074004430
         C           -0.230937133497     0.142701949408     0.042850888341    12.000000000000
         C            1.191948866503    -0.248567150592    -0.111766011659    12.000000000000
         C           -0.805298133497     1.416062849408    -0.185232011659    12.000000000000
         C           -2.216001133497     1.375657849408    -0.096539011659    12.000000000000
         C           -2.690269133497     0.093616849408     0.089332988341    12.000000000000
         C            3.511687866503     0.451107849408     0.161175988341    12.000000000000
         H           -0.233778133497     2.319693849408    -0.376027011659     1.007825032230
         H            1.762107866503     1.587425849408     0.576382988341     1.007825032230
         H           -2.860625133497     2.244863849408    -0.177032011659     1.007825032230
         H           -3.720307133497    -0.225049150592     0.192350988341     1.007825032230
         H            3.757309866503    -0.215782150592    -0.664603011659     1.007825032230
         H            3.785697866503    -0.046059150592     1.098058988341     1.007825032230
         H            4.078369866503     1.378215849408     0.061446988341     1.007825032230

  Basis Set: AUG-CC-PVTZ
    Blend: AUG-CC-PVTZ
  Basis Set: (AUG-CC-PVTZ AUX)
    Blend: AUG-CC-PVTZ-JKFIT
	 Reference Energy          =    -758.2641428444935627 [Eh]
	 Singles Energy            =      -0.0000000000000000 [Eh]
	 Same-Spin Energy          =      -0.4441708678781467 [Eh]
	 Opposite-Spin Energy      =      -1.3484859639092086 [Eh]
	 Correlation Energy        =      -1.7926568317873552 [Eh]
	 Total Energy              =    -760.0567996762808889 [Eh]

	 ================> DF-SCS-MP2 Energies <==================
	-----------------------------------------------------------
	 SCS Same-Spin Scale       =       0.3333333333333333 [-]
	 SCS Opposite-Spin Scale   =       1.2000000000000000 [-]
	 SCS Same-Spin Energy      =      -0.1480569559593822 [Eh]
	 SCS Opposite-Spin Energy  =      -1.6181831566910503 [Eh]
	 SCS Correlation Energy    =      -1.7662401126504326 [Eh]
	 SCS Total Energy          =    -760.0303829571439564 [Eh]
	-----------------------------------------------------------

  Dipole Moment: [D]
     X:    -0.3888      Y:     3.5772      Z:     1.0271     Total:     3.7420

*** Psi4 exiting successfully. Buy a developer a beer!
