                               Psi4 1.3.2 release

  ==> Input File <==

--------------------------------------------------------------------------
#psi4
#
memory 32 gb

molecule  {
0 1
  S       -1.4679970    -1.1088850     0.1509200
  O        1.4861710    -1.4617920    -0.3475990
  N        2.0488620     0.7112420     0.1011850
  C       -0.2734750     0.1140250    -0.0519740
  C        1.1480630    -0.2971330    -0.1085980
  C       -0.8491840     1.3674970    -0.1820640
  C       -2.2598870     1.3270920    -0.0933710
  C       -2.7341550     0.0450510     0.0925010
  C        3.4678020     0.4025420     0.1643440
  H       -0.2845796     2.2564363    -0.4715318
  H        1.7182220     1.5388600     0.5795510
  H       -2.9045110     2.1962980    -0.1738640
  H       -3.7641930    -0.2736150     0.1955190
  H        3.7134240    -0.2643480    -0.6614350
  H        3.7418120    -0.0946250     1.1012270
  H        4.0344840     1.3296500     0.0646150
units angstrom
no_reorient  #important for SAPT in psi4, default
symmetry c1  #important for SAPT in psi4, default
}

set PROPERTIES_ORIGIN ["COM"]
properties('MP2/aug-cc-pvtz', properties = ['dipole'])
--------------------------------------------------------------------------

    Molecular point group: c1
  Charge       = 0
  Multiplicity = 1
  Basis Set: AUG-CC-PVTZ
    Blend: AUG-CC-PVTZ
  Basis Set: (AUG-CC-PVTZ AUX)
    Blend: AUG-CC-PVTZ-JKFIT

    Orbital Energies [Eh]
    ---------------------

    Doubly Occupied:

       1A    -91.996369     2A    -20.523320     3A    -15.590824
       4A    -11.362617     5A    -11.279173     6A    -11.277063
       7A    -11.262929     8A    -11.261662     9A    -11.250895
      10A     -8.996094    11A     -6.676926    12A     -6.676375
      13A     -6.675700    14A     -1.378072    15A     -1.233232
      16A     -1.184251    17A     -1.020515    18A     -1.000695
      19A     -0.946219    20A     -0.832887    21A     -0.770849
      22A     -0.769223    23A     -0.720707    24A     -0.646343
      25A     -0.641665    26A     -0.625894    27A     -0.579419
      28A     -0.573252    29A     -0.556450    30A     -0.552743
      31A     -0.533974    32A     -0.511200    33A     -0.486175
      34A     -0.436668    35A     -0.400161    36A     -0.357029
      37A     -0.335984

  @DF-RHF Final Energy:  -758.26781563503937

   => Energetics <=

    Nuclear Repulsion Energy =            499.9069484431806814
    One-Electron Energy =               -2032.5024204807282331
    Two-Electron Energy =                 774.3276564025081825
    Total Energy =                       -758.2678156350393692
  Basis Set: (AUG-CC-PVTZ AUX)
    Blend: AUG-CC-PVTZ-RI
    Molecular point group: c1

    Geometry (in Angstrom), charge = 0, multiplicity = 1:

       Center              X                  Y                   Z               Mass
    ------------   -----------------  -----------------  -----------------  -----------------
         S           -1.424176414801    -1.061906531545     0.156795499844    31.972071174400
         O            1.529991585199    -1.414813531545    -0.341723500156    15.994914619570
         N            2.092682585199     0.758220468455     0.107060499844    14.003074004430
         C           -0.229654414801     0.161003468455    -0.046098500156    12.000000000000
         C            1.191883585199    -0.250154531545    -0.102722500156    12.000000000000
         C           -0.805363414801     1.414475468455    -0.176188500156    12.000000000000
         C           -2.216066414801     1.374070468455    -0.087495500156    12.000000000000
         C           -2.690334414801     0.092029468455     0.098376499844    12.000000000000
         C            3.511622585199     0.449520468455     0.170219499844    12.000000000000
         H           -0.240759014801     2.303414768455    -0.465656300156     1.007825032230
         H            1.762042585199     1.585838468455     0.585426499844     1.007825032230
         H           -2.860690414801     2.243276468455    -0.167988500156     1.007825032230
         H           -3.720372414801    -0.226636531545     0.201394499844     1.007825032230
         H            3.757244585199    -0.217369531545    -0.655559500156     1.007825032230
         H            3.785632585199    -0.047646531545     1.107102499844     1.007825032230
         H            4.078304585199     1.376628468455     0.070490499844     1.007825032230

  Basis Set: AUG-CC-PVTZ
    Blend: AUG-CC-PVTZ
  Basis Set: (AUG-CC-PVTZ AUX)
    Blend: AUG-CC-PVTZ-JKFIT
	 Reference Energy          =    -758.2678156350393692 [Eh]
	 Singles Energy            =      -0.0000000000000000 [Eh]
	 Same-Spin Energy          =      -0.4435637345734297 [Eh]
	 Opposite-Spin Energy      =      -1.3478736514129239 [Eh]
	 Correlation Energy        =      -1.7914373859863537 [Eh]
	 Total Energy              =    -760.0592530210257110 [Eh]

	 ================> DF-SCS-MP2 Energies <==================
	-----------------------------------------------------------
	 SCS Same-Spin Scale       =       0.3333333333333333 [-]
	 SCS Opposite-Spin Scale   =       1.2000000000000000 [-]
	 SCS Same-Spin Energy      =      -0.1478545781911432 [Eh]
	 SCS Opposite-Spin Energy  =      -1.6174483816955088 [Eh]
	 SCS Correlation Energy    =      -1.7653029598866521 [Eh]
	 SCS Total Energy          =    -760.0331185949260089 [Eh]
	-----------------------------------------------------------

  Dipole Moment: [D]
     X:    -0.3391      Y:     3.5985      Z:     1.0083     Total:     3.7525

*** Psi4 exiting successfully. Buy a developer a beer!
