                               Psi4 1.3.2 release

  ==> Input File <==

--------------------------------------------------------------------------
#psi4
#
memory 32 gb

molecule  {
0 1
  S       -1.4679970    -1.1088850     0.1509200
  O        1.4861710    -1.4617920    -0.3475990
  N        2.0488620     0.7112420     0.1011850
  C       -0.2734750     0.1140250    -0.0519740
  C        1.1480630    -0.2971330    -0.1085980
  C       -0.8491840     1.3674970    -0.1820640
  C       -2.2598870     1.3270920    -0.0933710
  C       -2.7341550     0.0450510     0.0925010
  C        3.4678020     0.4025420     0.1643440
  H       -0.2776640     2.2711280    -0.3728590
  H        1.7182220     1.5388600     0.5795510
  H       -2.9045110     2.1962980    -0.1738640
  H       -3.7484887    -0.2436691     0.4432217
  H        3.7134240    -0.2643480    -0.6614350
  H        3.7418120    -0.0946250     1.1012270
  H        4.0344840     1.3296500     0.0646150
units angstrom
no_reorient  #important for SAPT in psi4, default
symmetry c1  #important for SAPT in psi4, default
}

set PROPERTIES_ORIGIN ["COM"]
properties('MP2/aug-cc-pvtz', properties = ['dipole'])
--------------------------------------------------------------------------

    Molecular point group: c1
  Charge       = 0
  Multiplicity = 1
  Basis Set: AUG-CC-PVTZ
    Blend: AUG-CC-PVTZ
  Basis Set: (AUG-CC-PVTZ AUX)
    Blend: AUG-CC-PVTZ-JKFIT

    Orbital Energies [Eh]
    ---------------------

    Doubly Occupied:

       1A    -91.996213     2A    -20.523598     3A    -15.591086
       4A    -11.362940     5A    -11.281120     6A    -11.277650
       7A    -11.262967     8A    -11.261918     9A    -11.251655
      10A     -8.995964    11A     -6.676794    12A     -6.676225
      13A     -6.675561    14A     -1.378339    15A     -1.233577
      16A     -1.184413    17A     -1.020257    18A     -1.000955
      19A     -0.946003    20A     -0.832878    21A     -0.769795
      22A     -0.767202    23A     -0.721354    24A     -0.645378
      25A     -0.641706    26A     -0.625993    27A     -0.579562
      28A     -0.573284    29A     -0.558733    30A     -0.552051
      31A     -0.529098    32A     -0.511859    33A     -0.486340
      34A     -0.437020    35A     -0.400599    36A     -0.357181
      37A     -0.335953

  @DF-RHF Final Energy:  -758.26486267878113

   => Energetics <=

    Nuclear Repulsion Energy =            499.8307035229795474
    One-Electron Energy =               -2032.3446845993407806
    Two-Electron Energy =                 774.2491183975801050
    Total Energy =                       -758.2648626787811281
  Basis Set: (AUG-CC-PVTZ AUX)
    Blend: AUG-CC-PVTZ-RI
    Molecular point group: c1

    Geometry (in Angstrom), charge = 0, multiplicity = 1:

       Center              X                  Y                   Z               Mass
    ------------   -----------------  -----------------  -----------------  -----------------
         S           -1.424338066481    -1.062225531320     0.154320149319    31.972071174400
         O            1.529829933519    -1.415132531320    -0.344198850681    15.994914619570
         N            2.092520933519     0.757901468680     0.104585149319    14.003074004430
         C           -0.229816066481     0.160684468680    -0.048573850681    12.000000000000
         C            1.191721933519    -0.250473531320    -0.105197850681    12.000000000000
         C           -0.805525066481     1.414156468680    -0.178663850681    12.000000000000
         C           -2.216228066481     1.373751468680    -0.089970850681    12.000000000000
         C           -2.690496066481     0.091710468680     0.095901149319    12.000000000000
         C            3.511460933519     0.449201468680     0.167744149319    12.000000000000
         H           -0.234005066481     2.317787468680    -0.369458850681     1.007825032230
         H            1.761880933519     1.585519468680     0.582951149319     1.007825032230
         H           -2.860852066481     2.242957468680    -0.170463850681     1.007825032230
         H           -3.704829766481    -0.197009631320     0.446621849319     1.007825032230
         H            3.757082933519    -0.217688531320    -0.658034850681     1.007825032230
         H            3.785470933519    -0.047965531320     1.104627149319     1.007825032230
         H            4.078142933519     1.376309468680     0.068015149319     1.007825032230

  Basis Set: AUG-CC-PVTZ
    Blend: AUG-CC-PVTZ
  Basis Set: (AUG-CC-PVTZ AUX)
    Blend: AUG-CC-PVTZ-JKFIT
	 Reference Energy          =    -758.2648626787811281 [Eh]
	 Singles Energy            =      -0.0000000000000000 [Eh]
	 Same-Spin Energy          =      -0.4437617929061434 [Eh]
	 Opposite-Spin Energy      =      -1.3483312228379518 [Eh]
	 Correlation Energy        =      -1.7920930157440953 [Eh]
	 Total Energy              =    -760.0569556945251861 [Eh]

	 ================> DF-SCS-MP2 Energies <==================
	-----------------------------------------------------------
	 SCS Same-Spin Scale       =       0.3333333333333333 [-]
	 SCS Opposite-Spin Scale   =       1.2000000000000000 [-]
	 SCS Same-Spin Energy      =      -0.1479205976353811 [Eh]
	 SCS Opposite-Spin Energy  =      -1.6179974674055422 [Eh]
	 SCS Correlation Energy    =      -1.7659180650409234 [Eh]
	 SCS Total Energy          =    -760.0307807438221062 [Eh]
	-----------------------------------------------------------

  Dipole Moment: [D]
     X:    -0.2731      Y:     3.6586      Z:     1.2735     Total:     3.8836

*** Psi4 exiting successfully. Buy a developer a beer!
