                               Psi4 1.3.2 release

  ==> Input File <==

--------------------------------------------------------------------------
#psi4
#
memory 32 gb

molecule  {
0 1
  S       -1.4679970    -1.1088850     0.1509200
  O        1.4861710    -1.4617920    -0.3475990
  N        2.0488620     0.7112420     0.1011850
  C       -0.2734750     0.1140250    -0.0519740
  C        1.1480630    -0.2971330    -0.1085980
  C       -0.8491840     1.3674970    -0.1820640
  C       -2.2598870     1.3270920    -0.0933710
  C       -2.7341550     0.0450510     0.0925010
  C        3.4678020     0.4025420     0.1643440
  H       -0.2914953     2.2417445    -0.5702047
  H        1.7182220     1.5388600     0.5795510
  H       -2.9045110     2.1962980    -0.1738640
  H       -3.7641930    -0.2736150     0.1955190
  H        3.7134240    -0.2643480    -0.6614350
  H        3.7418120    -0.0946250     1.1012270
  H        4.0344840     1.3296500     0.0646150
units angstrom
no_reorient  #important for SAPT in psi4, default
symmetry c1  #important for SAPT in psi4, default
}

set PROPERTIES_ORIGIN ["COM"]
properties('MP2/aug-cc-pvtz', properties = ['dipole'])
--------------------------------------------------------------------------

    Molecular point group: c1
  Charge       = 0
  Multiplicity = 1
  Basis Set: AUG-CC-PVTZ
    Blend: AUG-CC-PVTZ
  Basis Set: (AUG-CC-PVTZ AUX)
    Blend: AUG-CC-PVTZ-JKFIT

    Orbital Energies [Eh]
    ---------------------

    Doubly Occupied:

       1A    -91.996702     2A    -20.523294     3A    -15.590812
       4A    -11.362615     5A    -11.279179     6A    -11.277582
       7A    -11.263837     8A    -11.261613     9A    -11.251027
      10A     -8.996420    11A     -6.677248    12A     -6.676698
      13A     -6.676022    14A     -1.378083    15A     -1.233158
      16A     -1.184357    17A     -1.020548    18A     -1.000265
      19A     -0.946160    20A     -0.832619    21A     -0.770400
      22A     -0.769107    23A     -0.718073    24A     -0.646386
      25A     -0.641703    26A     -0.625895    27A     -0.579231
      28A     -0.572873    29A     -0.554749    30A     -0.552434
      31A     -0.534730    32A     -0.510784    33A     -0.485949
      34A     -0.436663    35A     -0.399979    36A     -0.357018
      37A     -0.336111

  @DF-RHF Final Energy:  -758.26571711088798

   => Energetics <=

    Nuclear Repulsion Energy =            499.8385637208563139
    One-Electron Energy =               -2032.3679120899587360
    Two-Electron Energy =                 774.2636312582145592
    Total Energy =                       -758.2657171108879766
  Basis Set: (AUG-CC-PVTZ AUX)
    Blend: AUG-CC-PVTZ-RI
    Molecular point group: c1

    Geometry (in Angstrom), charge = 0, multiplicity = 1:

       Center              X                  Y                   Z               Mass
    ------------   -----------------  -----------------  -----------------  -----------------
         S           -1.424126992190    -1.061801537528     0.157500659461    31.972071174400
         O            1.530041007810    -1.414708537528    -0.341018340539    15.994914619570
         N            2.092732007810     0.758325462472     0.107765659461    14.003074004430
         C           -0.229604992190     0.161108462472    -0.045393340539    12.000000000000
         C            1.191933007810    -0.250049537528    -0.102017340539    12.000000000000
         C           -0.805313992190     1.414580462472    -0.175483340539    12.000000000000
         C           -2.216016992190     1.374175462472    -0.086790340539    12.000000000000
         C           -2.690284992190     0.092134462472     0.099081659461    12.000000000000
         C            3.511672007810     0.449625462472     0.170924659461    12.000000000000
         H           -0.247625292190     2.288827962472    -0.563624040539     1.007825032230
         H            1.762092007810     1.585943462472     0.586131659461     1.007825032230
         H           -2.860640992190     2.243381462472    -0.167283340539     1.007825032230
         H           -3.720322992190    -0.226531537528     0.202099659461     1.007825032230
         H            3.757294007810    -0.217264537528    -0.654854340539     1.007825032230
         H            3.785682007810    -0.047541537528     1.107807659461     1.007825032230
         H            4.078354007810     1.376733462472     0.071195659461     1.007825032230

  Basis Set: AUG-CC-PVTZ
    Blend: AUG-CC-PVTZ
  Basis Set: (AUG-CC-PVTZ AUX)
    Blend: AUG-CC-PVTZ-JKFIT
	 Reference Energy          =    -758.2657171108879766 [Eh]
	 Singles Energy            =      -0.0000000000000000 [Eh]
	 Same-Spin Energy          =      -0.4437220476280626 [Eh]
	 Opposite-Spin Energy      =      -1.3481707102340694 [Eh]
	 Correlation Energy        =      -1.7918927578621320 [Eh]
	 Total Energy              =    -760.0576098687500917 [Eh]

	 ================> DF-SCS-MP2 Energies <==================
	-----------------------------------------------------------
	 SCS Same-Spin Scale       =       0.3333333333333333 [-]
	 SCS Opposite-Spin Scale   =       1.2000000000000000 [-]
	 SCS Same-Spin Energy      =      -0.1479073492093542 [Eh]
	 SCS Opposite-Spin Energy  =      -1.6178048522808832 [Eh]
	 SCS Correlation Energy    =      -1.7657122014902373 [Eh]
	 SCS Total Energy          =    -760.0314293123782363 [Eh]
	-----------------------------------------------------------

  Dipole Moment: [D]
     X:    -0.3571      Y:     3.5689      Z:     0.9377     Total:     3.7072

*** Psi4 exiting successfully. Buy a developer a beer!
