                               Psi4 1.3.2 release

  ==> Input File <==

--------------------------------------------------------------------------
#psi4
#
memory 32 gb

molecule  {
0 1
  S       -1.4679970    -1.1088850     0.1509200
  O        1.4861710    -1.4617920    -0.3475990
  N        2.0488620     0.7112420     0.1011850
  C       -0.2734750     0.1140250    -0.0519740
  C        1.1480630    -0.2971330    -0.1085980
  C       -0.8491840     1.3674970    -0.1820640
  C       -2.2598870     1.3270920    -0.0933710
  C       -2.7341550     0.0450510     0.0925010
  C        3.4678020     0.4025420     0.1643440
  H       -0.2776640     2.2711280    -0.3728590
  H        1.7182220     1.5388600     0.5795510
  H       -2.9127852     2.1772488    -0.3224193
  H       -3.7641930    -0.2736150     0.1955190
  H        3.7134240    -0.2643480    -0.6614350
  H        3.7418120    -0.0946250     1.1012270
  H        4.0344840     1.3296500     0.0646150
units angstrom
no_reorient  #important for SAPT in psi4, default
symmetry c1  #important for SAPT in psi4, default
}

set PROPERTIES_ORIGIN ["COM"]
properties('MP2/aug-cc-pvtz', properties = ['dipole'])
--------------------------------------------------------------------------

    Molecular point group: c1
  Charge       = 0
  Multiplicity = 1
  Basis Set: AUG-CC-PVTZ
    Blend: AUG-CC-PVTZ
  Basis Set: (AUG-CC-PVTZ AUX)
    Blend: AUG-CC-PVTZ-JKFIT

    Orbital Energies [Eh]
    ---------------------

    Doubly Occupied:

       1A    -91.996489     2A    -20.523461     3A    -15.590855
       4A    -11.362745     5A    -11.279606     6A    -11.276888
       7A    -11.262868     8A    -11.261724     9A    -11.251729
      10A     -8.996211    11A     -6.677041    12A     -6.676491
      13A     -6.675817    14A     -1.378174    15A     -1.233339
      16A     -1.184350    17A     -1.020488    18A     -1.000818
      19A     -0.946242    20A     -0.833028    21A     -0.770297
      22A     -0.769292    23A     -0.721449    24A     -0.646324
      25A     -0.640781    26A     -0.625721    27A     -0.578877
      28A     -0.573607    29A     -0.558830    30A     -0.552740
      31A     -0.531040    32A     -0.512533    33A     -0.486162
      34A     -0.436556    35A     -0.400369    36A     -0.357149
      37A     -0.335958

  @DF-RHF Final Energy:  -758.26717988906921

   => Energetics <=

    Nuclear Repulsion Energy =            499.8972464516628520
    One-Electron Energy =               -2032.4767565586353157
    Two-Electron Energy =                 774.3123302179033089
    Total Energy =                       -758.2671798890692116
  Basis Set: (AUG-CC-PVTZ AUX)
    Blend: AUG-CC-PVTZ-RI
    Molecular point group: c1

    Geometry (in Angstrom), charge = 0, multiplicity = 1:

       Center              X                  Y                   Z               Mass
    ------------   -----------------  -----------------  -----------------  -----------------
         S           -1.424166705653    -1.061875390947     0.157151981964    31.972071174400
         O            1.530001294347    -1.414782390947    -0.341367018036    15.994914619570
         N            2.092692294347     0.758251609053     0.107416981964    14.003074004430
         C           -0.229644705653     0.161034609053    -0.045742018036    12.000000000000
         C            1.191893294347    -0.250123390947    -0.102366018036    12.000000000000
         C           -0.805353705653     1.414506609053    -0.175832018036    12.000000000000
         C           -2.216056705653     1.374101609053    -0.087139018036    12.000000000000
         C           -2.690324705653     0.092060609053     0.098732981964    12.000000000000
         C            3.511632294347     0.449551609053     0.170575981964    12.000000000000
         H           -0.233833705653     2.318137609053    -0.366627018036     1.007825032230
         H            1.762052294347     1.585869609053     0.585782981964     1.007825032230
         H           -2.868954905653     2.224258409053    -0.316187318036     1.007825032230
         H           -3.720362705653    -0.226605390947     0.201750981964     1.007825032230
         H            3.757254294347    -0.217338390947    -0.655203018036     1.007825032230
         H            3.785642294347    -0.047615390947     1.107458981964     1.007825032230
         H            4.078314294347     1.376659609053     0.070846981964     1.007825032230

  Basis Set: AUG-CC-PVTZ
    Blend: AUG-CC-PVTZ
  Basis Set: (AUG-CC-PVTZ AUX)
    Blend: AUG-CC-PVTZ-JKFIT
	 Reference Energy          =    -758.2671798890692116 [Eh]
	 Singles Energy            =      -0.0000000000000000 [Eh]
	 Same-Spin Energy          =      -0.4435747318336869 [Eh]
	 Opposite-Spin Energy      =      -1.3479402386643642 [Eh]
	 Correlation Energy        =      -1.7915149704980511 [Eh]
	 Total Energy              =    -760.0586948595672538 [Eh]

	 ================> DF-SCS-MP2 Energies <==================
	-----------------------------------------------------------
	 SCS Same-Spin Scale       =       0.3333333333333333 [-]
	 SCS Opposite-Spin Scale   =       1.2000000000000000 [-]
	 SCS Same-Spin Energy      =      -0.1478582439445623 [Eh]
	 SCS Opposite-Spin Energy  =      -1.6175282863972369 [Eh]
	 SCS Correlation Energy    =      -1.7653865303417993 [Eh]
	 SCS Total Energy          =    -760.0325664194109549 [Eh]
	-----------------------------------------------------------

  Dipole Moment: [D]
     X:    -0.3225      Y:     3.5838      Z:     0.9695     Total:     3.7266

*** Psi4 exiting successfully. Buy a developer a beer!
