                               Psi4 1.3.2 release

  ==> Input File <==

--------------------------------------------------------------------------
#psi4
#
memory 32 gb

molecule  {
0 1
  S       -1.4679970    -1.1088850     0.1509200
  O        1.4861710    -1.4617920    -0.3475990
  N        2.0488620     0.7112420     0.1011850
  C       -0.2768450     0.0643029     0.1930084
  C        1.1480630    -0.2971330    -0.1085980
  C       -0.8491840     1.3674970    -0.1820640
  C       -2.2598870     1.3270920    -0.0933710
  C       -2.7341550     0.0450510     0.0925010
  C        3.4678020     0.4025420     0.1643440
  H       -0.2776640     2.2711280    -0.3728590
  H        1.7182220     1.5388600     0.5795510
  H       -2.9045110     2.1962980    -0.1738640
  H       -3.7641930    -0.2736150     0.1955190
  H        3.7134240    -0.2643480    -0.6614350
  H        3.7418120    -0.0946250     1.1012270
  H        4.0344840     1.3296500     0.0646150
units angstrom
no_reorient  #important for SAPT in psi4, default
symmetry c1  #important for SAPT in psi4, default
}

set PROPERTIES_ORIGIN ["COM"]
properties('MP2/aug-cc-pvtz', properties = ['dipole'])
--------------------------------------------------------------------------

    Molecular point group: c1
  Charge       = 0
  Multiplicity = 1
  Basis Set: AUG-CC-PVTZ
    Blend: AUG-CC-PVTZ
  Basis Set: (AUG-CC-PVTZ AUX)
    Blend: AUG-CC-PVTZ-JKFIT

    Orbital Energies [Eh]
    ---------------------

    Doubly Occupied:

       1A    -92.000668     2A    -20.520796     3A    -15.588077
       4A    -11.362061     5A    -11.281013     6A    -11.280743
       7A    -11.273326     8A    -11.260580     9A    -11.253278
      10A     -9.001007    11A     -6.681846    12A     -6.681312
      13A     -6.680628    14A     -1.375547    15A     -1.230649
      16A     -1.183805    17A     -1.019421    18A     -0.999678
      19A     -0.942715    20A     -0.828399    21A     -0.768770
      22A     -0.766207    23A     -0.717734    24A     -0.644848
      25A     -0.640684    26A     -0.624344    27A     -0.577103
      28A     -0.572731    29A     -0.556598    30A     -0.550872
      31A     -0.536988    32A     -0.510019    33A     -0.486651
      34A     -0.433632    35A     -0.397527    36A     -0.357960
      37A     -0.329231

  @DF-RHF Final Energy:  -758.24591635645538

   => Energetics <=

    Nuclear Repulsion Energy =            499.5371627073743070
    One-Electron Energy =               -2031.7312660613868047
    Two-Electron Energy =                 773.9481869975570589
    Total Energy =                       -758.2459163564553819
  Basis Set: (AUG-CC-PVTZ AUX)
    Blend: AUG-CC-PVTZ-RI
    Molecular point group: c1

    Geometry (in Angstrom), charge = 0, multiplicity = 1:

       Center              X                  Y                   Z               Mass
    ------------   -----------------  -----------------  -----------------  -----------------
         S           -1.423939078695    -1.057780601974     0.135244446675    31.972071174400
         O            1.530228921305    -1.410687601974    -0.363274553325    15.994914619570
         N            2.092919921305     0.762346398026     0.085509446675    14.003074004430
         C           -0.232787078695     0.115407298026     0.177332846675    12.000000000000
         C            1.192120921305    -0.246028601974    -0.124273553325    12.000000000000
         C           -0.805126078695     1.418601398026    -0.197739553325    12.000000000000
         C           -2.215829078695     1.378196398026    -0.109046553325    12.000000000000
         C           -2.690097078695     0.096155398026     0.076825446675    12.000000000000
         C            3.511859921305     0.453646398026     0.148668446675    12.000000000000
         H           -0.233606078695     2.322232398026    -0.388534553325     1.007825032230
         H            1.762279921305     1.589964398026     0.563875446675     1.007825032230
         H           -2.860453078695     2.247402398026    -0.189539553325     1.007825032230
         H           -3.720135078695    -0.222510601974     0.179843446675     1.007825032230
         H            3.757481921305    -0.213243601974    -0.677110553325     1.007825032230
         H            3.785869921305    -0.043520601974     1.085551446675     1.007825032230
         H            4.078541921305     1.380754398026     0.048939446675     1.007825032230

  Basis Set: AUG-CC-PVTZ
    Blend: AUG-CC-PVTZ
  Basis Set: (AUG-CC-PVTZ AUX)
    Blend: AUG-CC-PVTZ-JKFIT
	 Reference Energy          =    -758.2459163564553819 [Eh]
	 Singles Energy            =      -0.0000000000000000 [Eh]
	 Same-Spin Energy          =      -0.4455849711488024 [Eh]
	 Opposite-Spin Energy      =      -1.3508200276698545 [Eh]
	 Correlation Energy        =      -1.7964049988186570 [Eh]
	 Total Energy              =    -760.0423213552739981 [Eh]

	 ================> DF-SCS-MP2 Energies <==================
	-----------------------------------------------------------
	 SCS Same-Spin Scale       =       0.3333333333333333 [-]
	 SCS Opposite-Spin Scale   =       1.2000000000000000 [-]
	 SCS Same-Spin Energy      =      -0.1485283237162675 [Eh]
	 SCS Opposite-Spin Energy  =      -1.6209840332038254 [Eh]
	 SCS Correlation Energy    =      -1.7695123569200928 [Eh]
	 SCS Total Energy          =    -760.0154287133755133 [Eh]
	-----------------------------------------------------------

  Dipole Moment: [D]
     X:    -0.4844      Y:     3.5403      Z:     0.9361     Total:     3.6939

*** Psi4 exiting successfully. Buy a developer a beer!
