                               Psi4 1.3.2 release

  ==> Input File <==

--------------------------------------------------------------------------
#psi4
#
memory 32 gb

molecule  {
0 1
  S       -1.4679970    -1.1088850     0.1509200
  O        1.4861710    -1.4617920    -0.3475990
  N        2.0488620     0.7112420     0.1011850
  C       -0.2734750     0.1140250    -0.0519740
  C        1.1480630    -0.2971330    -0.1085980
  C       -0.8306573     1.4028480     0.1152693
  C       -2.2598870     1.3270920    -0.0933710
  C       -2.7341550     0.0450510     0.0925010
  C        3.4678020     0.4025420     0.1643440
  H       -0.2776640     2.2711280    -0.3728590
  H        1.7182220     1.5388600     0.5795510
  H       -2.9045110     2.1962980    -0.1738640
  H       -3.7641930    -0.2736150     0.1955190
  H        3.7134240    -0.2643480    -0.6614350
  H        3.7418120    -0.0946250     1.1012270
  H        4.0344840     1.3296500     0.0646150
units angstrom
no_reorient  #important for SAPT in psi4, default
symmetry c1  #important for SAPT in psi4, default
}

set PROPERTIES_ORIGIN ["COM"]
properties('MP2/aug-cc-pvtz', properties = ['dipole'])
--------------------------------------------------------------------------

    Molecular point group: c1
  Charge       = 0
  Multiplicity = 1
  Basis Set: AUG-CC-PVTZ
    Blend: AUG-CC-PVTZ
  Basis Set: (AUG-CC-PVTZ AUX)
    Blend: AUG-CC-PVTZ-JKFIT

    Orbital Energies [Eh]
    ---------------------

    Doubly Occupied:

       1A    -91.999874     2A    -20.525821     3A    -15.590924
       4A    -11.364406     5A    -11.288293     6A    -11.278160
       7A    -11.269588     8A    -11.261959     9A    -11.256226
      10A     -8.999591    11A     -6.680392    12A     -6.679831
      13A     -6.679207    14A     -1.380121    15A     -1.233894
      16A     -1.181239    17A     -1.020544    18A     -0.997102
      19A     -0.945474    20A     -0.834098    21A     -0.769561
      22A     -0.766477    23A     -0.708830    24A     -0.645774
      25A     -0.641186    26A     -0.627582    27A     -0.577481
      28A     -0.565450    29A     -0.554162    30A     -0.548827
      31A     -0.532930    32A     -0.511748    33A     -0.482996
      34A     -0.438384    35A     -0.401119    36A     -0.358323
      37A     -0.335015

  @DF-RHF Final Energy:  -758.24052497853427

   => Energetics <=

    Nuclear Repulsion Energy =            499.0115613116695954
    One-Electron Energy =               -2030.6389974977437305
    Two-Electron Energy =                 773.3869112075399244
    Total Energy =                       -758.2405249785342676
  Basis Set: (AUG-CC-PVTZ AUX)
    Blend: AUG-CC-PVTZ-RI
    Molecular point group: c1

    Geometry (in Angstrom), charge = 0, multiplicity = 1:

       Center              X                  Y                   Z               Mass
    ------------   -----------------  -----------------  -----------------  -----------------
         S           -1.425802299453    -1.065019590765     0.130789835543    31.972071174400
         O            1.528365700547    -1.417926590765    -0.367729164457    15.994914619570
         N            2.091056700547     0.755107409235     0.081054835543    14.003074004430
         C           -0.231280299453     0.157890409235    -0.072104164457    12.000000000000
         C            1.190257700547    -0.253267590765    -0.128728164457    12.000000000000
         C           -0.788462599453     1.446713409235     0.095139135543    12.000000000000
         C           -2.217692299453     1.370957409235    -0.113501164457    12.000000000000
         C           -2.691960299453     0.088916409235     0.072370835543    12.000000000000
         C            3.509996700547     0.446407409235     0.144213835543    12.000000000000
         H           -0.235469299453     2.314993409235    -0.392989164457     1.007825032230
         H            1.760416700547     1.582725409235     0.559420835543     1.007825032230
         H           -2.862316299453     2.240163409235    -0.193994164457     1.007825032230
         H           -3.721998299453    -0.229749590765     0.175388835543     1.007825032230
         H            3.755618700547    -0.220482590765    -0.681565164457     1.007825032230
         H            3.784006700547    -0.050759590765     1.081096835543     1.007825032230
         H            4.076678700547     1.373515409235     0.044484835543     1.007825032230

  Basis Set: AUG-CC-PVTZ
    Blend: AUG-CC-PVTZ
  Basis Set: (AUG-CC-PVTZ AUX)
    Blend: AUG-CC-PVTZ-JKFIT
	 Reference Energy          =    -758.2405249785342676 [Eh]
	 Singles Energy            =      -0.0000000000000000 [Eh]
	 Same-Spin Energy          =      -0.4453477028255790 [Eh]
	 Opposite-Spin Energy      =      -1.3523636171739950 [Eh]
	 Correlation Energy        =      -1.7977113199995740 [Eh]
	 Total Energy              =    -760.0382362985338887 [Eh]

	 ================> DF-SCS-MP2 Energies <==================
	-----------------------------------------------------------
	 SCS Same-Spin Scale       =       0.3333333333333333 [-]
	 SCS Opposite-Spin Scale   =       1.2000000000000000 [-]
	 SCS Same-Spin Energy      =      -0.1484492342751930 [Eh]
	 SCS Opposite-Spin Energy  =      -1.6228363406087940 [Eh]
	 SCS Correlation Energy    =      -1.7712855748839869 [Eh]
	 SCS Total Energy          =    -760.0118105534182860 [Eh]
	-----------------------------------------------------------

  Dipole Moment: [D]
     X:    -0.4527      Y:     3.3646      Z:     0.9070     Total:     3.5140

*** Psi4 exiting successfully. Buy a developer a beer!
