                               Psi4 1.3.2 release

  ==> Input File <==

--------------------------------------------------------------------------
#psi4
#
memory 32 gb

molecule  {
0 1
  S       -1.4679970    -1.1088850     0.1509200
  O        1.4861710    -1.4617920    -0.3475990
  N        2.0488620     0.7112420     0.1011850
  C       -0.2734750     0.1140250    -0.0519740
  C        1.1480630    -0.2971330    -0.1085980
  C       -0.8491840     1.3674970    -0.1820640
  C       -2.2598870     1.3270920    -0.0933710
  C       -2.7341550     0.0450510     0.0925010
  C        3.4678020     0.4025420     0.1643440
  H       -0.2776640     2.2711280    -0.3728590
  H        1.7182220     1.5388600     0.5795510
  H       -2.9155432     2.1708991    -0.3719377
  H       -3.7641930    -0.2736150     0.1955190
  H        3.7134240    -0.2643480    -0.6614350
  H        3.7418120    -0.0946250     1.1012270
  H        4.0344840     1.3296500     0.0646150
units angstrom
no_reorient  #important for SAPT in psi4, default
symmetry c1  #important for SAPT in psi4, default
}

set PROPERTIES_ORIGIN ["COM"]
properties('MP2/aug-cc-pvtz', properties = ['dipole'])
--------------------------------------------------------------------------

    Molecular point group: c1
  Charge       = 0
  Multiplicity = 1
  Basis Set: AUG-CC-PVTZ
    Blend: AUG-CC-PVTZ
  Basis Set: (AUG-CC-PVTZ AUX)
    Blend: AUG-CC-PVTZ-JKFIT

    Orbital Energies [Eh]
    ---------------------

    Doubly Occupied:

       1A    -91.996663     2A    -20.523509     3A    -15.590886
       4A    -11.362796     5A    -11.279877     6A    -11.276949
       7A    -11.262959     8A    -11.261747     9A    -11.252381
      10A     -8.996383    11A     -6.677211    12A     -6.676661
      13A     -6.675987    14A     -1.378224    15A     -1.233374
      16A     -1.184441    17A     -1.020464    18A     -1.000747
      19A     -0.946243    20A     -0.832994    21A     -0.769858
      22A     -0.769183    23A     -0.721066    24A     -0.646318
      25A     -0.640163    26A     -0.625639    27A     -0.578522
      28A     -0.573692    29A     -0.559161    30A     -0.552708
      31A     -0.530273    32A     -0.512744    33A     -0.486067
      34A     -0.436506    35A     -0.400404    36A     -0.357190
      37A     -0.335998

  @DF-RHF Final Energy:  -758.26604552739877

   => Energetics <=

    Nuclear Repulsion Energy =            499.8666025729576177
    One-Electron Energy =               -2032.4133149956551279
    Two-Electron Energy =                 774.2806668952987366
    Total Energy =                       -758.2660455273987736
  Basis Set: (AUG-CC-PVTZ AUX)
    Blend: AUG-CC-PVTZ-RI
    Molecular point group: c1

    Geometry (in Angstrom), charge = 0, multiplicity = 1:

       Center              X                  Y                   Z               Mass
    ------------   -----------------  -----------------  -----------------  -----------------
         S           -1.424146995781    -1.061830013219     0.157505862067    31.972071174400
         O            1.530021004219    -1.414737013219    -0.341013137933    15.994914619570
         N            2.092712004219     0.758296986781     0.107770862067    14.003074004430
         C           -0.229624995781     0.161079986781    -0.045388137933    12.000000000000
         C            1.191913004219    -0.250078013219    -0.102012137933    12.000000000000
         C           -0.805333995781     1.414551986781    -0.175478137933    12.000000000000
         C           -2.216036995781     1.374146986781    -0.086785137933    12.000000000000
         C           -2.690304995781     0.092105986781     0.099086862067    12.000000000000
         C            3.511652004219     0.449596986781     0.170929862067    12.000000000000
         H           -0.233813995781     2.318182986781    -0.366273137933     1.007825032230
         H            1.762072004219     1.585914986781     0.586136862067     1.007825032230
         H           -2.871693195781     2.217954086781    -0.365351837933     1.007825032230
         H           -3.720342995781    -0.226560013219     0.202104862067     1.007825032230
         H            3.757274004219    -0.217293013219    -0.654849137933     1.007825032230
         H            3.785662004219    -0.047570013219     1.107812862067     1.007825032230
         H            4.078334004219     1.376704986781     0.071200862067     1.007825032230

  Basis Set: AUG-CC-PVTZ
    Blend: AUG-CC-PVTZ
  Basis Set: (AUG-CC-PVTZ AUX)
    Blend: AUG-CC-PVTZ-JKFIT
	 Reference Energy          =    -758.2660455273987736 [Eh]
	 Singles Energy            =      -0.0000000000000000 [Eh]
	 Same-Spin Energy          =      -0.4436311436481418 [Eh]
	 Opposite-Spin Energy      =      -1.3480701017410293 [Eh]
	 Correlation Energy        =      -1.7917012453891710 [Eh]
	 Total Energy              =    -760.0577467727879366 [Eh]

	 ================> DF-SCS-MP2 Energies <==================
	-----------------------------------------------------------
	 SCS Same-Spin Scale       =       0.3333333333333333 [-]
	 SCS Opposite-Spin Scale   =       1.2000000000000000 [-]
	 SCS Same-Spin Energy      =      -0.1478770478827139 [Eh]
	 SCS Opposite-Spin Energy  =      -1.6176841220892351 [Eh]
	 SCS Correlation Energy    =      -1.7655611699719489 [Eh]
	 SCS Total Energy          =    -760.0316066973707620 [Eh]
	-----------------------------------------------------------

  Dipole Moment: [D]
     X:    -0.3145      Y:     3.5663      Z:     0.9333     Total:     3.6998

*** Psi4 exiting successfully. Buy a developer a beer!
