                               Psi4 1.3.2 release

  ==> Input File <==

--------------------------------------------------------------------------
#psi4
#
memory 32 gb

molecule  {
0 1
  S       -1.4679970    -1.1088850     0.1509200
  O        1.4861710    -1.4617920    -0.3475990
  N        2.0488620     0.7112420     0.1011850
  C       -0.2734750     0.1140250    -0.0519740
  C        1.1480630    -0.2971330    -0.1085980
  C       -0.8491840     1.3674970    -0.1820640
  C       -2.2598870     1.3270920    -0.0933710
  C       -2.7341550     0.0450510     0.0925010
  C        3.4678020     0.4025420     0.1643440
  H       -0.2776640     2.2711280    -0.3728590
  H        1.7182220     1.5388600     0.5795510
  H       -2.9072691     2.1899483    -0.2233824
  H       -3.7641930    -0.2736150     0.1955190
  H        3.7134240    -0.2643480    -0.6614350
  H        3.7418120    -0.0946250     1.1012270
  H        4.0344840     1.3296500     0.0646150
units angstrom
no_reorient  #important for SAPT in psi4, default
symmetry c1  #important for SAPT in psi4, default
}

set PROPERTIES_ORIGIN ["COM"]
properties('MP2/aug-cc-pvtz', properties = ['dipole'])
--------------------------------------------------------------------------

    Molecular point group: c1
  Charge       = 0
  Multiplicity = 1
  Basis Set: AUG-CC-PVTZ
    Blend: AUG-CC-PVTZ
  Basis Set: (AUG-CC-PVTZ AUX)
    Blend: AUG-CC-PVTZ-JKFIT

    Orbital Energies [Eh]
    ---------------------

    Doubly Occupied:

       1A    -91.996255     2A    -20.523415     3A    -15.590827
       4A    -11.362685     5A    -11.279265     6A    -11.276817
       7A    -11.262761     8A    -11.261705     9A    -11.250966
      10A     -8.995982    11A     -6.676815    12A     -6.676264
      13A     -6.675589    14A     -1.378122    15A     -1.233307
      16A     -1.184238    17A     -1.020521    18A     -1.000897
      19A     -0.946247    20A     -0.833079    21A     -0.770986
      22A     -0.769297    23A     -0.721893    24A     -0.646322
      25A     -0.641547    26A     -0.625857    27A     -0.579347
      28A     -0.573461    29A     -0.558133    30A     -0.552829
      31A     -0.532471    32A     -0.511923    33A     -0.486261
      34A     -0.436675    35A     -0.400332    36A     -0.357055
      37A     -0.335919

  @DF-RHF Final Energy:  -758.26841473164848

   => Energetics <=

    Nuclear Repulsion Energy =            499.9337314343612206
    One-Electron Energy =               -2032.5521626362926781
    Two-Electron Energy =                 774.3500164702828670
    Total Energy =                       -758.2684147316484768
  Basis Set: (AUG-CC-PVTZ AUX)
    Blend: AUG-CC-PVTZ-RI
    Molecular point group: c1

    Geometry (in Angstrom), charge = 0, multiplicity = 1:

       Center              X                  Y                   Z               Mass
    ------------   -----------------  -----------------  -----------------  -----------------
         S           -1.424206126111    -1.061966147118     0.156444221045    31.972071174400
         O            1.529961873889    -1.414873147118    -0.342074778955    15.994914619570
         N            2.092652873889     0.758160852882     0.106709221045    14.003074004430
         C           -0.229684126111     0.160943852882    -0.046449778955    12.000000000000
         C            1.191853873889    -0.250214147118    -0.103073778955    12.000000000000
         C           -0.805393126111     1.414415852882    -0.176539778955    12.000000000000
         C           -2.216096126111     1.374010852882    -0.087846778955    12.000000000000
         C           -2.690364126111     0.091969852882     0.098025221045    12.000000000000
         C            3.511592873889     0.449460852882     0.169868221045    12.000000000000
         H           -0.233873126111     2.318046852882    -0.367334778955     1.007825032230
         H            1.762012873889     1.585778852882     0.585075221045     1.007825032230
         H           -2.863478226111     2.236867152882    -0.217858178955     1.007825032230
         H           -3.720402126111    -0.226696147118     0.201043221045     1.007825032230
         H            3.757214873889    -0.217429147118    -0.655910778955     1.007825032230
         H            3.785602873889    -0.047706147118     1.106751221045     1.007825032230
         H            4.078274873889     1.376568852882     0.070139221045     1.007825032230

  Basis Set: AUG-CC-PVTZ
    Blend: AUG-CC-PVTZ
  Basis Set: (AUG-CC-PVTZ AUX)
    Blend: AUG-CC-PVTZ-JKFIT
	 Reference Energy          =    -758.2684147316484768 [Eh]
	 Singles Energy            =      -0.0000000000000000 [Eh]
	 Same-Spin Energy          =      -0.4435026109427664 [Eh]
	 Opposite-Spin Energy      =      -1.3477903322450462 [Eh]
	 Correlation Energy        =      -1.7912929431878126 [Eh]
	 Total Energy              =    -760.0597076748363179 [Eh]

	 ================> DF-SCS-MP2 Energies <==================
	-----------------------------------------------------------
	 SCS Same-Spin Scale       =       0.3333333333333333 [-]
	 SCS Opposite-Spin Scale   =       1.2000000000000000 [-]
	 SCS Same-Spin Energy      =      -0.1478342036475888 [Eh]
	 SCS Opposite-Spin Energy  =      -1.6173483986940553 [Eh]
	 SCS Correlation Energy    =      -1.7651826023416441 [Eh]
	 SCS Total Energy          =    -760.0335973339900875 [Eh]
	-----------------------------------------------------------

  Dipole Moment: [D]
     X:    -0.3295      Y:     3.6084      Z:     1.0440     Total:     3.7708

*** Psi4 exiting successfully. Buy a developer a beer!
