                               Psi4 1.3.2 release

  ==> Input File <==

--------------------------------------------------------------------------
#psi4
#
memory 32 gb

molecule  {
0 1
  S       -1.4679970    -1.1088850     0.1509200
  O        1.4861710    -1.4617920    -0.3475990
  N        2.0488620     0.7112420     0.1011850
  C       -0.2754970     0.0841917     0.0950154
  C        1.1480630    -0.2971330    -0.1085980
  C       -0.8491840     1.3674970    -0.1820640
  C       -2.2598870     1.3270920    -0.0933710
  C       -2.7341550     0.0450510     0.0925010
  C        3.4678020     0.4025420     0.1643440
  H       -0.2776640     2.2711280    -0.3728590
  H        1.7182220     1.5388600     0.5795510
  H       -2.9045110     2.1962980    -0.1738640
  H       -3.7641930    -0.2736150     0.1955190
  H        3.7134240    -0.2643480    -0.6614350
  H        3.7418120    -0.0946250     1.1012270
  H        4.0344840     1.3296500     0.0646150
units angstrom
no_reorient  #important for SAPT in psi4, default
symmetry c1  #important for SAPT in psi4, default
}

set PROPERTIES_ORIGIN ["COM"]
properties('MP2/aug-cc-pvtz', properties = ['dipole'])
--------------------------------------------------------------------------

    Molecular point group: c1
  Charge       = 0
  Multiplicity = 1
  Basis Set: AUG-CC-PVTZ
    Blend: AUG-CC-PVTZ
  Basis Set: (AUG-CC-PVTZ AUX)
    Blend: AUG-CC-PVTZ-JKFIT

    Orbital Energies [Eh]
    ---------------------

    Doubly Occupied:

       1A    -91.998979     2A    -20.521843     3A    -15.589288
       4A    -11.362088     5A    -11.279625     6A    -11.278666
       7A    -11.268308     8A    -11.261092     9A    -11.252082
      10A     -8.999121    11A     -6.679961    12A     -6.679439
      13A     -6.678743    14A     -1.376760    15A     -1.231876
      16A     -1.184342    17A     -1.019384    18A     -1.001487
      19A     -0.944328    20A     -0.831052    21A     -0.769448
      22A     -0.768073    23A     -0.719974    24A     -0.645285
      25A     -0.641131    26A     -0.625096    27A     -0.577426
      28A     -0.573170    29A     -0.557812    30A     -0.551866
      31A     -0.536254    32A     -0.511454    33A     -0.487371
      34A     -0.435530    35A     -0.398781    36A     -0.356977
      37A     -0.332378

  @DF-RHF Final Energy:  -758.25958449021198

   => Energetics <=

    Nuclear Repulsion Energy =            499.8937687182318541
    One-Electron Energy =               -2032.4537319791816117
    Two-Electron Energy =                 774.3003787707376659
    Total Energy =                       -758.2595844902119779
  Basis Set: (AUG-CC-PVTZ AUX)
    Blend: AUG-CC-PVTZ-RI
    Molecular point group: c1

    Geometry (in Angstrom), charge = 0, multiplicity = 1:

       Center              X                  Y                   Z               Mass
    ------------   -----------------  -----------------  -----------------  -----------------
         S           -1.424053781896    -1.059472967719     0.143582807785    31.972071174400
         O            1.530114218104    -1.412379967719    -0.354936192215    15.994914619570
         N            2.092805218104     0.760654032281     0.093847807785    14.003074004430
         C           -0.231553781896     0.133603732281     0.087678207785    12.000000000000
         C            1.192006218104    -0.247720967719    -0.115935192215    12.000000000000
         C           -0.805240781896     1.416909032281    -0.189401192215    12.000000000000
         C           -2.215943781896     1.376504032281    -0.100708192215    12.000000000000
         C           -2.690211781896     0.094463032281     0.085163807785    12.000000000000
         C            3.511745218104     0.451954032281     0.157006807785    12.000000000000
         H           -0.233720781896     2.320540032281    -0.380196192215     1.007825032230
         H            1.762165218104     1.588272032281     0.572213807785     1.007825032230
         H           -2.860567781896     2.245710032281    -0.181201192215     1.007825032230
         H           -3.720249781896    -0.224202967719     0.188181807785     1.007825032230
         H            3.757367218104    -0.214935967719    -0.668772192215     1.007825032230
         H            3.785755218104    -0.045212967719     1.093889807785     1.007825032230
         H            4.078427218104     1.379062032281     0.057277807785     1.007825032230

  Basis Set: AUG-CC-PVTZ
    Blend: AUG-CC-PVTZ
  Basis Set: (AUG-CC-PVTZ AUX)
    Blend: AUG-CC-PVTZ-JKFIT
	 Reference Energy          =    -758.2595844902119779 [Eh]
	 Singles Energy            =      -0.0000000000000000 [Eh]
	 Same-Spin Energy          =      -0.4445937545582624 [Eh]
	 Opposite-Spin Energy      =      -1.3490861501382994 [Eh]
	 Correlation Energy        =      -1.7936799046965617 [Eh]
	 Total Energy              =    -760.0532643949085241 [Eh]

	 ================> DF-SCS-MP2 Energies <==================
	-----------------------------------------------------------
	 SCS Same-Spin Scale       =       0.3333333333333333 [-]
	 SCS Opposite-Spin Scale   =       1.2000000000000000 [-]
	 SCS Same-Spin Energy      =      -0.1481979181860875 [Eh]
	 SCS Opposite-Spin Energy  =      -1.6189033801659591 [Eh]
	 SCS Correlation Energy    =      -1.7671012983520467 [Eh]
	 SCS Total Energy          =    -760.0266857885640093 [Eh]
	-----------------------------------------------------------

  Dipole Moment: [D]
     X:    -0.4204      Y:     3.5623      Z:     0.9978     Total:     3.7233

*** Psi4 exiting successfully. Buy a developer a beer!
