                               Psi4 1.3.2 release

  ==> Input File <==

--------------------------------------------------------------------------
#psi4
#
memory 32 gb

molecule  {
0 1
  S       -1.4679970    -1.1088850     0.1509200
  O        1.4861710    -1.4617920    -0.3475990
  N        2.0488620     0.7112420     0.1011850
  C       -0.2734750     0.1140250    -0.0519740
  C        1.1480630    -0.2971330    -0.1085980
  C       -0.8491840     1.3674970    -0.1820640
  C       -2.2598870     1.3270920    -0.0933710
  C       -2.7341550     0.0450510     0.0925010
  C        3.4678020     0.4025420     0.1643440
  H       -0.2776640     2.2711280    -0.3728590
  H        1.7182220     1.5388600     0.5795510
  H       -2.9045110     2.1962980    -0.1738640
  H       -3.7547704    -0.2556474     0.3441406
  H        3.7134240    -0.2643480    -0.6614350
  H        3.7418120    -0.0946250     1.1012270
  H        4.0344840     1.3296500     0.0646150
units angstrom
no_reorient  #important for SAPT in psi4, default
symmetry c1  #important for SAPT in psi4, default
}

set PROPERTIES_ORIGIN ["COM"]
properties('MP2/aug-cc-pvtz', properties = ['dipole'])
--------------------------------------------------------------------------

    Molecular point group: c1
  Charge       = 0
  Multiplicity = 1
  Basis Set: AUG-CC-PVTZ
    Blend: AUG-CC-PVTZ
  Basis Set: (AUG-CC-PVTZ AUX)
    Blend: AUG-CC-PVTZ-JKFIT

    Orbital Energies [Eh]
    ---------------------

    Doubly Occupied:

       1A    -91.996209     2A    -20.523439     3A    -15.590909
       4A    -11.362760     5A    -11.279912     6A    -11.277151
       7A    -11.262833     8A    -11.261785     9A    -11.251168
      10A     -8.995948    11A     -6.676781    12A     -6.676222
      13A     -6.675552    14A     -1.378174    15A     -1.233399
      16A     -1.184301    17A     -1.020427    18A     -1.000931
      19A     -0.946155    20A     -0.833003    21A     -0.770051
      22A     -0.769073    23A     -0.721743    24A     -0.645854
      25A     -0.641694    26A     -0.626076    27A     -0.579517
      28A     -0.573557    29A     -0.558393    30A     -0.552396
      31A     -0.530848    32A     -0.512156    33A     -0.486297
      34A     -0.436831    35A     -0.400434    36A     -0.357080
      37A     -0.335937

  @DF-RHF Final Energy:  -758.26732543592630

   => Energetics <=

    Nuclear Repulsion Energy =            499.8998995930537035
    One-Electron Energy =               -2032.4844562603739178
    Two-Electron Energy =                 774.3172312313938619
    Total Energy =                       -758.2673254359262955
  Basis Set: (AUG-CC-PVTZ AUX)
    Blend: AUG-CC-PVTZ-RI
    Molecular point group: c1

    Geometry (in Angstrom), charge = 0, multiplicity = 1:

       Center              X                  Y                   Z               Mass
    ------------   -----------------  -----------------  -----------------  -----------------
         S           -1.424293174711    -1.062139929159     0.155028226111    31.972071174400
         O            1.529874825289    -1.415046929159    -0.343490773889    15.994914619570
         N            2.092565825289     0.757987070841     0.105293226111    14.003074004430
         C           -0.229771174711     0.160770070841    -0.047865773889    12.000000000000
         C            1.191766825289    -0.250387929159    -0.104489773889    12.000000000000
         C           -0.805480174711     1.414242070841    -0.177955773889    12.000000000000
         C           -2.216183174711     1.373837070841    -0.089262773889    12.000000000000
         C           -2.690451174711     0.091796070841     0.096609226111    12.000000000000
         C            3.511505825289     0.449287070841     0.168452226111    12.000000000000
         H           -0.233960174711     2.317873070841    -0.368750773889     1.007825032230
         H            1.761925825289     1.585605070841     0.583659226111     1.007825032230
         H           -2.860807174711     2.243043070841    -0.169755773889     1.007825032230
         H           -3.711066574711    -0.208902329159     0.348248826111     1.007825032230
         H            3.757127825289    -0.217602929159    -0.657326773889     1.007825032230
         H            3.785515825289    -0.047879929159     1.105335226111     1.007825032230
         H            4.078187825289     1.376395070841     0.068723226111     1.007825032230

  Basis Set: AUG-CC-PVTZ
    Blend: AUG-CC-PVTZ
  Basis Set: (AUG-CC-PVTZ AUX)
    Blend: AUG-CC-PVTZ-JKFIT
	 Reference Energy          =    -758.2673254359262955 [Eh]
	 Singles Energy            =      -0.0000000000000000 [Eh]
	 Same-Spin Energy          =      -0.4435868150771421 [Eh]
	 Opposite-Spin Energy      =      -1.3479564366807724 [Eh]
	 Correlation Energy        =      -1.7915432517579144 [Eh]
	 Total Energy              =    -760.0588686876842530 [Eh]

	 ================> DF-SCS-MP2 Energies <==================
	-----------------------------------------------------------
	 SCS Same-Spin Scale       =       0.3333333333333333 [-]
	 SCS Opposite-Spin Scale   =       1.2000000000000000 [-]
	 SCS Same-Spin Energy      =      -0.1478622716923807 [Eh]
	 SCS Opposite-Spin Energy  =      -1.6175477240169267 [Eh]
	 SCS Correlation Energy    =      -1.7654099957093075 [Eh]
	 SCS Total Energy          =    -760.0327354316356150 [Eh]
	-----------------------------------------------------------

  Dipole Moment: [D]
     X:    -0.3076      Y:     3.6376      Z:     1.1992     Total:     3.8425

*** Psi4 exiting successfully. Buy a developer a beer!
