                               Psi4 1.3.2 release

  ==> Input File <==

--------------------------------------------------------------------------
#psi4
#
memory 32 gb

molecule  {
0 1
  S       -1.4679970    -1.1088850     0.1509200
  O        1.4861710    -1.4617920    -0.3475990
  N        2.0488620     0.7112420     0.1011850
  C       -0.2775190     0.0543584     0.2420048
  C        1.1480630    -0.2971330    -0.1085980
  C       -0.8491840     1.3674970    -0.1820640
  C       -2.2598870     1.3270920    -0.0933710
  C       -2.7341550     0.0450510     0.0925010
  C        3.4678020     0.4025420     0.1643440
  H       -0.2776640     2.2711280    -0.3728590
  H        1.7182220     1.5388600     0.5795510
  H       -2.9045110     2.1962980    -0.1738640
  H       -3.7641930    -0.2736150     0.1955190
  H        3.7134240    -0.2643480    -0.6614350
  H        3.7418120    -0.0946250     1.1012270
  H        4.0344840     1.3296500     0.0646150
units angstrom
no_reorient  #important for SAPT in psi4, default
symmetry c1  #important for SAPT in psi4, default
}

set PROPERTIES_ORIGIN ["COM"]
properties('MP2/aug-cc-pvtz', properties = ['dipole'])
--------------------------------------------------------------------------

    Molecular point group: c1
  Charge       = 0
  Multiplicity = 1
  Basis Set: AUG-CC-PVTZ
    Blend: AUG-CC-PVTZ
  Basis Set: (AUG-CC-PVTZ AUX)
    Blend: AUG-CC-PVTZ-JKFIT

    Orbital Energies [Eh]
    ---------------------

    Doubly Occupied:

       1A    -92.001434     2A    -20.520291     3A    -15.587421
       4A    -11.362118     5A    -11.282093     6A    -11.281952
       7A    -11.276116     8A    -11.260290     9A    -11.253998
      10A     -9.001841    11A     -6.682676    12A     -6.682132
      13A     -6.681460    14A     -1.374860    15A     -1.229959
      16A     -1.183345    17A     -1.019649    18A     -0.998170
      19A     -0.941852    20A     -0.826753    21A     -0.768479
      22A     -0.765162    23A     -0.716363    24A     -0.644787
      25A     -0.640363    26A     -0.623892    27A     -0.577520
      28A     -0.572252    29A     -0.555441    30A     -0.550313
      31A     -0.536976    32A     -0.508940    33A     -0.485830
      34A     -0.432353    35A     -0.396826    36A     -0.358628
      37A     -0.327628

  @DF-RHF Final Energy:  -758.23691691847580

   => Energetics <=

    Nuclear Repulsion Energy =            499.2640403982197199
    One-Electron Energy =               -2031.1815888477872249
    Two-Electron Energy =                 773.6806315310916489
    Total Energy =                       -758.2369169184757993
  Basis Set: (AUG-CC-PVTZ AUX)
    Blend: AUG-CC-PVTZ-RI
    Molecular point group: c1

    Geometry (in Angstrom), charge = 0, multiplicity = 1:

       Center              X                  Y                   Z               Mass
    ------------   -----------------  -----------------  -----------------  -----------------
         S           -1.423881727095    -1.056934410593     0.131075274629    31.972071174400
         O            1.530286272905    -1.409841410593    -0.367443725371    15.994914619570
         N            2.092977272905     0.763192589407     0.081340274629    14.003074004430
         C           -0.233403727095     0.106308989407     0.222160074629    12.000000000000
         C            1.192178272905    -0.245182410593    -0.128442725371    12.000000000000
         C           -0.805068727095     1.419447589407    -0.201908725371    12.000000000000
         C           -2.215771727095     1.379042589407    -0.113215725371    12.000000000000
         C           -2.690039727095     0.097001589407     0.072656274629    12.000000000000
         C            3.511917272905     0.454492589407     0.144499274629    12.000000000000
         H           -0.233548727095     2.323078589407    -0.392703725371     1.007825032230
         H            1.762337272905     1.590810589407     0.559706274629     1.007825032230
         H           -2.860395727095     2.248248589407    -0.193708725371     1.007825032230
         H           -3.720077727095    -0.221664410593     0.175674274629     1.007825032230
         H            3.757539272905    -0.212397410593    -0.681279725371     1.007825032230
         H            3.785927272905    -0.042674410593     1.081382274629     1.007825032230
         H            4.078599272905     1.381600589407     0.044770274629     1.007825032230

  Basis Set: AUG-CC-PVTZ
    Blend: AUG-CC-PVTZ
  Basis Set: (AUG-CC-PVTZ AUX)
    Blend: AUG-CC-PVTZ-JKFIT
	 Reference Energy          =    -758.2369169184757993 [Eh]
	 Singles Energy            =      -0.0000000000000000 [Eh]
	 Same-Spin Energy          =      -0.4461447961504947 [Eh]
	 Opposite-Spin Energy      =      -1.3519559668630254 [Eh]
	 Correlation Energy        =      -1.7981007630135202 [Eh]
	 Total Energy              =    -760.0350176814893075 [Eh]

	 ================> DF-SCS-MP2 Energies <==================
	-----------------------------------------------------------
	 SCS Same-Spin Scale       =       0.3333333333333333 [-]
	 SCS Opposite-Spin Scale   =       1.2000000000000000 [-]
	 SCS Same-Spin Energy      =      -0.1487149320501649 [Eh]
	 SCS Opposite-Spin Energy  =      -1.6223471602356305 [Eh]
	 SCS Correlation Energy    =      -1.7710620922857954 [Eh]
	 SCS Total Energy          =    -760.0079790107615736 [Eh]
	-----------------------------------------------------------

  Dipole Moment: [D]
     X:    -0.5157      Y:     3.5324      Z:     0.9042     Total:     3.6826

*** Psi4 exiting successfully. Buy a developer a beer!
