                               Psi4 1.3.2 release

  ==> Input File <==

--------------------------------------------------------------------------
#psi4
#
memory 32 gb

molecule  {
0 1
  S       -1.4679970    -1.1088850     0.1509200
  O        1.4861710    -1.4617920    -0.3475990
  N        2.0488620     0.7112420     0.1011850
  C       -0.2734750     0.1140250    -0.0519740
  C        1.1480630    -0.2971330    -0.1085980
  C       -0.8491840     1.3674970    -0.1820640
  C       -2.2598870     1.3270920    -0.0933710
  C       -2.7341550     0.0450510     0.0925010
  C        3.4678020     0.4025420     0.1643440
  H       -0.2776640     2.2711280    -0.3728590
  H        1.7182220     1.5388600     0.5795510
  H       -2.9045110     2.1962980    -0.1738640
  H       -3.7453478    -0.2376799     0.4927622
  H        3.7134240    -0.2643480    -0.6614350
  H        3.7418120    -0.0946250     1.1012270
  H        4.0344840     1.3296500     0.0646150
units angstrom
no_reorient  #important for SAPT in psi4, default
symmetry c1  #important for SAPT in psi4, default
}

set PROPERTIES_ORIGIN ["COM"]
properties('MP2/aug-cc-pvtz', properties = ['dipole'])
--------------------------------------------------------------------------

    Molecular point group: c1
  Charge       = 0
  Multiplicity = 1
  Basis Set: AUG-CC-PVTZ
    Blend: AUG-CC-PVTZ
  Basis Set: (AUG-CC-PVTZ AUX)
    Blend: AUG-CC-PVTZ-JKFIT

    Orbital Energies [Eh]
    ---------------------

    Doubly Occupied:

       1A    -91.996221     2A    -20.523718     3A    -15.591210
       4A    -11.363066     5A    -11.281927     6A    -11.277976
       7A    -11.263058     8A    -11.262009     9A    -11.251979
      10A     -8.995979    11A     -6.676806    12A     -6.676232
      13A     -6.675571    14A     -1.378459    15A     -1.233700
      16A     -1.184487    17A     -1.020156    18A     -1.000970
      19A     -0.945911    20A     -0.832815    21A     -0.769875
      22A     -0.765780    23A     -0.721079    24A     -0.645134
      25A     -0.641695    26A     -0.625887    27A     -0.579606
      28A     -0.573012    29A     -0.558889    30A     -0.551880
      31A     -0.528192    32A     -0.511431    33A     -0.486370
      34A     -0.437152    35A     -0.400709    36A     -0.357248
      37A     -0.335966

  @DF-RHF Final Energy:  -758.26301640239888

   => Energetics <=

    Nuclear Repulsion Energy =            499.7843796898152959
    One-Electron Energy =               -2032.2504859080620463
    Two-Electron Energy =                 774.2030898158478749
    Total Energy =                       -758.2630164023988755
  Basis Set: (AUG-CC-PVTZ AUX)
    Blend: AUG-CC-PVTZ-RI
    Molecular point group: c1

    Geometry (in Angstrom), charge = 0, multiplicity = 1:

       Center              X                  Y                   Z               Mass
    ------------   -----------------  -----------------  -----------------  -----------------
         S           -1.424360512723    -1.062268332757     0.153966111280    31.972071174400
         O            1.529807487277    -1.415175332757    -0.344552888720    15.994914619570
         N            2.092498487277     0.757858667243     0.104231111280    14.003074004430
         C           -0.229838512723     0.160641667243    -0.048927888720    12.000000000000
         C            1.191699487277    -0.250516332757    -0.105551888720    12.000000000000
         C           -0.805547512723     1.414113667243    -0.179017888720    12.000000000000
         C           -2.216250512723     1.373708667243    -0.090324888720    12.000000000000
         C           -2.690518512723     0.091667667243     0.095547111280    12.000000000000
         C            3.511438487277     0.449158667243     0.167390111280    12.000000000000
         H           -0.234027512723     2.317744667243    -0.369812888720     1.007825032230
         H            1.761858487277     1.585476667243     0.582597111280     1.007825032230
         H           -2.860874512723     2.242914667243    -0.170817888720     1.007825032230
         H           -3.701711312723    -0.191063232757     0.495808311280     1.007825032230
         H            3.757060487277    -0.217731332757    -0.658388888720     1.007825032230
         H            3.785448487277    -0.048008332757     1.104273111280     1.007825032230
         H            4.078120487277     1.376266667243     0.067661111280     1.007825032230

  Basis Set: AUG-CC-PVTZ
    Blend: AUG-CC-PVTZ
  Basis Set: (AUG-CC-PVTZ AUX)
    Blend: AUG-CC-PVTZ-JKFIT
	 Reference Energy          =    -758.2630164023988755 [Eh]
	 Singles Energy            =      -0.0000000000000000 [Eh]
	 Same-Spin Energy          =      -0.4438802180744979 [Eh]
	 Opposite-Spin Energy      =      -1.3485969980961254 [Eh]
	 Correlation Energy        =      -1.7924772161706233 [Eh]
	 Total Energy              =    -760.0554936185694714 [Eh]

	 ================> DF-SCS-MP2 Energies <==================
	-----------------------------------------------------------
	 SCS Same-Spin Scale       =       0.3333333333333333 [-]
	 SCS Opposite-Spin Scale   =       1.2000000000000000 [-]
	 SCS Same-Spin Energy      =      -0.1479600726914993 [Eh]
	 SCS Opposite-Spin Energy  =      -1.6183163977153505 [Eh]
	 SCS Correlation Energy    =      -1.7662764704068499 [Eh]
	 SCS Total Energy          =    -760.0292928728057404 [Eh]
	-----------------------------------------------------------

  Dipole Moment: [D]
     X:    -0.2501      Y:     3.6707      Z:     1.3092     Total:     3.9052

*** Psi4 exiting successfully. Buy a developer a beer!
