                               Psi4 1.3.2 release

  ==> Input File <==

--------------------------------------------------------------------------
#psi4
#
memory 32 gb

molecule  {
0 1
  S       -1.4679970    -1.1088850     0.1509200
  O        1.4861710    -1.4617920    -0.3475990
  N        2.0488620     0.7112420     0.1011850
  C       -0.2734750     0.1140250    -0.0519740
  C        1.1480630    -0.2971330    -0.1085980
  C       -0.8491840     1.3674970    -0.1820640
  C       -2.2598870     1.3270920    -0.0933710
  C       -2.7341550     0.0450510     0.0925010
  C        3.4678020     0.4025420     0.1643440
  H       -0.2880375     2.2490904    -0.5208682
  H        1.7182220     1.5388600     0.5795510
  H       -2.9045110     2.1962980    -0.1738640
  H       -3.7641930    -0.2736150     0.1955190
  H        3.7134240    -0.2643480    -0.6614350
  H        3.7418120    -0.0946250     1.1012270
  H        4.0344840     1.3296500     0.0646150
units angstrom
no_reorient  #important for SAPT in psi4, default
symmetry c1  #important for SAPT in psi4, default
}

set PROPERTIES_ORIGIN ["COM"]
properties('MP2/aug-cc-pvtz', properties = ['dipole'])
--------------------------------------------------------------------------

    Molecular point group: c1
  Charge       = 0
  Multiplicity = 1
  Basis Set: AUG-CC-PVTZ
    Blend: AUG-CC-PVTZ
  Basis Set: (AUG-CC-PVTZ AUX)
    Blend: AUG-CC-PVTZ-JKFIT

    Orbital Energies [Eh]
    ---------------------

    Doubly Occupied:

       1A    -91.996516     2A    -20.523298     3A    -15.590819
       4A    -11.362609     5A    -11.279172     6A    -11.277291
       7A    -11.263295     8A    -11.261638     9A    -11.250949
      10A     -8.996238    11A     -6.677068    12A     -6.676517
      13A     -6.675842    14A     -1.378070    15A     -1.233195
      16A     -1.184295    17A     -1.020526    18A     -1.000505
      19A     -0.946192    20A     -0.832759    21A     -0.770641
      22A     -0.769172    23A     -0.719556    24A     -0.646365
      25A     -0.641677    26A     -0.625892    27A     -0.579338
      28A     -0.573091    29A     -0.555630    30A     -0.552629
      31A     -0.534364    32A     -0.511002    33A     -0.486081
      34A     -0.436657    35A     -0.400071    36A     -0.357028
      37A     -0.336040

  @DF-RHF Final Energy:  -758.26695063706291

   => Energetics <=

    Nuclear Repulsion Energy =            499.8771300479665456
    One-Electron Energy =               -2032.4441090799036829
    Two-Electron Energy =                 774.3000283948741753
    Total Energy =                       -758.2669506370629051
  Basis Set: (AUG-CC-PVTZ AUX)
    Blend: AUG-CC-PVTZ-RI
    Molecular point group: c1

    Geometry (in Angstrom), charge = 0, multiplicity = 1:

       Center              X                  Y                   Z               Mass
    ------------   -----------------  -----------------  -----------------  -----------------
         S           -1.424151703139    -1.061854034536     0.157148079295    31.972071174400
         O            1.530016296861    -1.414761034536    -0.341370920705    15.994914619570
         N            2.092707296861     0.758272965464     0.107413079295    14.003074004430
         C           -0.229629703139     0.161055965464    -0.045745920705    12.000000000000
         C            1.191908296861    -0.250102034536    -0.102369920705    12.000000000000
         C           -0.805338703139     1.414527965464    -0.175835920705    12.000000000000
         C           -2.216041703139     1.374122965464    -0.087142920705    12.000000000000
         C           -2.690309703139     0.092081965464     0.098729079295    12.000000000000
         C            3.511647296861     0.449572965464     0.170572079295    12.000000000000
         H           -0.244192203139     2.296121365464    -0.514640120705     1.007825032230
         H            1.762067296861     1.585890965464     0.585779079295     1.007825032230
         H           -2.860665703139     2.243328965464    -0.167635920705     1.007825032230
         H           -3.720347703139    -0.226584034536     0.201747079295     1.007825032230
         H            3.757269296861    -0.217317034536    -0.655206920705     1.007825032230
         H            3.785657296861    -0.047594034536     1.107455079295     1.007825032230
         H            4.078329296861     1.376680965464     0.070843079295     1.007825032230

  Basis Set: AUG-CC-PVTZ
    Blend: AUG-CC-PVTZ
  Basis Set: (AUG-CC-PVTZ AUX)
    Blend: AUG-CC-PVTZ-JKFIT
	 Reference Energy          =    -758.2669506370629051 [Eh]
	 Singles Energy            =      -0.0000000000000000 [Eh]
	 Same-Spin Energy          =      -0.4436330661169587 [Eh]
	 Opposite-Spin Energy      =      -1.3479978847512912 [Eh]
	 Correlation Energy        =      -1.7916309508682500 [Eh]
	 Total Energy              =    -760.0585815879311440 [Eh]

	 ================> DF-SCS-MP2 Energies <==================
	-----------------------------------------------------------
	 SCS Same-Spin Scale       =       0.3333333333333333 [-]
	 SCS Opposite-Spin Scale   =       1.2000000000000000 [-]
	 SCS Same-Spin Energy      =      -0.1478776887056529 [Eh]
	 SCS Opposite-Spin Energy  =      -1.6175974617015494 [Eh]
	 SCS Correlation Energy    =      -1.7654751504072024 [Eh]
	 SCS Total Energy          =    -760.0324257874700606 [Eh]
	-----------------------------------------------------------

  Dipole Moment: [D]
     X:    -0.3472      Y:     3.5852      Z:     0.9725     Total:     3.7310

*** Psi4 exiting successfully. Buy a developer a beer!
