                               Psi4 1.3.2 release

  ==> Input File <==

--------------------------------------------------------------------------
#psi4
#
memory 32 gb

molecule  {
0 1
  S       -1.4679970    -1.1088850     0.1509200
  O        1.4861710    -1.4617920    -0.3475990
  N        2.0488620     0.7112420     0.1011850
  C       -0.2734750     0.1140250    -0.0519740
  C        1.1480630    -0.2971330    -0.1085980
  C       -0.8491840     1.3674970    -0.1820640
  C       -2.2598870     1.3270920    -0.0933710
  C       -2.7341550     0.0450510     0.0925010
  C        3.4678020     0.4025420     0.1643440
  H       -0.2984109     2.2270528    -0.6688775
  H        1.7182220     1.5388600     0.5795510
  H       -2.9045110     2.1962980    -0.1738640
  H       -3.7641930    -0.2736150     0.1955190
  H        3.7134240    -0.2643480    -0.6614350
  H        3.7418120    -0.0946250     1.1012270
  H        4.0344840     1.3296500     0.0646150
units angstrom
no_reorient  #important for SAPT in psi4, default
symmetry c1  #important for SAPT in psi4, default
}

set PROPERTIES_ORIGIN ["COM"]
properties('MP2/aug-cc-pvtz', properties = ['dipole'])
--------------------------------------------------------------------------

    Molecular point group: c1
  Charge       = 0
  Multiplicity = 1
  Basis Set: AUG-CC-PVTZ
    Blend: AUG-CC-PVTZ
  Basis Set: (AUG-CC-PVTZ AUX)
    Blend: AUG-CC-PVTZ-JKFIT

    Orbital Energies [Eh]
    ---------------------

    Doubly Occupied:

       1A    -91.997185     2A    -20.523341     3A    -15.590795
       4A    -11.362671     5A    -11.279220     6A    -11.278349
       7A    -11.265418     8A    -11.261560     9A    -11.251260
      10A     -8.996894    11A     -6.677717    12A     -6.677168
      13A     -6.676493    14A     -1.378154    15A     -1.233088
      16A     -1.184534    17A     -1.020636    18A     -0.999666
      19A     -0.946080    20A     -0.832327    21A     -0.769938
      22A     -0.768892    23A     -0.714223    24A     -0.646423
      25A     -0.641797    26A     -0.625919    27A     -0.578989
      28A     -0.572263    29A     -0.553420    30A     -0.551171
      31A     -0.535367    32A     -0.510290    33A     -0.485545
      34A     -0.436727    35A     -0.399788    36A     -0.356976
      37A     -0.336301

  @DF-RHF Final Energy:  -758.26197422855535

   => Energetics <=

    Nuclear Repulsion Energy =            499.7370381903401153
    One-Electron Energy =               -2032.1648607561965036
    Two-Electron Energy =                 774.1658483373009858
    Total Energy =                       -758.2619742285553457
  Basis Set: (AUG-CC-PVTZ AUX)
    Blend: AUG-CC-PVTZ-RI
    Molecular point group: c1

    Geometry (in Angstrom), charge = 0, multiplicity = 1:

       Center              X                  Y                   Z               Mass
    ------------   -----------------  -----------------  -----------------  -----------------
         S           -1.424077570294    -1.061696544227     0.158205818363    31.972071174400
         O            1.530090429706    -1.414603544227    -0.340313181637    15.994914619570
         N            2.092781429706     0.758430455773     0.108470818363    14.003074004430
         C           -0.229555570294     0.161213455773    -0.044688181637    12.000000000000
         C            1.191982429706    -0.249944544227    -0.101312181637    12.000000000000
         C           -0.805264570294     1.414685455773    -0.174778181637    12.000000000000
         C           -2.215967570294     1.374280455773    -0.086085181637    12.000000000000
         C           -2.690235570294     0.092239455773     0.099786818363    12.000000000000
         C            3.511721429706     0.449730455773     0.171629818363    12.000000000000
         H           -0.254491470294     2.274241255773    -0.661591681637     1.007825032230
         H            1.762141429706     1.586048455773     0.586836818363     1.007825032230
         H           -2.860591570294     2.243486455773    -0.166578181637     1.007825032230
         H           -3.720273570294    -0.226426544227     0.202804818363     1.007825032230
         H            3.757343429706    -0.217159544227    -0.654149181637     1.007825032230
         H            3.785731429706    -0.047436544227     1.108512818363     1.007825032230
         H            4.078403429706     1.376838455773     0.071900818363     1.007825032230

  Basis Set: AUG-CC-PVTZ
    Blend: AUG-CC-PVTZ
  Basis Set: (AUG-CC-PVTZ AUX)
    Blend: AUG-CC-PVTZ-JKFIT
	 Reference Energy          =    -758.2619742285553457 [Eh]
	 Singles Energy            =      -0.0000000000000000 [Eh]
	 Same-Spin Energy          =      -0.4439544551696838 [Eh]
	 Opposite-Spin Energy      =      -1.3486657703466269 [Eh]
	 Correlation Energy        =      -1.7926202255163108 [Eh]
	 Total Energy              =    -760.0545944540716619 [Eh]

	 ================> DF-SCS-MP2 Energies <==================
	-----------------------------------------------------------
	 SCS Same-Spin Scale       =       0.3333333333333333 [-]
	 SCS Opposite-Spin Scale   =       1.2000000000000000 [-]
	 SCS Same-Spin Energy      =      -0.1479848183898946 [Eh]
	 SCS Opposite-Spin Energy  =      -1.6183989244159522 [Eh]
	 SCS Correlation Energy    =      -1.7663837428058469 [Eh]
	 SCS Total Energy          =    -760.0283579713611744 [Eh]
	-----------------------------------------------------------

  Dipole Moment: [D]
     X:    -0.3821      Y:     3.5276      Z:     0.8712     Total:     3.6536

*** Psi4 exiting successfully. Buy a developer a beer!
