                               Psi4 1.3.2 release

  ==> Input File <==

--------------------------------------------------------------------------
#psi4
#
memory 32 gb

molecule  {
0 1
  S       -1.4679970    -1.1088850     0.1509200
  O        1.4861710    -1.4617920    -0.3475990
  N        2.0488620     0.7112420     0.1011850
  C       -0.2734750     0.1140250    -0.0519740
  C        1.1480630    -0.2971330    -0.1085980
  C       -0.8491840     1.3674970    -0.1820640
  C       -2.2598870     1.3270920    -0.0933710
  C       -2.7341550     0.0450510     0.0925010
  C        3.4678020     0.4025420     0.1643440
  H       -0.2776640     2.2711280    -0.3728590
  H        1.7182220     1.5388600     0.5795510
  H       -2.9100271     2.1835986    -0.2729008
  H       -3.7641930    -0.2736150     0.1955190
  H        3.7134240    -0.2643480    -0.6614350
  H        3.7418120    -0.0946250     1.1012270
  H        4.0344840     1.3296500     0.0646150
units angstrom
no_reorient  #important for SAPT in psi4, default
symmetry c1  #important for SAPT in psi4, default
}

set PROPERTIES_ORIGIN ["COM"]
properties('MP2/aug-cc-pvtz', properties = ['dipole'])
--------------------------------------------------------------------------

    Molecular point group: c1
  Charge       = 0
  Multiplicity = 1
  Basis Set: AUG-CC-PVTZ
    Blend: AUG-CC-PVTZ
  Basis Set: (AUG-CC-PVTZ AUX)
    Blend: AUG-CC-PVTZ-JKFIT

    Orbital Energies [Eh]
    ---------------------

    Doubly Occupied:

       1A    -91.996353     2A    -20.523430     3A    -15.590835
       4A    -11.362708     5A    -11.279401     6A    -11.276844
       7A    -11.262802     8A    -11.261710     9A    -11.251256
      10A     -8.996077    11A     -6.676909    12A     -6.676358
      13A     -6.675684    14A     -1.378140    15A     -1.233317
      16A     -1.184283    17A     -1.020508    18A     -1.000868
      19A     -0.946244    20A     -0.833058    21A     -0.770710
      22A     -0.769301    23A     -0.721726    24A     -0.646328
      25A     -0.641245    26A     -0.625793    27A     -0.579151
      28A     -0.573528    29A     -0.558488    30A     -0.552781
      31A     -0.531773    32A     -0.512258    33A     -0.486226
      34A     -0.436612    35A     -0.400345    36A     -0.357104
      37A     -0.335932

  @DF-RHF Final Energy:  -758.26795826416003

   => Energetics <=

    Nuclear Repulsion Energy =            499.9197262762542664
    One-Electron Energy =               -2032.5231978211397745
    Two-Electron Energy =                 774.3355132807254222
    Total Energy =                       -758.2679582641600291
  Basis Set: (AUG-CC-PVTZ AUX)
    Blend: AUG-CC-PVTZ-RI
    Molecular point group: c1

    Geometry (in Angstrom), charge = 0, multiplicity = 1:

       Center              X                  Y                   Z               Mass
    ------------   -----------------  -----------------  -----------------  -----------------
         S           -1.424186416239    -1.061920769390     0.156798101147    31.972071174400
         O            1.529981583761    -1.414827769390    -0.341720898853    15.994914619570
         N            2.092672583761     0.758206230610     0.107063101147    14.003074004430
         C           -0.229664416239     0.160989230610    -0.046095898853    12.000000000000
         C            1.191873583761    -0.250168769390    -0.102719898853    12.000000000000
         C           -0.805373416239     1.414461230610    -0.176185898853    12.000000000000
         C           -2.216076416239     1.374056230610    -0.087492898853    12.000000000000
         C           -2.690344416239     0.092015230610     0.098379101147    12.000000000000
         C            3.511612583761     0.449506230610     0.170222101147    12.000000000000
         H           -0.233853416239     2.318092230610    -0.366980898853     1.007825032230
         H            1.762032583761     1.585824230610     0.585429101147     1.007825032230
         H           -2.866216516239     2.230562830610    -0.267022698853     1.007825032230
         H           -3.720382416239    -0.226650769390     0.201397101147     1.007825032230
         H            3.757234583761    -0.217383769390    -0.655556898853     1.007825032230
         H            3.785622583761    -0.047660769390     1.107105101147     1.007825032230
         H            4.078294583761     1.376614230610     0.070493101147     1.007825032230

  Basis Set: AUG-CC-PVTZ
    Blend: AUG-CC-PVTZ
  Basis Set: (AUG-CC-PVTZ AUX)
    Blend: AUG-CC-PVTZ-JKFIT
	 Reference Energy          =    -758.2679582641600291 [Eh]
	 Singles Energy            =      -0.0000000000000000 [Eh]
	 Same-Spin Energy          =      -0.4435318303363004 [Eh]
	 Opposite-Spin Energy      =      -1.3478480687621412 [Eh]
	 Correlation Energy        =      -1.7913798990984415 [Eh]
	 Total Energy              =    -760.0593381632584169 [Eh]

	 ================> DF-SCS-MP2 Energies <==================
	-----------------------------------------------------------
	 SCS Same-Spin Scale       =       0.3333333333333333 [-]
	 SCS Opposite-Spin Scale   =       1.2000000000000000 [-]
	 SCS Same-Spin Energy      =      -0.1478439434454334 [Eh]
	 SCS Opposite-Spin Energy  =      -1.6174176825145694 [Eh]
	 SCS Correlation Energy    =      -1.7652616259600029 [Eh]
	 SCS Total Energy          =    -760.0332198901199945 [Eh]
	-----------------------------------------------------------

  Dipole Moment: [D]
     X:    -0.3275      Y:     3.5978      Z:     1.0064     Total:     3.7503

*** Psi4 exiting successfully. Buy a developer a beer!
