                               Psi4 1.3.2 release

  ==> Input File <==

--------------------------------------------------------------------------
#psi4
#
memory 32 gb

molecule  {
0 1
  O        1.0830410    -1.2590340     0.2697030
  O       -3.0460190    -0.6564700     0.3579990
  O       -1.7208190     1.1319200     0.8547670
  N        0.1334480     0.3363350    -1.0591540
  C        2.3767950     0.7348440    -0.1800510
  C        1.1530800    -0.1541890    -0.2667860
  C       -1.1362015    -0.3358624    -0.9971081
  C        3.4883670     0.0910310     0.6318210
  C       -1.9580260     0.1406600     0.1881420
  H        2.7160870     0.9611190    -1.1975940
  H        2.0743670     1.6930220     0.2624750
  H       -0.9793980    -1.4015010    -0.9274340
  H       -1.7176060    -0.1322810    -1.9133280
  H        0.1227157     1.3398366    -1.2044734
  H        3.7876720    -0.8582410     0.1862610
  H        4.3593370     0.7487140     0.6762100
  H        3.1503700    -0.1123850     1.6481590
  H       -3.5474700    -0.2792990     1.1088070
units angstrom
no_reorient  #important for SAPT in psi4, default
symmetry c1  #important for SAPT in psi4, default
}

set PROPERTIES_ORIGIN ["COM"]
properties('MP2/aug-cc-pvtz', properties = ['dipole'])
--------------------------------------------------------------------------

    Molecular point group: c1
  Charge       = 0
  Multiplicity = 1
  Basis Set: AUG-CC-PVTZ
    Blend: AUG-CC-PVTZ
  Basis Set: (AUG-CC-PVTZ AUX)
    Blend: AUG-CC-PVTZ-JKFIT

    Orbital Energies [Eh]
    ---------------------

    Doubly Occupied:

       1A    -20.625398     2A    -20.563024     3A    -20.528591
       4A    -15.592864     5A    -11.399081     6A    -11.355748
       7A    -11.291234     8A    -11.244204     9A    -11.216481
      10A     -1.468378    11A     -1.384861    12A     -1.368504
      13A     -1.241837    14A     -1.063449    15A     -1.005706
      16A     -0.889351    17A     -0.824684    18A     -0.785946
      19A     -0.716066    20A     -0.712638    21A     -0.697495
      22A     -0.652514    23A     -0.645731    24A     -0.636914
      25A     -0.604171    26A     -0.599383    27A     -0.562006
      28A     -0.540148    29A     -0.525036    30A     -0.517430
      31A     -0.495497    32A     -0.491805    33A     -0.469130
      34A     -0.433761    35A     -0.409860

  @DF-RHF Final Energy:  -473.83961676100535

   => Energetics <=

    Nuclear Repulsion Energy =            458.0167463355127211
    One-Electron Energy =               -1556.5948729083120270
    Two-Electron Energy =                 624.7385098117938469
    Total Energy =                       -473.8396167610053453
  Basis Set: (AUG-CC-PVTZ AUX)
    Blend: AUG-CC-PVTZ-RI
    Molecular point group: c1

    Geometry (in Angstrom), charge = 0, multiplicity = 1:

       Center              X                  Y                   Z               Mass
    ------------   -----------------  -----------------  -----------------  -----------------
         O            1.082438998304    -1.258030489185     0.269541229065    15.994914619570
         O           -3.046621001696    -0.655466489185     0.357837229065    15.994914619570
         O           -1.721421001696     1.132923510815     0.854605229065    15.994914619570
         N            0.132845998304     0.337338510815    -1.059315770935    14.003074004430
         C            2.376192998304     0.735847510815    -0.180212770935    12.000000000000
         C            1.152477998304    -0.153185489185    -0.266947770935    12.000000000000
         C           -1.136803501696    -0.334858889185    -0.997269870935    12.000000000000
         C            3.487764998304     0.092034510815     0.631659229065    12.000000000000
         C           -1.958628001696     0.141663510815     0.187980229065    12.000000000000
         H            2.715484998304     0.962122510815    -1.197755770935     1.007825032230
         H            2.073764998304     1.694025510815     0.262313229065     1.007825032230
         H           -0.980000001696    -1.400497489185    -0.927595770935     1.007825032230
         H           -1.718208001696    -0.131277489185    -1.913489770935     1.007825032230
         H            0.122113698304     1.340840110815    -1.204635170935     1.007825032230
         H            3.787069998304    -0.857237489185     0.186099229065     1.007825032230
         H            4.358734998304     0.749717510815     0.676048229065     1.007825032230
         H            3.149767998304    -0.111381489185     1.647997229065     1.007825032230
         H           -3.548072001696    -0.278295489185     1.108645229065     1.007825032230

  Basis Set: AUG-CC-PVTZ
    Blend: AUG-CC-PVTZ
  Basis Set: (AUG-CC-PVTZ AUX)
    Blend: AUG-CC-PVTZ-JKFIT
	 Reference Energy          =    -473.8396167610053453 [Eh]
	 Singles Energy            =      -0.0000000000000000 [Eh]
	 Same-Spin Energy          =      -0.4667056735674783 [Eh]
	 Opposite-Spin Energy      =      -1.4576769951378776 [Eh]
	 Correlation Energy        =      -1.9243826687053560 [Eh]
	 Total Energy              =    -475.7639994297106796 [Eh]

	 ================> DF-SCS-MP2 Energies <==================
	-----------------------------------------------------------
	 SCS Same-Spin Scale       =       0.3333333333333333 [-]
	 SCS Opposite-Spin Scale   =       1.2000000000000000 [-]
	 SCS Same-Spin Energy      =      -0.1555685578558261 [Eh]
	 SCS Opposite-Spin Energy  =      -1.7492123941654532 [Eh]
	 SCS Correlation Energy    =      -1.9047809520212793 [Eh]
	 SCS Total Energy          =    -475.7443977130266148 [Eh]
	-----------------------------------------------------------

  Dipole Moment: [D]
     X:    -0.9457      Y:     1.8745      Z:    -1.7470     Total:     2.7313

*** Psi4 exiting successfully. Buy a developer a beer!
