                               Psi4 1.4a3.dev225

  ==> Input File <==

--------------------------------------------------------------------------
#psi4
#
memory 32 gb

molecule  {
0 1
  O        0.8764270    -0.2428500     1.2911470
  O       -3.1675390     0.0980960     0.5443480
  O       -1.5839830     1.3406500    -0.5070920
  N        0.0834400    -0.8734940    -0.7544630
  C        2.2681300     0.2178930    -0.6380450
  C        1.0330250    -0.3000120     0.0721840
  C       -1.2394860    -1.0499030    -0.2084880
  C        3.4385850     0.4137260     0.3159750
  C       -1.9785770     0.2694000    -0.0851210
  H        2.5310470    -0.4685700    -1.4513520
  H        1.9929790     1.1708880    -1.1091590
  H       -1.1549390    -1.4972460     0.7835340
  H       -1.8230450    -1.7308360    -0.8360530
  H        0.1282230    -0.6025030    -1.7308050
  H        3.7379630    -0.5375510     0.7615240
  H        4.2975370     0.8343390    -0.2133880
  H        3.1581410     1.0869690     1.1269820
  H       -3.5728399     0.9670662     0.5828976
units angstrom
no_reorient  #important for SAPT in psi4, default
symmetry c1  #important for SAPT in psi4, default
}

set PROPERTIES_ORIGIN ["COM"]
properties('MP2/aug-cc-pvtz', properties = ['dipole'])
--------------------------------------------------------------------------

    Molecular point group: c1
  Charge       = 0
  Multiplicity = 1
  Basis Set: AUG-CC-PVTZ
    Blend: AUG-CC-PVTZ
  Basis Set: (AUG-CC-PVTZ AUX)
    Blend: AUG-CC-PVTZ-JKFIT

    Orbital Energies [Eh]
    ---------------------

    Doubly Occupied:

       1A    -20.623390     2A    -20.561304     3A    -20.527742
       4A    -15.593568     5A    -11.398110     6A    -11.355342
       7A    -11.292111     8A    -11.243821     9A    -11.217504
      10A     -1.472177    11A     -1.384058    12A     -1.368548
      13A     -1.241208    14A     -1.062351    15A     -1.005816
      16A     -0.889823    17A     -0.827317    18A     -0.784685
      19A     -0.717343    20A     -0.711513    21A     -0.698665
      22A     -0.653330    23A     -0.646978    24A     -0.630579
      25A     -0.605017    26A     -0.599225    27A     -0.559303
      28A     -0.544624    29A     -0.523966    30A     -0.515173
      31A     -0.495283    32A     -0.490046    33A     -0.469284
      34A     -0.432685    35A     -0.411270

  @DF-RHF Final Energy:  -473.84071463610866

   => Energetics <=

    Nuclear Repulsion Energy =            460.5913305696562361
    One-Electron Energy =               -1561.7577687111263458
    Two-Electron Energy =                 627.3257235053613385
    Total Energy =                       -473.8407146361087143
  Basis Set: (AUG-CC-PVTZ AUX)
    Blend: AUG-CC-PVTZ-RI
    Molecular point group: c1

    Geometry (in Angstrom), charge = 0, multiplicity = 1:

       Center              X                  Y                   Z               Mass
    ------------   -----------------  -----------------  -----------------  -----------------
         O            0.946513952640    -0.248392375277     1.275437874887    15.994914619570
         O           -3.097452047360     0.092553624723     0.528638874887    15.994914619570
         O           -1.513896047360     1.335107624723    -0.522801125113    15.994914619570
         N            0.153526952640    -0.879036375277    -0.770172125113    14.003074004430
         C            2.338216952640     0.212350624723    -0.653754125113    12.000000000000
         C            1.103111952640    -0.305554375277     0.056474874887    12.000000000000
         C           -1.169399047360    -1.055445375277    -0.224197125113    12.000000000000
         C            3.508671952640     0.408183624723     0.300265874887    12.000000000000
         C           -1.908490047360     0.263857624723    -0.100830125113    12.000000000000
         H            2.601133952640    -0.474112375277    -1.467061125113     1.007825032230
         H            2.063065952640     1.165345624723    -1.124868125113     1.007825032230
         H           -1.084852047360    -1.502788375277     0.767824874887     1.007825032230
         H           -1.752958047360    -1.736378375277    -0.851762125113     1.007825032230
         H            0.198309952640    -0.608045375277    -1.746514125113     1.007825032230
         H            3.808049952640    -0.543093375277     0.745814874887     1.007825032230
         H            4.367623952640     0.828796624723    -0.229097125113     1.007825032230
         H            3.228227952640     1.081426624723     1.111272874887     1.007825032230
         H           -3.502752947360     0.961523824723     0.567188474887     1.007825032230

  Basis Set: AUG-CC-PVTZ
    Blend: AUG-CC-PVTZ
  Basis Set: (AUG-CC-PVTZ AUX)
    Blend: AUG-CC-PVTZ-JKFIT
	 Reference Energy          =    -473.8407146361086575 [Eh]
	 Singles Energy            =      -0.0000000000000000 [Eh]
	 Same-Spin Energy          =      -0.4665680103848425 [Eh]
	 Opposite-Spin Energy      =      -1.4573947839344976 [Eh]
	 Correlation Energy        =      -1.9239627943193400 [Eh]
	 Total Energy              =    -475.7646774304279802 [Eh]

	 ================> DF-SCS-MP2 Energies <==================
	-----------------------------------------------------------
	 SCS Same-Spin Scale       =       0.3333333333333333 [-]
	 SCS Opposite-Spin Scale   =       1.2000000000000000 [-]
	 SCS Same-Spin Energy      =      -0.1555226701282808 [Eh]
	 SCS Opposite-Spin Energy  =      -1.7488737407213970 [Eh]
	 SCS Correlation Energy    =      -1.9043964108496778 [Eh]
	 SCS Total Energy          =    -475.7451110469583568 [Eh]
	-----------------------------------------------------------

  Dipole Moment: [D]
     X:    -0.8865      Y:    -0.8024      Z:    -2.6685     Total:     2.9241

*** Psi4 exiting successfully. Buy a developer a beer!
