                               Psi4 1.3.2 release

  ==> Input File <==

--------------------------------------------------------------------------
#psi4
#
memory 32 gb

molecule  {
0 1
  O        1.0830410    -1.2590340     0.2697030
  O       -3.0460190    -0.6564700     0.3579990
  O       -1.7208190     1.1319200     0.8547670
  N        0.1334480     0.3363350    -1.0591540
  C        2.3767950     0.7348440    -0.1800510
  C        1.0723095    -0.2128691    -0.2725109
  C       -1.1420340    -0.3248900    -0.9988550
  C        3.4883670     0.0910310     0.6318210
  C       -1.9580260     0.1406600     0.1881420
  H        2.7160870     0.9611190    -1.1975940
  H        2.0743670     1.6930220     0.2624750
  H       -0.9793980    -1.4015010    -0.9274340
  H       -1.7176060    -0.1322810    -1.9133280
  H        0.1138710     1.3396710    -1.2046940
  H        3.7876720    -0.8582410     0.1862610
  H        4.3593370     0.7487140     0.6762100
  H        3.1503700    -0.1123850     1.6481590
  H       -3.5474700    -0.2792990     1.1088070
units angstrom
no_reorient  #important for SAPT in psi4, default
symmetry c1  #important for SAPT in psi4, default
}

set PROPERTIES_ORIGIN ["COM"]
properties('MP2/aug-cc-pvtz', properties = ['dipole'])
--------------------------------------------------------------------------

    Molecular point group: c1
  Charge       = 0
  Multiplicity = 1
  Basis Set: AUG-CC-PVTZ
    Blend: AUG-CC-PVTZ
  Basis Set: (AUG-CC-PVTZ AUX)
    Blend: AUG-CC-PVTZ-JKFIT

    Orbital Energies [Eh]
    ---------------------

    Doubly Occupied:

       1A    -20.628016     2A    -20.566072     3A    -20.532854
       4A    -15.596177     5A    -11.402005     6A    -11.349803
       7A    -11.293367     8A    -11.236421     9A    -11.210360
      10A     -1.471380    11A     -1.417566    12A     -1.372048
      13A     -1.261417    14A     -1.046356    15A     -1.007466
      16A     -0.875752    17A     -0.823844    18A     -0.802397
      19A     -0.719303    20A     -0.714948    21A     -0.697587
      22A     -0.659643    23A     -0.647356    24A     -0.631090
      25A     -0.607194    26A     -0.603298    27A     -0.566128
      28A     -0.553989    29A     -0.522471    30A     -0.512256
      31A     -0.495779    32A     -0.490381    33A     -0.473808
      34A     -0.425897    35A     -0.410520

  @DF-RHF Final Energy:  -473.83223727022738

   => Energetics <=

    Nuclear Repulsion Energy =            458.9103061193674193
    One-Electron Energy =               -1558.2351845003850030
    Two-Electron Energy =                 625.4926411107903732
    Total Energy =                       -473.8322372702273242
  Basis Set: (AUG-CC-PVTZ AUX)
    Blend: AUG-CC-PVTZ-RI
    Molecular point group: c1

    Geometry (in Angstrom), charge = 0, multiplicity = 1:

       Center              X                  Y                   Z               Mass
    ------------   -----------------  -----------------  -----------------  -----------------
         O            1.090436586894    -1.253660986878     0.270227060982    15.994914619570
         O           -3.038623413106    -0.651096986878     0.358523060982    15.994914619570
         O           -1.713423413106     1.137293013122     0.855291060982    15.994914619570
         N            0.140843586894     0.341708013122    -1.058629939018    14.003074004430
         C            2.384190586894     0.740217013122    -0.179526939018    12.000000000000
         C            1.079705086894    -0.207496086878    -0.271986839018    12.000000000000
         C           -1.134638413106    -0.319516986878    -0.998330939018    12.000000000000
         C            3.495762586894     0.096404013122     0.632345060982    12.000000000000
         C           -1.950630413106     0.146033013122     0.188666060982    12.000000000000
         H            2.723482586894     0.966492013122    -1.197069939018     1.007825032230
         H            2.081762586894     1.698395013122     0.262999060982     1.007825032230
         H           -0.972002413106    -1.396127986878    -0.926909939018     1.007825032230
         H           -1.710210413106    -0.126907986878    -1.912803939018     1.007825032230
         H            0.121266586894     1.345044013122    -1.204169939018     1.007825032230
         H            3.795067586894    -0.852867986878     0.186785060982     1.007825032230
         H            4.366732586894     0.754087013122     0.676734060982     1.007825032230
         H            3.157765586894    -0.107011986878     1.648683060982     1.007825032230
         H           -3.540074413106    -0.273925986878     1.109331060982     1.007825032230

  Basis Set: AUG-CC-PVTZ
    Blend: AUG-CC-PVTZ
  Basis Set: (AUG-CC-PVTZ AUX)
    Blend: AUG-CC-PVTZ-JKFIT
	 Reference Energy          =    -473.8322372702273810 [Eh]
	 Singles Energy            =      -0.0000000000000000 [Eh]
	 Same-Spin Energy          =      -0.4657162087726136 [Eh]
	 Opposite-Spin Energy      =      -1.4556811193877839 [Eh]
	 Correlation Energy        =      -1.9213973281603975 [Eh]
	 Total Energy              =    -475.7536345983878050 [Eh]

	 ================> DF-SCS-MP2 Energies <==================
	-----------------------------------------------------------
	 SCS Same-Spin Scale       =       0.3333333333333333 [-]
	 SCS Opposite-Spin Scale   =       1.2000000000000000 [-]
	 SCS Same-Spin Energy      =      -0.1552387362575379 [Eh]
	 SCS Opposite-Spin Energy  =      -1.7468173432653407 [Eh]
	 SCS Correlation Energy    =      -1.9020560795228785 [Eh]
	 SCS Total Energy          =    -475.7342933497502599 [Eh]
	-----------------------------------------------------------

  Dipole Moment: [D]
     X:    -1.4582      Y:     1.6204      Z:    -1.8125     Total:     2.8350

*** Psi4 exiting successfully. Buy a developer a beer!
