                               Psi4 1.3.2 release

  ==> Input File <==

--------------------------------------------------------------------------
#psi4
#
memory 32 gb

molecule  {
0 1
  O        1.0830410    -1.2590340     0.2697030
  O       -3.0460190    -0.6564700     0.3579990
  O       -1.7208190     1.1319200     0.8547670
  N        0.1268805     0.3265345    -1.0566783
  C        2.3825540     0.7260377    -0.1720457
  C        1.1530800    -0.1541890    -0.2667860
  C       -1.1420340    -0.3248900    -0.9988550
  C        3.4883670     0.0910310     0.6318210
  C       -1.9580260     0.1406600     0.1881420
  H        2.7160870     0.9611190    -1.1975940
  H        2.0743670     1.6930220     0.2624750
  H       -0.9793980    -1.4015010    -0.9274340
  H       -1.7176060    -0.1322810    -1.9133280
  H        0.1138710     1.3396710    -1.2046940
  H        3.7876720    -0.8582410     0.1862610
  H        4.3593370     0.7487140     0.6762100
  H        3.1503700    -0.1123850     1.6481590
  H       -3.5474700    -0.2792990     1.1088070
units angstrom
no_reorient  #important for SAPT in psi4, default
symmetry c1  #important for SAPT in psi4, default
}

set PROPERTIES_ORIGIN ["COM"]
properties('MP2/aug-cc-pvtz', properties = ['dipole'])
--------------------------------------------------------------------------

    Molecular point group: c1
  Charge       = 0
  Multiplicity = 1
  Basis Set: AUG-CC-PVTZ
    Blend: AUG-CC-PVTZ
  Basis Set: (AUG-CC-PVTZ AUX)
    Blend: AUG-CC-PVTZ-JKFIT

    Orbital Energies [Eh]
    ---------------------

    Doubly Occupied:

       1A    -20.625258     2A    -20.562806     3A    -20.527978
       4A    -15.593299     5A    -11.398572     6A    -11.355944
       7A    -11.290235     8A    -11.245568     9A    -11.216329
      10A     -1.468341    11A     -1.385032    12A     -1.368429
      13A     -1.242686    14A     -1.065059    15A     -1.006573
      16A     -0.889978    17A     -0.825053    18A     -0.783137
      19A     -0.716036    20A     -0.713431    21A     -0.698570
      22A     -0.654518    23A     -0.643931    24A     -0.636437
      25A     -0.604359    26A     -0.599935    27A     -0.558113
      28A     -0.540794    29A     -0.529269    30A     -0.517799
      31A     -0.494122    32A     -0.490667    33A     -0.469238
      34A     -0.433661    35A     -0.409329

  @DF-RHF Final Energy:  -473.83906233334574

   => Energetics <=

    Nuclear Repulsion Energy =            458.2397163272294733
    One-Electron Energy =               -1557.0365848000474216
    Two-Electron Energy =                 624.9578061394722681
    Total Energy =                       -473.8390623333457370
  Basis Set: (AUG-CC-PVTZ AUX)
    Blend: AUG-CC-PVTZ-RI
    Molecular point group: c1

    Geometry (in Angstrom), charge = 0, multiplicity = 1:

       Center              X                  Y                   Z               Mass
    ------------   -----------------  -----------------  -----------------  -----------------
         O            1.083215455367    -1.257180402843     0.268705372567    15.994914619570
         O           -3.045844544633    -0.654616402843     0.357001372567    15.994914619570
         O           -1.720644544633     1.133773597157     0.853769372567    15.994914619570
         N            0.127054955367     0.328388097157    -1.057675927433    14.003074004430
         C            2.382728455367     0.727891297157    -0.173043327433    12.000000000000
         C            1.153254455367    -0.152335402843    -0.267783627433    12.000000000000
         C           -1.141859544633    -0.323036402843    -0.999852627433    12.000000000000
         C            3.488541455367     0.092884597157     0.630823372567    12.000000000000
         C           -1.957851544633     0.142513597157     0.187144372567    12.000000000000
         H            2.716261455367     0.962972597157    -1.198591627433     1.007825032230
         H            2.074541455367     1.694875597157     0.261477372567     1.007825032230
         H           -0.979223544633    -1.399647402843    -0.928431627433     1.007825032230
         H           -1.717431544633    -0.130427402843    -1.914325627433     1.007825032230
         H            0.114045455367     1.341524597157    -1.205691627433     1.007825032230
         H            3.787846455367    -0.856387402843     0.185263372567     1.007825032230
         H            4.359511455367     0.750567597157     0.675212372567     1.007825032230
         H            3.150544455367    -0.110531402843     1.647161372567     1.007825032230
         H           -3.547295544633    -0.277445402843     1.107809372567     1.007825032230

  Basis Set: AUG-CC-PVTZ
    Blend: AUG-CC-PVTZ
  Basis Set: (AUG-CC-PVTZ AUX)
    Blend: AUG-CC-PVTZ-JKFIT
	 Reference Energy          =    -473.8390623333457370 [Eh]
	 Singles Energy            =      -0.0000000000000000 [Eh]
	 Same-Spin Energy          =      -0.4668990468839714 [Eh]
	 Opposite-Spin Energy      =      -1.4578442288586888 [Eh]
	 Correlation Energy        =      -1.9247432757426601 [Eh]
	 Total Energy              =    -475.7638056090884220 [Eh]

	 ================> DF-SCS-MP2 Energies <==================
	-----------------------------------------------------------
	 SCS Same-Spin Scale       =       0.3333333333333333 [-]
	 SCS Opposite-Spin Scale   =       1.2000000000000000 [-]
	 SCS Same-Spin Energy      =      -0.1556330156279905 [Eh]
	 SCS Opposite-Spin Energy  =      -1.7494130746304266 [Eh]
	 SCS Correlation Energy    =      -1.9050460902584170 [Eh]
	 SCS Total Energy          =    -475.7441084236041320 [Eh]
	-----------------------------------------------------------

  Dipole Moment: [D]
     X:    -0.9175      Y:     1.8908      Z:    -1.7476     Total:     2.7334

*** Psi4 exiting successfully. Buy a developer a beer!
