                               Psi4 1.3.2 release

  ==> Input File <==

--------------------------------------------------------------------------
#psi4
#
memory 32 gb

molecule  {
0 1
  O        1.0830410    -1.2590340     0.2697030
  O       -3.0460190    -0.6564700     0.3579990
  O       -1.7208190     1.1319200     0.8547670
  N        0.1334480     0.3363350    -1.0591540
  C        2.3767950     0.7348440    -0.1800510
  C        1.1530800    -0.1541890    -0.2667860
  C       -1.1420340    -0.3248900    -0.9988550
  C        3.4883670     0.0910310     0.6318210
  C       -1.9041219     0.1099059     0.1097294
  H        2.7160870     0.9611190    -1.1975940
  H        2.0743670     1.6930220     0.2624750
  H       -0.9793980    -1.4015010    -0.9274340
  H       -1.7176060    -0.1322810    -1.9133280
  H        0.1138710     1.3396710    -1.2046940
  H        3.7876720    -0.8582410     0.1862610
  H        4.3593370     0.7487140     0.6762100
  H        3.1503700    -0.1123850     1.6481590
  H       -3.5474700    -0.2792990     1.1088070
units angstrom
no_reorient  #important for SAPT in psi4, default
symmetry c1  #important for SAPT in psi4, default
}

set PROPERTIES_ORIGIN ["COM"]
properties('MP2/aug-cc-pvtz', properties = ['dipole'])
--------------------------------------------------------------------------

    Molecular point group: c1
  Charge       = 0
  Multiplicity = 1
  Basis Set: AUG-CC-PVTZ
    Blend: AUG-CC-PVTZ
  Basis Set: (AUG-CC-PVTZ AUX)
    Blend: AUG-CC-PVTZ-JKFIT

    Orbital Energies [Eh]
    ---------------------

    Doubly Occupied:

       1A    -20.617036     2A    -20.558925     3A    -20.532639
       4A    -15.598399     5A    -11.408097     6A    -11.360203
       7A    -11.295948     8A    -11.246596     9A    -11.218147
      10A     -1.442901    11A     -1.388762    12A     -1.333222
      13A     -1.250121    14A     -1.073572    15A     -1.030763
      16A     -0.894439    17A     -0.822083    18A     -0.791233
      19A     -0.721954    20A     -0.711068    21A     -0.693545
      22A     -0.656171    23A     -0.642448    24A     -0.637026
      25A     -0.603258    26A     -0.588538    27A     -0.559707
      28A     -0.544718    29A     -0.528037    30A     -0.519407
      31A     -0.496232    32A     -0.472957    33A     -0.465360
      34A     -0.438414    35A     -0.418408

  @DF-RHF Final Energy:  -473.81786068720237

   => Energetics <=

    Nuclear Repulsion Energy =            458.2163142872959725
    One-Electron Energy =               -1556.9476801090568188
    Two-Electron Energy =                 624.9135051345584770
    Total Energy =                       -473.8178606872023693
  Basis Set: (AUG-CC-PVTZ AUX)
    Blend: AUG-CC-PVTZ-RI
    Molecular point group: c1

    Geometry (in Angstrom), charge = 0, multiplicity = 1:

       Center              X                  Y                   Z               Mass
    ------------   -----------------  -----------------  -----------------  -----------------
         O            1.078105464783    -1.256217956909     0.276882517206    15.994914619570
         O           -3.050954535217    -0.653653956909     0.365178517206    15.994914619570
         O           -1.725754535217     1.134736043091     0.861946517206    15.994914619570
         N            0.128512464783     0.339151043091    -1.051974482794    14.003074004430
         C            2.371859464783     0.737660043091    -0.172871482794    12.000000000000
         C            1.148144464783    -0.151372956909    -0.259606482794    12.000000000000
         C           -1.146969535217    -0.322073956909    -0.991675482794    12.000000000000
         C            3.483431464783     0.093847043091     0.639000517206    12.000000000000
         C           -1.909057435217     0.112721943091     0.116908917206    12.000000000000
         H            2.711151464783     0.963935043091    -1.190414482794     1.007825032230
         H            2.069431464783     1.695838043091     0.269654517206     1.007825032230
         H           -0.984333535217    -1.398684956909    -0.920254482794     1.007825032230
         H           -1.722541535217    -0.129464956909    -1.906148482794     1.007825032230
         H            0.108935464783     1.342487043091    -1.197514482794     1.007825032230
         H            3.782736464783    -0.855424956909     0.193440517206     1.007825032230
         H            4.354401464783     0.751530043091     0.683389517206     1.007825032230
         H            3.145434464783    -0.109568956909     1.655338517206     1.007825032230
         H           -3.552405535217    -0.276482956909     1.115986517206     1.007825032230

  Basis Set: AUG-CC-PVTZ
    Blend: AUG-CC-PVTZ
  Basis Set: (AUG-CC-PVTZ AUX)
    Blend: AUG-CC-PVTZ-JKFIT
	 Reference Energy          =    -473.8178606872023693 [Eh]
	 Singles Energy            =      -0.0000000000000000 [Eh]
	 Same-Spin Energy          =      -0.4689637256263458 [Eh]
	 Opposite-Spin Energy      =      -1.4621750731268404 [Eh]
	 Correlation Energy        =      -1.9311387987531861 [Eh]
	 Total Energy              =    -475.7489994859555509 [Eh]

	 ================> DF-SCS-MP2 Energies <==================
	-----------------------------------------------------------
	 SCS Same-Spin Scale       =       0.3333333333333333 [-]
	 SCS Opposite-Spin Scale   =       1.2000000000000000 [-]
	 SCS Same-Spin Energy      =      -0.1563212418754486 [Eh]
	 SCS Opposite-Spin Energy  =      -1.7546100877522084 [Eh]
	 SCS Correlation Energy    =      -1.9109313296276569 [Eh]
	 SCS Total Energy          =    -475.7287920168300275 [Eh]
	-----------------------------------------------------------

  Dipole Moment: [D]
     X:    -0.5515      Y:     1.7636      Z:    -2.1085     Total:     2.8036

*** Psi4 exiting successfully. Buy a developer a beer!
