                               Psi4 1.3.2 release

  ==> Input File <==

--------------------------------------------------------------------------
#psi4
#
memory 32 gb

molecule  {
0 1
  O        1.0830410    -1.2590340     0.2697030
  O       -3.0460190    -0.6564700     0.3579990
  O       -1.7208190     1.1319200     0.8547670
  N        0.1744655     0.3943274    -1.0727349
  C        2.3402999     0.7862370    -0.2282002
  C        1.1530800    -0.1541890    -0.2667860
  C       -1.1420340    -0.3248900    -0.9988550
  C        3.4883670     0.0910310     0.6318210
  C       -1.9580260     0.1406600     0.1881420
  H        2.7160870     0.9611190    -1.1975940
  H        2.0743670     1.6930220     0.2624750
  H       -0.9793980    -1.4015010    -0.9274340
  H       -1.7176060    -0.1322810    -1.9133280
  H        0.1138710     1.3396710    -1.2046940
  H        3.7876720    -0.8582410     0.1862610
  H        4.3593370     0.7487140     0.6762100
  H        3.1503700    -0.1123850     1.6481590
  H       -3.5474700    -0.2792990     1.1088070
units angstrom
no_reorient  #important for SAPT in psi4, default
symmetry c1  #important for SAPT in psi4, default
}

set PROPERTIES_ORIGIN ["COM"]
properties('MP2/aug-cc-pvtz', properties = ['dipole'])
--------------------------------------------------------------------------

    Molecular point group: c1
  Charge       = 0
  Multiplicity = 1
  Basis Set: AUG-CC-PVTZ
    Blend: AUG-CC-PVTZ
  Basis Set: (AUG-CC-PVTZ AUX)
    Blend: AUG-CC-PVTZ-JKFIT

    Orbital Energies [Eh]
    ---------------------

    Doubly Occupied:

       1A    -20.626980     2A    -20.563809     3A    -20.533956
       4A    -15.590346     5A    -11.401389     6A    -11.358148
       7A    -11.294902     8A    -11.237560     9A    -11.217367
      10A     -1.469778    11A     -1.384824    12A     -1.369716
      13A     -1.239620    14A     -1.055854    15A     -1.003518
      16A     -0.888740    17A     -0.823063    18A     -0.802048
      19A     -0.716739    20A     -0.711116    21A     -0.696832
      22A     -0.650907    23A     -0.644475    24A     -0.640421
      25A     -0.603641    26A     -0.596452    27A     -0.566507
      28A     -0.540291    29A     -0.520866    30A     -0.507209
      31A     -0.494837    32A     -0.492064    33A     -0.469507
      34A     -0.435048    35A     -0.415253

  @DF-RHF Final Energy:  -473.82667140010597

   => Energetics <=

    Nuclear Repulsion Energy =            456.8667632033542532
    One-Electron Energy =               -1554.2593105403004756
    Two-Electron Energy =                 623.5658759368403707
    Total Energy =                       -473.8266714001059654
  Basis Set: (AUG-CC-PVTZ AUX)
    Blend: AUG-CC-PVTZ-RI
    Molecular point group: c1

    Geometry (in Angstrom), charge = 0, multiplicity = 1:

       Center              X                  Y                   Z               Mass
    ------------   -----------------  -----------------  -----------------  -----------------
         O            1.082000063854    -1.269935804986     0.275562596779    15.994914619570
         O           -3.047059936146    -0.667371804986     0.363858596779    15.994914619570
         O           -1.721859936146     1.121018195014     0.860626596779    15.994914619570
         N            0.173424563854     0.383425595014    -1.066875303221    14.003074004430
         C            2.339258963854     0.775335195014    -0.222340603221    12.000000000000
         C            1.152039063854    -0.165090804986    -0.260926403221    12.000000000000
         C           -1.143074936146    -0.335791804986    -0.992995403221    12.000000000000
         C            3.487326063854     0.080129195014     0.637680596779    12.000000000000
         C           -1.959066936146     0.129758195014     0.194001596779    12.000000000000
         H            2.715046063854     0.950217195014    -1.191734403221     1.007825032230
         H            2.073326063854     1.682120195014     0.268334596779     1.007825032230
         H           -0.980438936146    -1.412402804986    -0.921574403221     1.007825032230
         H           -1.718646936146    -0.143182804986    -1.907468403221     1.007825032230
         H            0.112830063854     1.328769195014    -1.198834403221     1.007825032230
         H            3.786631063854    -0.869142804986     0.192120596779     1.007825032230
         H            4.358296063854     0.737812195014     0.682069596779     1.007825032230
         H            3.149329063854    -0.123286804986     1.654018596779     1.007825032230
         H           -3.548510936146    -0.290200804986     1.114666596779     1.007825032230

  Basis Set: AUG-CC-PVTZ
    Blend: AUG-CC-PVTZ
  Basis Set: (AUG-CC-PVTZ AUX)
    Blend: AUG-CC-PVTZ-JKFIT
	 Reference Energy          =    -473.8266714001059654 [Eh]
	 Singles Energy            =      -0.0000000000000000 [Eh]
	 Same-Spin Energy          =      -0.4663151550488608 [Eh]
	 Opposite-Spin Energy      =      -1.4582031047819151 [Eh]
	 Correlation Energy        =      -1.9245182598307760 [Eh]
	 Total Energy              =    -475.7511896599367560 [Eh]

	 ================> DF-SCS-MP2 Energies <==================
	-----------------------------------------------------------
	 SCS Same-Spin Scale       =       0.3333333333333333 [-]
	 SCS Opposite-Spin Scale   =       1.2000000000000000 [-]
	 SCS Same-Spin Energy      =      -0.1554383850162869 [Eh]
	 SCS Opposite-Spin Energy  =      -1.7498437257382979 [Eh]
	 SCS Correlation Energy    =      -1.9052821107545848 [Eh]
	 SCS Total Energy          =    -475.7319535108605351 [Eh]
	-----------------------------------------------------------

  Dipole Moment: [D]
     X:    -1.1295      Y:     1.7786      Z:    -1.7288     Total:     2.7254

*** Psi4 exiting successfully. Buy a developer a beer!
