                               Psi4 1.3.2 release

  ==> Input File <==

--------------------------------------------------------------------------
#psi4
#
memory 32 gb

molecule  {
0 1
  O        1.0830410    -1.2590340     0.2697030
  O       -3.0460190    -0.6564700     0.3579990
  O       -1.7208190     1.1319200     0.8547670
  N        0.1334480     0.3363350    -1.0591540
  C        2.3767950     0.7348440    -0.1800510
  C        1.1572389    -0.1429744    -0.2652869
  C       -1.1420340    -0.3248900    -0.9988550
  C        3.4883670     0.0910310     0.6318210
  C       -1.9580260     0.1406600     0.1881420
  H        2.7160870     0.9611190    -1.1975940
  H        2.0743670     1.6930220     0.2624750
  H       -0.9793980    -1.4015010    -0.9274340
  H       -1.7176060    -0.1322810    -1.9133280
  H        0.1210919     1.3405049    -1.1996474
  H        3.7876720    -0.8582410     0.1862610
  H        4.3593370     0.7487140     0.6762100
  H        3.1503700    -0.1123850     1.6481590
  H       -3.5474700    -0.2792990     1.1088070
units angstrom
no_reorient  #important for SAPT in psi4, default
symmetry c1  #important for SAPT in psi4, default
}

set PROPERTIES_ORIGIN ["COM"]
properties('MP2/aug-cc-pvtz', properties = ['dipole'])
--------------------------------------------------------------------------

    Molecular point group: c1
  Charge       = 0
  Multiplicity = 1
  Basis Set: AUG-CC-PVTZ
    Blend: AUG-CC-PVTZ
  Basis Set: (AUG-CC-PVTZ AUX)
    Blend: AUG-CC-PVTZ-JKFIT

    Orbital Energies [Eh]
    ---------------------

    Doubly Occupied:

       1A    -20.625532     2A    -20.562959     3A    -20.527388
       4A    -15.593497     5A    -11.399095     6A    -11.356718
       7A    -11.291316     8A    -11.244898     9A    -11.217039
      10A     -1.468563    11A     -1.379531    12A     -1.368224
      13A     -1.240982    14A     -1.065635    15A     -1.006738
      16A     -0.891369    17A     -0.825268    18A     -0.784328
      19A     -0.716195    20A     -0.713203    21A     -0.698334
      22A     -0.653175    23A     -0.644125    24A     -0.637782
      25A     -0.604034    26A     -0.598225    27A     -0.559215
      28A     -0.539015    29A     -0.525853    30A     -0.517424
      31A     -0.495498    32A     -0.491560    33A     -0.468965
      34A     -0.434166    35A     -0.409600

  @DF-RHF Final Energy:  -473.83858976857783

   => Energetics <=

    Nuclear Repulsion Energy =            457.9645810962690575
    One-Electron Energy =               -1556.4954435324336828
    Two-Electron Energy =                 624.6922726675868489
    Total Energy =                       -473.8385897685777763
  Basis Set: (AUG-CC-PVTZ AUX)
    Blend: AUG-CC-PVTZ-RI
    Molecular point group: c1

    Geometry (in Angstrom), charge = 0, multiplicity = 1:

       Center              X                  Y                   Z               Mass
    ------------   -----------------  -----------------  -----------------  -----------------
         O            1.082604723906    -1.260067122083     0.269526806747    15.994914619570
         O           -3.046455276094    -0.657503122083     0.357822806747    15.994914619570
         O           -1.721255276094     1.130886877917     0.854590806747    15.994914619570
         N            0.133011723906     0.335301877917    -1.059330193253    14.003074004430
         C            2.376358723906     0.733810877917    -0.180227193253    12.000000000000
         C            1.156802623906    -0.144007522083    -0.265463093253    12.000000000000
         C           -1.142470276094    -0.325923122083    -0.999031193253    12.000000000000
         C            3.487930723906     0.089997877917     0.631644806747    12.000000000000
         C           -1.958462276094     0.139626877917     0.187965806747    12.000000000000
         H            2.715650723906     0.960085877917    -1.197770193253     1.007825032230
         H            2.073930723906     1.691988877917     0.262298806747     1.007825032230
         H           -0.979834276094    -1.402534122083    -0.927610193253     1.007825032230
         H           -1.718042276094    -0.133314122083    -1.913504193253     1.007825032230
         H            0.120655623906     1.339471777917    -1.199823593253     1.007825032230
         H            3.787235723906    -0.859274122083     0.186084806747     1.007825032230
         H            4.358900723906     0.747680877917     0.676033806747     1.007825032230
         H            3.149933723906    -0.113418122083     1.647982806747     1.007825032230
         H           -3.547906276094    -0.280332122083     1.108630806747     1.007825032230

  Basis Set: AUG-CC-PVTZ
    Blend: AUG-CC-PVTZ
  Basis Set: (AUG-CC-PVTZ AUX)
    Blend: AUG-CC-PVTZ-JKFIT
	 Reference Energy          =    -473.8385897685778332 [Eh]
	 Singles Energy            =      -0.0000000000000000 [Eh]
	 Same-Spin Energy          =      -0.4669953149481694 [Eh]
	 Opposite-Spin Energy      =      -1.4582209928762109 [Eh]
	 Correlation Energy        =      -1.9252163078243802 [Eh]
	 Total Energy              =    -475.7638060764022043 [Eh]

	 ================> DF-SCS-MP2 Energies <==================
	-----------------------------------------------------------
	 SCS Same-Spin Scale       =       0.3333333333333333 [-]
	 SCS Opposite-Spin Scale   =       1.2000000000000000 [-]
	 SCS Same-Spin Energy      =      -0.1556651049827231 [Eh]
	 SCS Opposite-Spin Energy  =      -1.7498651914514529 [Eh]
	 SCS Correlation Energy    =      -1.9055302964341760 [Eh]
	 SCS Total Energy          =    -475.7441200650119981 [Eh]
	-----------------------------------------------------------

  Dipole Moment: [D]
     X:    -0.9272      Y:     1.9201      Z:    -1.7523     Total:     2.7599

*** Psi4 exiting successfully. Buy a developer a beer!
