                               Psi4 1.3.2 release

  ==> Input File <==

--------------------------------------------------------------------------
#psi4
#
memory 32 gb

molecule  {
0 1
  O        1.0830410    -1.2590340     0.2697030
  O       -3.0460190    -0.6564700     0.3579990
  O       -1.7208190     1.1319200     0.8547670
  N        0.1334480     0.3363350    -1.0591540
  C        2.3767950     0.7348440    -0.1800510
  C        1.1530800    -0.1541890    -0.2667860
  C       -1.1420340    -0.3248900    -0.9988550
  C        3.4883670     0.0910310     0.6318210
  C       -1.9385411     0.1329887     0.2042515
  H        2.7160870     0.9611190    -1.1975940
  H        2.0743670     1.6930220     0.2624750
  H       -0.9793980    -1.4015010    -0.9274340
  H       -1.7032791    -0.1396432    -1.9236954
  H        0.1138710     1.3396710    -1.2046940
  H        3.7876720    -0.8582410     0.1862610
  H        4.3593370     0.7487140     0.6762100
  H        3.1503700    -0.1123850     1.6481590
  H       -3.5474700    -0.2792990     1.1088070
units angstrom
no_reorient  #important for SAPT in psi4, default
symmetry c1  #important for SAPT in psi4, default
}

set PROPERTIES_ORIGIN ["COM"]
properties('MP2/aug-cc-pvtz', properties = ['dipole'])
--------------------------------------------------------------------------

    Molecular point group: c1
  Charge       = 0
  Multiplicity = 1
  Basis Set: AUG-CC-PVTZ
    Blend: AUG-CC-PVTZ
  Basis Set: (AUG-CC-PVTZ AUX)
    Blend: AUG-CC-PVTZ-JKFIT

    Orbital Energies [Eh]
    ---------------------

    Doubly Occupied:

       1A    -20.622922     2A    -20.564966     3A    -20.529119
       4A    -15.592707     5A    -11.399160     6A    -11.356243
       7A    -11.290934     8A    -11.244417     9A    -11.216668
      10A     -1.466652    11A     -1.385173    12A     -1.370350
      13A     -1.242291    14A     -1.063664    15A     -1.005508
      16A     -0.889298    17A     -0.822961    18A     -0.785682
      19A     -0.716422    20A     -0.712255    21A     -0.698926
      22A     -0.652101    23A     -0.643571    24A     -0.636900
      25A     -0.605199    26A     -0.600078    27A     -0.558446
      28A     -0.541248    29A     -0.525243    30A     -0.517627
      31A     -0.496498    32A     -0.492953    33A     -0.470357
      34A     -0.434250    35A     -0.410507

  @DF-RHF Final Energy:  -473.83892610881537

   => Energetics <=

    Nuclear Repulsion Energy =            458.1398384565740116
    One-Electron Energy =               -1556.8349384638172523
    Two-Electron Energy =                 624.8561738984277554
    Total Energy =                       -473.8389261088153717
  Basis Set: (AUG-CC-PVTZ AUX)
    Blend: AUG-CC-PVTZ-RI
    Molecular point group: c1

    Geometry (in Angstrom), charge = 0, multiplicity = 1:

       Center              X                  Y                   Z               Mass
    ------------   -----------------  -----------------  -----------------  -----------------
         O            1.081146794973    -1.258274857597     0.268307576418    15.994914619570
         O           -3.047913205027    -0.655710857597     0.356603576418    15.994914619570
         O           -1.722713205027     1.132679142403     0.853371576418    15.994914619570
         N            0.131553794973     0.337094142403    -1.060549423582    14.003074004430
         C            2.374900794973     0.735603142403    -0.181446423582    12.000000000000
         C            1.151185794973    -0.153429857597    -0.268181423582    12.000000000000
         C           -1.143928205027    -0.324130857597    -1.000250423582    12.000000000000
         C            3.486472794973     0.091790142403     0.630425576418    12.000000000000
         C           -1.940435305027     0.133747842403     0.202856076418    12.000000000000
         H            2.714192794973     0.961878142403    -1.198989423582     1.007825032230
         H            2.072472794973     1.693781142403     0.261079576418     1.007825032230
         H           -0.981292205027    -1.400741857597    -0.928829423582     1.007825032230
         H           -1.705173305027    -0.138884057597    -1.925090823582     1.007825032230
         H            0.111976794973     1.340430142403    -1.206089423582     1.007825032230
         H            3.785777794973    -0.857481857597     0.184865576418     1.007825032230
         H            4.357442794973     0.749473142403     0.674814576418     1.007825032230
         H            3.148475794973    -0.111625857597     1.646763576418     1.007825032230
         H           -3.549364205027    -0.278539857597     1.107411576418     1.007825032230

  Basis Set: AUG-CC-PVTZ
    Blend: AUG-CC-PVTZ
  Basis Set: (AUG-CC-PVTZ AUX)
    Blend: AUG-CC-PVTZ-JKFIT
	 Reference Energy          =    -473.8389261088153717 [Eh]
	 Singles Energy            =      -0.0000000000000000 [Eh]
	 Same-Spin Energy          =      -0.4667351906652519 [Eh]
	 Opposite-Spin Energy      =      -1.4578622561157069 [Eh]
	 Correlation Energy        =      -1.9245974467809588 [Eh]
	 Total Energy              =    -475.7635235555963504 [Eh]

	 ================> DF-SCS-MP2 Energies <==================
	-----------------------------------------------------------
	 SCS Same-Spin Scale       =       0.3333333333333333 [-]
	 SCS Opposite-Spin Scale   =       1.2000000000000000 [-]
	 SCS Same-Spin Energy      =      -0.1555783968884173 [Eh]
	 SCS Opposite-Spin Energy  =      -1.7494347073388481 [Eh]
	 SCS Correlation Energy    =      -1.9050131042272653 [Eh]
	 SCS Total Energy          =    -475.7439392130426086 [Eh]
	-----------------------------------------------------------

  Dipole Moment: [D]
     X:    -0.8795      Y:     1.9133      Z:    -1.7344     Total:     2.7281

*** Psi4 exiting successfully. Buy a developer a beer!
