                               Psi4 1.3.2 release

  ==> Input File <==

--------------------------------------------------------------------------
#psi4
#
memory 32 gb

molecule  {
0 1
  O        1.0830410    -1.2590340     0.2697030
  O       -3.0460190    -0.6564700     0.3579990
  O       -1.7208190     1.1319200     0.8547670
  N        0.1334480     0.3363350    -1.0591540
  C        2.3767950     0.7348440    -0.1800510
  C        1.1530800    -0.1541890    -0.2667860
  C       -1.1749744    -0.2580276    -1.0094283
  C        3.4883670     0.0910310     0.6318210
  C       -1.9580260     0.1406600     0.1881420
  H        2.7160870     0.9611190    -1.1975940
  H        2.0743670     1.6930220     0.2624750
  H       -0.9793980    -1.4015010    -0.9274340
  H       -1.7176060    -0.1322810    -1.9133280
  H        0.0608576     1.3370740    -1.2057842
  H        3.7876720    -0.8582410     0.1862610
  H        4.3593370     0.7487140     0.6762100
  H        3.1503700    -0.1123850     1.6481590
  H       -3.5474700    -0.2792990     1.1088070
units angstrom
no_reorient  #important for SAPT in psi4, default
symmetry c1  #important for SAPT in psi4, default
}

set PROPERTIES_ORIGIN ["COM"]
properties('MP2/aug-cc-pvtz', properties = ['dipole'])
--------------------------------------------------------------------------

    Molecular point group: c1
  Charge       = 0
  Multiplicity = 1
  Basis Set: AUG-CC-PVTZ
    Blend: AUG-CC-PVTZ
  Basis Set: (AUG-CC-PVTZ AUX)
    Blend: AUG-CC-PVTZ-JKFIT

    Orbital Energies [Eh]
    ---------------------

    Doubly Occupied:

       1A    -20.626167     2A    -20.562465     3A    -20.530143
       4A    -15.593075     5A    -11.398749     6A    -11.358428
       7A    -11.290109     8A    -11.244551     9A    -11.216621
      10A     -1.469539    11A     -1.385329    12A     -1.369304
      13A     -1.242611    14A     -1.063978    15A     -1.008998
      16A     -0.891887    17A     -0.825834    18A     -0.783965
      19A     -0.718484    20A     -0.714422    21A     -0.703006
      22A     -0.658255    23A     -0.638076    24A     -0.637076
      25A     -0.605396    26A     -0.601261    27A     -0.542592
      28A     -0.541009    29A     -0.526516    30A     -0.517572
      31A     -0.495580    32A     -0.491154    33A     -0.469623
      34A     -0.435993    35A     -0.411906

  @DF-RHF Final Energy:  -473.83217007945126

   => Energetics <=

    Nuclear Repulsion Energy =            458.1079319543094925
    One-Electron Energy =               -1556.7408547759484918
    Two-Electron Energy =                 624.8007527421877967
    Total Energy =                       -473.8321700794513163
  Basis Set: (AUG-CC-PVTZ AUX)
    Blend: AUG-CC-PVTZ-RI
    Molecular point group: c1

    Geometry (in Angstrom), charge = 0, multiplicity = 1:

       Center              X                  Y                   Z               Mass
    ------------   -----------------  -----------------  -----------------  -----------------
         O            1.086464818649    -1.265135981829     0.270679375384    15.994914619570
         O           -3.042595181351    -0.662571981829     0.358975375384    15.994914619570
         O           -1.717395181351     1.125818018171     0.855743375384    15.994914619570
         N            0.136871818649     0.330233018171    -1.058177624616    14.003074004430
         C            2.380218818649     0.728742018171    -0.179074624616    12.000000000000
         C            1.156503818649    -0.160290981829    -0.265809624616    12.000000000000
         C           -1.171550581351    -0.264129581829    -1.008451924616    12.000000000000
         C            3.491790818649     0.084929018171     0.632797375384    12.000000000000
         C           -1.954602181351     0.134558018171     0.189118375384    12.000000000000
         H            2.719510818649     0.955017018171    -1.196617624616     1.007825032230
         H            2.077790818649     1.686920018171     0.263451375384     1.007825032230
         H           -0.975974181351    -1.407602981829    -0.926457624616     1.007825032230
         H           -1.714182181351    -0.138382981829    -1.912351624616     1.007825032230
         H            0.064281418649     1.330972018171    -1.204807824616     1.007825032230
         H            3.791095818649    -0.864342981829     0.187237375384     1.007825032230
         H            4.362760818649     0.742612018171     0.677186375384     1.007825032230
         H            3.153793818649    -0.118486981829     1.649135375384     1.007825032230
         H           -3.544046181351    -0.285400981829     1.109783375384     1.007825032230

  Basis Set: AUG-CC-PVTZ
    Blend: AUG-CC-PVTZ
  Basis Set: (AUG-CC-PVTZ AUX)
    Blend: AUG-CC-PVTZ-JKFIT
	 Reference Energy          =    -473.8321700794512594 [Eh]
	 Singles Energy            =      -0.0000000000000000 [Eh]
	 Same-Spin Energy          =      -0.4671616208725563 [Eh]
	 Opposite-Spin Energy      =      -1.4585464687665302 [Eh]
	 Correlation Energy        =      -1.9257080896390866 [Eh]
	 Total Energy              =    -475.7578781690903611 [Eh]

	 ================> DF-SCS-MP2 Energies <==================
	-----------------------------------------------------------
	 SCS Same-Spin Scale       =       0.3333333333333333 [-]
	 SCS Opposite-Spin Scale   =       1.2000000000000000 [-]
	 SCS Same-Spin Energy      =      -0.1557205402908521 [Eh]
	 SCS Opposite-Spin Energy  =      -1.7502557625198361 [Eh]
	 SCS Correlation Energy    =      -1.9059763028106882 [Eh]
	 SCS Total Energy          =    -475.7381463822619594 [Eh]
	-----------------------------------------------------------

  Dipole Moment: [D]
     X:    -0.9624      Y:     1.8910      Z:    -1.7386     Total:     2.7432

*** Psi4 exiting successfully. Buy a developer a beer!
