                               Psi4 1.3.2 release

  ==> Input File <==

--------------------------------------------------------------------------
#psi4
#
memory 32 gb

molecule  {
0 1
  O        1.0830410    -1.2590340     0.2697030
  O       -3.0460190    -0.6564700     0.3579990
  O       -1.7208190     1.1319200     0.8547670
  N        0.1144805     0.3624343    -1.1271724
  C        2.3767950     0.7348440    -0.1800510
  C        1.1530800    -0.1541890    -0.2667860
  C       -1.1420340    -0.3248900    -0.9988550
  C        3.4883670     0.0910310     0.6318210
  C       -1.9580260     0.1406600     0.1881420
  H        2.7160870     0.9611190    -1.1975940
  H        2.0743670     1.6930220     0.2624750
  H       -0.9793980    -1.4015010    -0.9274340
  H       -1.6736730    -0.1005923    -1.9324999
  H        0.1138710     1.3396710    -1.2046940
  H        3.7876720    -0.8582410     0.1862610
  H        4.3593370     0.7487140     0.6762100
  H        3.1503700    -0.1123850     1.6481590
  H       -3.5474700    -0.2792990     1.1088070
units angstrom
no_reorient  #important for SAPT in psi4, default
symmetry c1  #important for SAPT in psi4, default
}

set PROPERTIES_ORIGIN ["COM"]
properties('MP2/aug-cc-pvtz', properties = ['dipole'])
--------------------------------------------------------------------------

    Molecular point group: c1
  Charge       = 0
  Multiplicity = 1
  Basis Set: AUG-CC-PVTZ
    Blend: AUG-CC-PVTZ
  Basis Set: (AUG-CC-PVTZ AUX)
    Blend: AUG-CC-PVTZ-JKFIT

    Orbital Energies [Eh]
    ---------------------

    Doubly Occupied:

       1A    -20.625155     2A    -20.562715     3A    -20.540466
       4A    -15.588254     5A    -11.398581     6A    -11.363887
       7A    -11.287961     8A    -11.246239     9A    -11.218308
      10A     -1.468057    11A     -1.386900    12A     -1.368446
      13A     -1.236266    14A     -1.063731    15A     -1.000390
      16A     -0.891293    17A     -0.823672    18A     -0.781558
      19A     -0.715107    20A     -0.713420    21A     -0.698658
      22A     -0.646449    23A     -0.644986    24A     -0.635809
      25A     -0.608711    26A     -0.600283    27A     -0.562511
      28A     -0.539590    29A     -0.524913    30A     -0.518338
      31A     -0.496422    32A     -0.491793    33A     -0.470120
      34A     -0.439144    35A     -0.411203

  @DF-RHF Final Energy:  -473.83309299790642

   => Energetics <=

    Nuclear Repulsion Energy =            456.6241252141091991
    One-Electron Energy =               -1553.7757668553035728
    Two-Electron Energy =                 623.3185486432879543
    Total Energy =                       -473.8330929979064194
  Basis Set: (AUG-CC-PVTZ AUX)
    Blend: AUG-CC-PVTZ-RI
    Molecular point group: c1

    Geometry (in Angstrom), charge = 0, multiplicity = 1:

       Center              X                  Y                   Z               Mass
    ------------   -----------------  -----------------  -----------------  -----------------
         O            1.084729815210    -1.262066168178     0.277117812665    15.994914619570
         O           -3.044330184790    -0.659502168178     0.365413812665    15.994914619570
         O           -1.719130184790     1.128887831822     0.862181812665    15.994914619570
         N            0.116169315210     0.359402131822    -1.119757587335    14.003074004430
         C            2.378483815210     0.731811831822    -0.172636187335    12.000000000000
         C            1.154768815210    -0.157221168178    -0.259371187335    12.000000000000
         C           -1.140345184790    -0.327922168178    -0.991440187335    12.000000000000
         C            3.490055815210     0.087998831822     0.639235812665    12.000000000000
         C           -1.956337184790     0.137627831822     0.195556812665    12.000000000000
         H            2.717775815210     0.958086831822    -1.190179187335     1.007825032230
         H            2.076055815210     1.689989831822     0.269889812665     1.007825032230
         H           -0.977709184790    -1.404533168178    -0.920019187335     1.007825032230
         H           -1.671984184790    -0.103624468178    -1.925085087335     1.007825032230
         H            0.115559815210     1.336638831822    -1.197279187335     1.007825032230
         H            3.789360815210    -0.861273168178     0.193675812665     1.007825032230
         H            4.361025815210     0.745681831822     0.683624812665     1.007825032230
         H            3.152058815210    -0.115417168178     1.655573812665     1.007825032230
         H           -3.545781184790    -0.282331168178     1.116221812665     1.007825032230

  Basis Set: AUG-CC-PVTZ
    Blend: AUG-CC-PVTZ
  Basis Set: (AUG-CC-PVTZ AUX)
    Blend: AUG-CC-PVTZ-JKFIT
	 Reference Energy          =    -473.8330929979064194 [Eh]
	 Singles Energy            =      -0.0000000000000000 [Eh]
	 Same-Spin Energy          =      -0.4667046817601984 [Eh]
	 Opposite-Spin Energy      =      -1.4586830399953461 [Eh]
	 Correlation Energy        =      -1.9253877217555444 [Eh]
	 Total Energy              =    -475.7584807196619749 [Eh]

	 ================> DF-SCS-MP2 Energies <==================
	-----------------------------------------------------------
	 SCS Same-Spin Scale       =       0.3333333333333333 [-]
	 SCS Opposite-Spin Scale   =       1.2000000000000000 [-]
	 SCS Same-Spin Energy      =      -0.1555682272533995 [Eh]
	 SCS Opposite-Spin Energy  =      -1.7504196479944152 [Eh]
	 SCS Correlation Energy    =      -1.9059878752478148 [Eh]
	 SCS Total Energy          =    -475.7390808731542506 [Eh]
	-----------------------------------------------------------

  Dipole Moment: [D]
     X:    -0.7007      Y:     1.7350      Z:    -1.4600     Total:     2.3733

*** Psi4 exiting successfully. Buy a developer a beer!
