                               Psi4 1.4a3.dev225

  ==> Input File <==

--------------------------------------------------------------------------
#psi4
#
memory 32 gb

molecule  {
0 1
  O        0.8764270    -0.2428500     1.2911470
  O       -3.1675390     0.0980960     0.5443480
  O       -1.5839830     1.3406500    -0.5070920
  N        0.0834400    -0.8734940    -0.7544630
  C        2.2681300     0.2178930    -0.6380450
  C        1.0467528    -0.2917214     0.0841345
  C       -1.2394860    -1.0499030    -0.2084880
  C        3.4385850     0.4137260     0.3159750
  C       -1.9785770     0.2694000    -0.0851210
  H        2.5310470    -0.4685700    -1.4513520
  H        1.9929790     1.1708880    -1.1091590
  H       -1.1549390    -1.4972460     0.7835340
  H       -1.8230450    -1.7308360    -0.8360530
  H        0.1282230    -0.6025030    -1.7308050
  H        3.7379630    -0.5375510     0.7615240
  H        4.2975370     0.8343390    -0.2133880
  H        3.1581410     1.0869690     1.1269820
  H       -3.5812870     0.9851770     0.5837010
units angstrom
no_reorient  #important for SAPT in psi4, default
symmetry c1  #important for SAPT in psi4, default
}

set PROPERTIES_ORIGIN ["COM"]
properties('MP2/aug-cc-pvtz', properties = ['dipole'])
--------------------------------------------------------------------------

    Molecular point group: c1
  Charge       = 0
  Multiplicity = 1
  Basis Set: AUG-CC-PVTZ
    Blend: AUG-CC-PVTZ
  Basis Set: (AUG-CC-PVTZ AUX)
    Blend: AUG-CC-PVTZ-JKFIT

    Orbital Energies [Eh]
    ---------------------

    Doubly Occupied:

       1A    -20.623748     2A    -20.559878     3A    -20.531107
       4A    -15.589845     5A    -11.396364     6A    -11.355981
       7A    -11.290109     8A    -11.244160     9A    -11.218330
      10A     -1.468187    11A     -1.390176    12A     -1.366115
      13A     -1.235590    14A     -1.064070    15A     -1.002135
      16A     -0.889828    17A     -0.822706    18A     -0.779956
      19A     -0.714612    20A     -0.710018    21A     -0.699508
      22A     -0.652384    23A     -0.645899    24A     -0.630644
      25A     -0.606264    26A     -0.599364    27A     -0.557529
      28A     -0.545142    29A     -0.525288    30A     -0.516232
      31A     -0.495771    32A     -0.489151    33A     -0.468399
      34A     -0.434974    35A     -0.409836

  @DF-RHF Final Energy:  -473.83988546457675

   => Energetics <=

    Nuclear Repulsion Energy =            460.4088503505487893
    One-Electron Energy =               -1561.4388669463978658
    Two-Electron Energy =                 627.1901311312723237
    Total Energy =                       -473.8398854645766960
  Basis Set: (AUG-CC-PVTZ AUX)
    Blend: AUG-CC-PVTZ-RI
    Molecular point group: c1

    Geometry (in Angstrom), charge = 0, multiplicity = 1:

       Center              X                  Y                   Z               Mass
    ------------   -----------------  -----------------  -----------------  -----------------
         O            0.945321960459    -0.249290752325     1.274337481023    15.994914619570
         O           -3.098644039541     0.091655247675     0.527538481023    15.994914619570
         O           -1.515088039541     1.334209247675    -0.523901518977    15.994914619570
         N            0.152334960459    -0.879934752325    -0.771272518977    14.003074004430
         C            2.337024960459     0.211452247675    -0.654854518977    12.000000000000
         C            1.115647760459    -0.298162152325     0.067324981023    12.000000000000
         C           -1.170591039541    -1.056343752325    -0.225297518977    12.000000000000
         C            3.507479960459     0.407285247675     0.299165481023    12.000000000000
         C           -1.909682039541     0.262959247675    -0.101930518977    12.000000000000
         H            2.599941960459    -0.475010752325    -1.468161518977     1.007825032230
         H            2.061873960459     1.164447247675    -1.125968518977     1.007825032230
         H           -1.086044039541    -1.503686752325     0.766724481023     1.007825032230
         H           -1.754150039541    -1.737276752325    -0.852862518977     1.007825032230
         H            0.197117960459    -0.608943752325    -1.747614518977     1.007825032230
         H            3.806857960459    -0.543991752325     0.744714481023     1.007825032230
         H            4.366431960459     0.827898247675    -0.230197518977     1.007825032230
         H            3.227035960459     1.080528247675     1.110172481023     1.007825032230
         H           -3.512392039541     0.978736247675     0.566891481023     1.007825032230

  Basis Set: AUG-CC-PVTZ
    Blend: AUG-CC-PVTZ
  Basis Set: (AUG-CC-PVTZ AUX)
    Blend: AUG-CC-PVTZ-JKFIT
	 Reference Energy          =    -473.8398854645767528 [Eh]
	 Singles Energy            =      -0.0000000000000000 [Eh]
	 Same-Spin Energy          =      -0.4666682383834653 [Eh]
	 Opposite-Spin Energy      =      -1.4577126131953513 [Eh]
	 Correlation Energy        =      -1.9243808515788166 [Eh]
	 Total Energy              =    -475.7642663161555561 [Eh]

	 ================> DF-SCS-MP2 Energies <==================
	-----------------------------------------------------------
	 SCS Same-Spin Scale       =       0.3333333333333333 [-]
	 SCS Opposite-Spin Scale   =       1.2000000000000000 [-]
	 SCS Same-Spin Energy      =      -0.1555560794611551 [Eh]
	 SCS Opposite-Spin Energy  =      -1.7492551358344215 [Eh]
	 SCS Correlation Energy    =      -1.9048112152955765 [Eh]
	 SCS Total Energy          =    -475.7446966798723338 [Eh]
	-----------------------------------------------------------

  Dipole Moment: [D]
     X:    -0.7728      Y:    -0.7256      Z:    -2.5694     Total:     2.7794

*** Psi4 exiting successfully. Buy a developer a beer!
