                               Psi4 1.3.2 release

  ==> Input File <==

--------------------------------------------------------------------------
#psi4
#
memory 32 gb

molecule  {
0 1
  O        1.0830410    -1.2590340     0.2697030
  O       -3.0460190    -0.6564700     0.3579990
  O       -1.7208190     1.1319200     0.8547670
  N        0.1334480     0.3363350    -1.0591540
  C        2.3767950     0.7348440    -0.1800510
  C        1.1530800    -0.1541890    -0.2667860
  C       -1.1420340    -0.3248900    -0.9988550
  C        3.4883670     0.0910310     0.6318210
  C       -1.9580260     0.1406600     0.1881420
  H        2.7160870     0.9611190    -1.1975940
  H        2.0743670     1.6930220     0.2624750
  H       -0.9793980    -1.4015010    -0.9274340
  H       -1.7176060    -0.1322810    -1.9133280
  H        0.1158016     1.2407252    -1.1903413
  H        3.7876720    -0.8582410     0.1862610
  H        4.3593370     0.7487140     0.6762100
  H        3.1503700    -0.1123850     1.6481590
  H       -3.5474700    -0.2792990     1.1088070
units angstrom
no_reorient  #important for SAPT in psi4, default
symmetry c1  #important for SAPT in psi4, default
}

set PROPERTIES_ORIGIN ["COM"]
properties('MP2/aug-cc-pvtz', properties = ['dipole'])
--------------------------------------------------------------------------

    Molecular point group: c1
  Charge       = 0
  Multiplicity = 1
  Basis Set: AUG-CC-PVTZ
    Blend: AUG-CC-PVTZ
  Basis Set: (AUG-CC-PVTZ AUX)
    Blend: AUG-CC-PVTZ-JKFIT

    Orbital Energies [Eh]
    ---------------------

    Doubly Occupied:

       1A    -20.625782     2A    -20.563331     3A    -20.529235
       4A    -15.583103     5A    -11.399396     6A    -11.356550
       7A    -11.291129     8A    -11.244781     9A    -11.216919
      10A     -1.468883    11A     -1.386318    12A     -1.368962
      13A     -1.255233    14A     -1.064138    15A     -1.009749
      16A     -0.892239    17A     -0.826713    18A     -0.806805
      19A     -0.717262    20A     -0.713951    21A     -0.698989
      22A     -0.653864    23A     -0.646586    24A     -0.637532
      25A     -0.605981    26A     -0.601551    27A     -0.563776
      28A     -0.541187    29A     -0.525936    30A     -0.517806
      31A     -0.495894    32A     -0.492111    33A     -0.469741
      34A     -0.434916    35A     -0.412025

  @DF-RHF Final Energy:  -473.83337208466321

   => Energetics <=

    Nuclear Repulsion Energy =            458.6682780909102348
    One-Electron Energy =               -1557.7665565787638116
    Two-Electron Energy =                 625.2649064031903663
    Total Energy =                       -473.8333720846632104
  Basis Set: (AUG-CC-PVTZ AUX)
    Blend: AUG-CC-PVTZ-RI
    Molecular point group: c1

    Geometry (in Angstrom), charge = 0, multiplicity = 1:

       Center              X                  Y                   Z               Mass
    ------------   -----------------  -----------------  -----------------  -----------------
         O            1.083026204429    -1.258272990911     0.269592504862    15.994914619570
         O           -3.046033795571    -0.655708990911     0.357888504862    15.994914619570
         O           -1.720833795571     1.132681009089     0.854656504862    15.994914619570
         N            0.133433204429     0.337096009089    -1.059264495138    14.003074004430
         C            2.376780204429     0.735605009089    -0.180161495138    12.000000000000
         C            1.153065204429    -0.153427990911    -0.266896495138    12.000000000000
         C           -1.142048795571    -0.324128990911    -0.998965495138    12.000000000000
         C            3.488352204429     0.091792009089     0.631710504862    12.000000000000
         C           -1.958040795571     0.141421009089     0.188031504862    12.000000000000
         H            2.716072204429     0.961880009089    -1.197704495138     1.007825032230
         H            2.074352204429     1.693783009089     0.262364504862     1.007825032230
         H           -0.979412795571    -1.400739990911    -0.927544495138     1.007825032230
         H           -1.717620795571    -0.131519990911    -1.913438495138     1.007825032230
         H            0.115786804429     1.241486209089    -1.190451795138     1.007825032230
         H            3.787657204429    -0.857479990911     0.186150504862     1.007825032230
         H            4.359322204429     0.749475009089     0.676099504862     1.007825032230
         H            3.150355204429    -0.111623990911     1.648048504862     1.007825032230
         H           -3.547484795571    -0.278537990911     1.108696504862     1.007825032230

  Basis Set: AUG-CC-PVTZ
    Blend: AUG-CC-PVTZ
  Basis Set: (AUG-CC-PVTZ AUX)
    Blend: AUG-CC-PVTZ-JKFIT
	 Reference Energy          =    -473.8333720846632104 [Eh]
	 Singles Energy            =      -0.0000000000000000 [Eh]
	 Same-Spin Energy          =      -0.4660416818047067 [Eh]
	 Opposite-Spin Energy      =      -1.4561848714064465 [Eh]
	 Correlation Energy        =      -1.9222265532111531 [Eh]
	 Total Energy              =    -475.7555986378743569 [Eh]

	 ================> DF-SCS-MP2 Energies <==================
	-----------------------------------------------------------
	 SCS Same-Spin Scale       =       0.3333333333333333 [-]
	 SCS Opposite-Spin Scale   =       1.2000000000000000 [-]
	 SCS Same-Spin Energy      =      -0.1553472272682356 [Eh]
	 SCS Opposite-Spin Energy  =      -1.7474218456877357 [Eh]
	 SCS Correlation Energy    =      -1.9027690729559712 [Eh]
	 SCS Total Energy          =    -475.7361411576191585 [Eh]
	-----------------------------------------------------------

  Dipole Moment: [D]
     X:    -0.9299      Y:     1.7984      Z:    -1.7264     Total:     2.6607

*** Psi4 exiting successfully. Buy a developer a beer!
