                               Psi4 1.4a3.dev225

  ==> Input File <==

--------------------------------------------------------------------------
#psi4
#
memory 32 gb

molecule  {
0 1
  O        0.8764270    -0.2428500     1.2911470
  O       -3.1675390     0.0980960     0.5443480
  O       -1.5839830     1.3406500    -0.5070920
  N        0.0834400    -0.8734940    -0.7544630
  C        2.2681300     0.2178930    -0.6380450
  C        1.0737617    -0.2829303     0.0487589
  C       -1.2394860    -1.0499030    -0.2084880
  C        3.4385850     0.4137260     0.3159750
  C       -1.9785770     0.2694000    -0.0851210
  H        2.5310470    -0.4685700    -1.4513520
  H        1.9929790     1.1708880    -1.1091590
  H       -1.1549390    -1.4972460     0.7835340
  H       -1.8230450    -1.7308360    -0.8360530
  H        0.1282230    -0.6025030    -1.7308050
  H        3.7379630    -0.5375510     0.7615240
  H        4.2975370     0.8343390    -0.2133880
  H        3.1581410     1.0869690     1.1269820
  H       -3.5812870     0.9851770     0.5837010
units angstrom
no_reorient  #important for SAPT in psi4, default
symmetry c1  #important for SAPT in psi4, default
}

set PROPERTIES_ORIGIN ["COM"]
properties('MP2/aug-cc-pvtz', properties = ['dipole'])
--------------------------------------------------------------------------

    Molecular point group: c1
  Charge       = 0
  Multiplicity = 1
  Basis Set: AUG-CC-PVTZ
    Blend: AUG-CC-PVTZ
  Basis Set: (AUG-CC-PVTZ AUX)
    Blend: AUG-CC-PVTZ-JKFIT

    Orbital Energies [Eh]
    ---------------------

    Doubly Occupied:

       1A    -20.623454     2A    -20.559394     3A    -20.526017
       4A    -15.592293     5A    -11.396243     6A    -11.359523
       7A    -11.290922     8A    -11.246281     9A    -11.220613
      10A     -1.467800    11A     -1.370335    12A     -1.362500
      13A     -1.231680    14A     -1.073406    15A     -1.003511
      16A     -0.897267    17A     -0.824144    18A     -0.776592
      19A     -0.714383    20A     -0.709915    21A     -0.699850
      22A     -0.653466    23A     -0.644962    24A     -0.632771
      25A     -0.601825    26A     -0.596509    27A     -0.555754
      28A     -0.542056    29A     -0.525487    30A     -0.516032
      31A     -0.494803    32A     -0.487872    33A     -0.466634
      34A     -0.435125    35A     -0.406992

  @DF-RHF Final Energy:  -473.83326357637918

   => Energetics <=

    Nuclear Repulsion Energy =            460.0552155595647150
    One-Electron Energy =               -1560.7641383947352551
    Two-Electron Energy =                 626.8756592587914156
    Total Energy =                       -473.8332635763791814
  Basis Set: (AUG-CC-PVTZ AUX)
    Blend: AUG-CC-PVTZ-RI
    Molecular point group: c1

    Geometry (in Angstrom), charge = 0, multiplicity = 1:

       Center              X                  Y                   Z               Mass
    ------------   -----------------  -----------------  -----------------  -----------------
         O            0.942848962254    -0.250095686051     1.277576553895    15.994914619570
         O           -3.101117037746     0.090850313949     0.530777553895    15.994914619570
         O           -1.517561037746     1.333404313949    -0.520662446105    15.994914619570
         N            0.149861962254    -0.880739686051    -0.768033446105    14.003074004430
         C            2.334551962254     0.210647313949    -0.651615446105    12.000000000000
         C            1.140183662254    -0.290175986051     0.035188453895    12.000000000000
         C           -1.173064037746    -1.057148686051    -0.222058446105    12.000000000000
         C            3.505006962254     0.406480313949     0.302404553895    12.000000000000
         C           -1.912155037746     0.262154313949    -0.098691446105    12.000000000000
         H            2.597468962254    -0.475815686051    -1.464922446105     1.007825032230
         H            2.059400962254     1.163642313949    -1.122729446105     1.007825032230
         H           -1.088517037746    -1.504491686051     0.769963553895     1.007825032230
         H           -1.756623037746    -1.738081686051    -0.849623446105     1.007825032230
         H            0.194644962254    -0.609748686051    -1.744375446105     1.007825032230
         H            3.804384962254    -0.544796686051     0.747953553895     1.007825032230
         H            4.363958962254     0.827093313949    -0.226958446105     1.007825032230
         H            3.224562962254     1.079723313949     1.113411553895     1.007825032230
         H           -3.514865037746     0.977931313949     0.570130553895     1.007825032230

  Basis Set: AUG-CC-PVTZ
    Blend: AUG-CC-PVTZ
  Basis Set: (AUG-CC-PVTZ AUX)
    Blend: AUG-CC-PVTZ-JKFIT
	 Reference Energy          =    -473.8332635763791814 [Eh]
	 Singles Energy            =      -0.0000000000000000 [Eh]
	 Same-Spin Energy          =      -0.4677911447755236 [Eh]
	 Opposite-Spin Energy      =      -1.4598404174893171 [Eh]
	 Correlation Energy        =      -1.9276315622648408 [Eh]
	 Total Energy              =    -475.7608951386440026 [Eh]

	 ================> DF-SCS-MP2 Energies <==================
	-----------------------------------------------------------
	 SCS Same-Spin Scale       =       0.3333333333333333 [-]
	 SCS Opposite-Spin Scale   =       1.2000000000000000 [-]
	 SCS Same-Spin Energy      =      -0.1559303815918412 [Eh]
	 SCS Opposite-Spin Energy  =      -1.7518085009871804 [Eh]
	 SCS Correlation Energy    =      -1.9077388825790216 [Eh]
	 SCS Total Energy          =    -475.7410024589581781 [Eh]
	-----------------------------------------------------------

  Dipole Moment: [D]
     X:    -0.6636      Y:    -0.6919      Z:    -2.7377     Total:     2.9007

*** Psi4 exiting successfully. Buy a developer a beer!
