                               Psi4 1.4a3.dev225

  ==> Input File <==

--------------------------------------------------------------------------
#psi4
#
memory 32 gb

molecule  {
0 1
  O        0.8764270    -0.2428500     1.2911470
  O       -3.1675390     0.0980960     0.5443480
  O       -1.5839830     1.3406500    -0.5070920
  N        0.0834400    -0.8734940    -0.7544630
  C        2.2681300     0.2178930    -0.6380450
  C        1.0330250    -0.3000120     0.0721840
  C       -1.2394860    -1.0499030    -0.2084880
  C        3.4385850     0.4137260     0.3159750
  C       -1.9542207     0.2259231    -0.0891865
  H        2.5310470    -0.4685700    -1.4513520
  H        1.9929790     1.1708880    -1.1091590
  H       -1.1549390    -1.4972460     0.7835340
  H       -1.8230450    -1.7308360    -0.8360530
  H        0.1282230    -0.6025030    -1.7308050
  H        3.7379630    -0.5375510     0.7615240
  H        4.2975370     0.8343390    -0.2133880
  H        3.1581410     1.0869690     1.1269820
  H       -3.5812870     0.9851770     0.5837010
units angstrom
no_reorient  #important for SAPT in psi4, default
symmetry c1  #important for SAPT in psi4, default
}

set PROPERTIES_ORIGIN ["COM"]
properties('MP2/aug-cc-pvtz', properties = ['dipole'])
--------------------------------------------------------------------------

    Molecular point group: c1
  Charge       = 0
  Multiplicity = 1
  Basis Set: AUG-CC-PVTZ
    Blend: AUG-CC-PVTZ
  Basis Set: (AUG-CC-PVTZ AUX)
    Blend: AUG-CC-PVTZ-JKFIT

    Orbital Energies [Eh]
    ---------------------

    Doubly Occupied:

       1A    -20.620397     2A    -20.558894     3A    -20.529439
       4A    -15.596101     5A    -11.402202     6A    -11.357168
       7A    -11.294899     8A    -11.244809     9A    -11.218215
      10A     -1.456106    11A     -1.385409    12A     -1.348745
      13A     -1.245071    14A     -1.066141    15A     -1.017459
      16A     -0.891335    17A     -0.823270    18A     -0.786999
      19A     -0.715982    20A     -0.710176    21A     -0.696915
      22A     -0.654722    23A     -0.643551    24A     -0.630361
      25A     -0.603282    26A     -0.594308    27A     -0.560186
      28A     -0.546325    29A     -0.525169    30A     -0.516017
      31A     -0.494528    32A     -0.480792    33A     -0.467592
      34A     -0.434865    35A     -0.415411

  @DF-RHF Final Energy:  -473.83269627998442

   => Energetics <=

    Nuclear Repulsion Energy =            460.5292997229651064
    One-Electron Energy =               -1561.6583052960575060
    Two-Electron Energy =                 627.2963092931079245
    Total Energy =                       -473.8326962799844750
  Basis Set: (AUG-CC-PVTZ AUX)
    Blend: AUG-CC-PVTZ-RI
    Molecular point group: c1

    Geometry (in Angstrom), charge = 0, multiplicity = 1:

       Center              X                  Y                   Z               Mass
    ------------   -----------------  -----------------  -----------------  -----------------
         O            0.944348790081    -0.244550798659     1.275803943531    15.994914619570
         O           -3.099617209919     0.096395201341     0.529004943531    15.994914619570
         O           -1.516061209919     1.338949201341    -0.522435056469    15.994914619570
         N            0.151361790081    -0.875194798659    -0.769806056469    14.003074004430
         C            2.336051790081     0.216192201341    -0.653388056469    12.000000000000
         C            1.100946790081    -0.301712798659     0.056840943531    12.000000000000
         C           -1.171564209919    -1.051603798659    -0.223831056469    12.000000000000
         C            3.506506790081     0.412025201341     0.300631943531    12.000000000000
         C           -1.886298909919     0.224222301341    -0.104529556469    12.000000000000
         H            2.598968790081    -0.470270798659    -1.466695056469     1.007825032230
         H            2.060900790081     1.169187201341    -1.124502056469     1.007825032230
         H           -1.087017209919    -1.498946798659     0.768190943531     1.007825032230
         H           -1.755123209919    -1.732536798659    -0.851396056469     1.007825032230
         H            0.196144790081    -0.604203798659    -1.746148056469     1.007825032230
         H            3.805884790081    -0.539251798659     0.746180943531     1.007825032230
         H            4.365458790081     0.832638201341    -0.228731056469     1.007825032230
         H            3.226062790081     1.085268201341     1.111638943531     1.007825032230
         H           -3.513365209919     0.983476201341     0.568357943531     1.007825032230

  Basis Set: AUG-CC-PVTZ
    Blend: AUG-CC-PVTZ
  Basis Set: (AUG-CC-PVTZ AUX)
    Blend: AUG-CC-PVTZ-JKFIT
	 Reference Energy          =    -473.8326962799844182 [Eh]
	 Singles Energy            =      -0.0000000000000000 [Eh]
	 Same-Spin Energy          =      -0.4677917615910330 [Eh]
	 Opposite-Spin Energy      =      -1.4599608517692946 [Eh]
	 Correlation Energy        =      -1.9277526133603275 [Eh]
	 Total Energy              =    -475.7604488933447442 [Eh]

	 ================> DF-SCS-MP2 Energies <==================
	-----------------------------------------------------------
	 SCS Same-Spin Scale       =       0.3333333333333333 [-]
	 SCS Opposite-Spin Scale   =       1.2000000000000000 [-]
	 SCS Same-Spin Energy      =      -0.1559305871970110 [Eh]
	 SCS Opposite-Spin Energy  =      -1.7519530221231534 [Eh]
	 SCS Correlation Energy    =      -1.9078836093201643 [Eh]
	 SCS Total Energy          =    -475.7405798893045699 [Eh]
	-----------------------------------------------------------

  Dipole Moment: [D]
     X:    -0.7177      Y:    -0.9796      Z:    -2.6866     Total:     2.9483

*** Psi4 exiting successfully. Buy a developer a beer!
