                               Psi4 1.3.2 release

  ==> Input File <==

--------------------------------------------------------------------------
#psi4
#
memory 32 gb

molecule  {
0 1
  O        1.0830410    -1.2590340     0.2697030
  O       -3.0492649    -0.6499553     0.3673668
  O       -1.7208190     1.1319200     0.8547670
  N        0.1334480     0.3363350    -1.0591540
  C        2.3767950     0.7348440    -0.1800510
  C        1.1530800    -0.1541890    -0.2667860
  C       -1.1334352    -0.3150929    -0.9967128
  C        3.4883670     0.0910310     0.6318210
  C       -1.9580260     0.1406600     0.1881420
  H        2.7160870     0.9611190    -1.1975940
  H        2.0743670     1.6930220     0.2624750
  H       -0.9793980    -1.4015010    -0.9274340
  H       -1.7176060    -0.1322810    -1.9133280
  H        0.1138710     1.3396710    -1.2046940
  H        3.7876720    -0.8582410     0.1862610
  H        4.3593370     0.7487140     0.6762100
  H        3.1503700    -0.1123850     1.6481590
  H       -3.5474700    -0.2792990     1.1088070
units angstrom
no_reorient  #important for SAPT in psi4, default
symmetry c1  #important for SAPT in psi4, default
}

set PROPERTIES_ORIGIN ["COM"]
properties('MP2/aug-cc-pvtz', properties = ['dipole'])
--------------------------------------------------------------------------

    Molecular point group: c1
  Charge       = 0
  Multiplicity = 1
  Basis Set: AUG-CC-PVTZ
    Blend: AUG-CC-PVTZ
  Basis Set: (AUG-CC-PVTZ AUX)
    Blend: AUG-CC-PVTZ-JKFIT

    Orbital Energies [Eh]
    ---------------------

    Doubly Occupied:

       1A    -20.623916     2A    -20.561750     3A    -20.529534
       4A    -15.593483     5A    -11.398426     6A    -11.356811
       7A    -11.291397     8A    -11.244690     9A    -11.216807
      10A     -1.469320    11A     -1.385869    12A     -1.368388
      13A     -1.245145    14A     -1.064032    15A     -1.005802
      16A     -0.890929    17A     -0.826687    18A     -0.786912
      19A     -0.716171    20A     -0.714470    21A     -0.698402
      22A     -0.655323    23A     -0.644122    24A     -0.637326
      25A     -0.604659    26A     -0.599955    27A     -0.556758
      28A     -0.540754    29A     -0.525757    30A     -0.517819
      31A     -0.495542    32A     -0.491130    33A     -0.468731
      34A     -0.434926    35A     -0.410714

  @DF-RHF Final Energy:  -473.84030443935330

   => Energetics <=

    Nuclear Repulsion Energy =            458.2156491588044673
    One-Electron Energy =               -1556.9669976929476434
    Two-Electron Energy =                 624.9110440947899860
    Total Energy =                       -473.8403044393533037
  Basis Set: (AUG-CC-PVTZ AUX)
    Blend: AUG-CC-PVTZ-RI
    Molecular point group: c1

    Geometry (in Angstrom), charge = 0, multiplicity = 1:

       Center              X                  Y                   Z               Mass
    ------------   -----------------  -----------------  -----------------  -----------------
         O            1.082649867935    -1.260726002004     0.268363444049    15.994914619570
         O           -3.049656032065    -0.651647302004     0.366027244049    15.994914619570
         O           -1.721210132065     1.130227997996     0.853427444049    15.994914619570
         N            0.133056867935     0.334642997996    -1.060493555951    14.003074004430
         C            2.376403867935     0.733151997996    -0.181390555951    12.000000000000
         C            1.152688867935    -0.155881002004    -0.268125555951    12.000000000000
         C           -1.133826332065    -0.316784902004    -0.998052355951    12.000000000000
         C            3.487975867935     0.089338997996     0.630481444049    12.000000000000
         C           -1.958417132065     0.138967997996     0.186802444049    12.000000000000
         H            2.715695867935     0.959426997996    -1.198933555951     1.007825032230
         H            2.073975867935     1.691329997996     0.261135444049     1.007825032230
         H           -0.979789132065    -1.403193002004    -0.928773555951     1.007825032230
         H           -1.717997132065    -0.133973002004    -1.914667555951     1.007825032230
         H            0.113479867935     1.337978997996    -1.206033555951     1.007825032230
         H            3.787280867935    -0.859933002004     0.184921444049     1.007825032230
         H            4.358945867935     0.747021997996     0.674870444049     1.007825032230
         H            3.149978867935    -0.114077002004     1.646819444049     1.007825032230
         H           -3.547861132065    -0.280991002004     1.107467444049     1.007825032230

  Basis Set: AUG-CC-PVTZ
    Blend: AUG-CC-PVTZ
  Basis Set: (AUG-CC-PVTZ AUX)
    Blend: AUG-CC-PVTZ-JKFIT
	 Reference Energy          =    -473.8403044393533037 [Eh]
	 Singles Energy            =      -0.0000000000000000 [Eh]
	 Same-Spin Energy          =      -0.4665929950166091 [Eh]
	 Opposite-Spin Energy      =      -1.4572387664901694 [Eh]
	 Correlation Energy        =      -1.9238317615067784 [Eh]
	 Total Energy              =    -475.7641362008600936 [Eh]

	 ================> DF-SCS-MP2 Energies <==================
	-----------------------------------------------------------
	 SCS Same-Spin Scale       =       0.3333333333333333 [-]
	 SCS Opposite-Spin Scale   =       1.2000000000000000 [-]
	 SCS Same-Spin Energy      =      -0.1555309983388697 [Eh]
	 SCS Opposite-Spin Energy  =      -1.7486865197882031 [Eh]
	 SCS Correlation Energy    =      -1.9042175181270729 [Eh]
	 SCS Total Energy          =    -475.7445219574804014 [Eh]
	-----------------------------------------------------------

  Dipole Moment: [D]
     X:    -0.8917      Y:     1.8731      Z:    -1.7626     Total:     2.7222

*** Psi4 exiting successfully. Buy a developer a beer!
