                               Psi4 1.3.2 release

  ==> Input File <==

--------------------------------------------------------------------------
#psi4
#
memory 32 gb

molecule  {
0 1
  O        1.0830410    -1.2590340     0.2697030
  O       -3.0460190    -0.6564700     0.3579990
  O       -1.7208190     1.1319200     0.8547670
  N        0.1334480     0.3363350    -1.0591540
  C        2.3767950     0.7348440    -0.1800510
  C        1.1523920    -0.1544316    -0.2535849
  C       -1.1420340    -0.3248900    -0.9988550
  C        3.4883670     0.0910310     0.6318210
  C       -1.9580260     0.1406600     0.1881420
  H        2.7232308     0.9663689    -1.1939996
  H        2.0743670     1.6930220     0.2624750
  H       -0.9793980    -1.4015010    -0.9274340
  H       -1.7176060    -0.1322810    -1.9133280
  H        0.1138710     1.3396710    -1.2046940
  H        3.7876720    -0.8582410     0.1862610
  H        4.3593370     0.7487140     0.6762100
  H        3.1503700    -0.1123850     1.6481590
  H       -3.5474700    -0.2792990     1.1088070
units angstrom
no_reorient  #important for SAPT in psi4, default
symmetry c1  #important for SAPT in psi4, default
}

set PROPERTIES_ORIGIN ["COM"]
properties('MP2/aug-cc-pvtz', properties = ['dipole'])
--------------------------------------------------------------------------

    Molecular point group: c1
  Charge       = 0
  Multiplicity = 1
  Basis Set: AUG-CC-PVTZ
    Blend: AUG-CC-PVTZ
  Basis Set: (AUG-CC-PVTZ AUX)
    Blend: AUG-CC-PVTZ-JKFIT

    Orbital Energies [Eh]
    ---------------------

    Doubly Occupied:

       1A    -20.625275     2A    -20.562710     3A    -20.530505
       4A    -15.591547     5A    -11.398590     6A    -11.356286
       7A    -11.290234     8A    -11.244151     9A    -11.216553
      10A     -1.468308    11A     -1.388589    12A     -1.368541
      13A     -1.240327    14A     -1.063470    15A     -1.005060
      16A     -0.889310    17A     -0.823986    18A     -0.784156
      19A     -0.715849    20A     -0.713179    21A     -0.698745
      22A     -0.652744    23A     -0.644438    24A     -0.636860
      25A     -0.605008    26A     -0.600403    27A     -0.559142
      28A     -0.541193    29A     -0.525338    30A     -0.517782
      31A     -0.495575    32A     -0.491626    33A     -0.469332
      34A     -0.434962    35A     -0.410217

  @DF-RHF Final Energy:  -473.83980802628668

   => Energetics <=

    Nuclear Repulsion Energy =            458.0510710617368204
    One-Electron Energy =               -1556.6617819088799024
    Two-Electron Energy =                 624.7709028208564632
    Total Energy =                       -473.8398080262866188
  Basis Set: (AUG-CC-PVTZ AUX)
    Blend: AUG-CC-PVTZ-RI
    Molecular point group: c1

    Geometry (in Angstrom), charge = 0, multiplicity = 1:

       Center              X                  Y                   Z               Mass
    ------------   -----------------  -----------------  -----------------  -----------------
         O            1.083049110325    -1.259052032597     0.268466511468    15.994914619570
         O           -3.046010889675    -0.656488032597     0.356762511468    15.994914619570
         O           -1.720810889675     1.131901967403     0.853530511468    15.994914619570
         N            0.133456110325     0.336316967403    -1.060390488532    14.003074004430
         C            2.376803110325     0.734825967403    -0.181287488532    12.000000000000
         C            1.152400110325    -0.154449632597    -0.254821388532    12.000000000000
         C           -1.142025889675    -0.324908032597    -1.000091488532    12.000000000000
         C            3.488375110325     0.091012967403     0.630584511468    12.000000000000
         C           -1.958017889675     0.140641967403     0.186905511468    12.000000000000
         H            2.723238910325     0.966350867403    -1.195236088532     1.007825032230
         H            2.074375110325     1.693003967403     0.261238511468     1.007825032230
         H           -0.979389889675    -1.401519032597    -0.928670488532     1.007825032230
         H           -1.717597889675    -0.132299032597    -1.914564488532     1.007825032230
         H            0.113879110325     1.339652967403    -1.205930488532     1.007825032230
         H            3.787680110325    -0.858259032597     0.185024511468     1.007825032230
         H            4.359345110325     0.748695967403     0.674973511468     1.007825032230
         H            3.150378110325    -0.112403032597     1.646922511468     1.007825032230
         H           -3.547461889675    -0.279317032597     1.107570511468     1.007825032230

  Basis Set: AUG-CC-PVTZ
    Blend: AUG-CC-PVTZ
  Basis Set: (AUG-CC-PVTZ AUX)
    Blend: AUG-CC-PVTZ-JKFIT
	 Reference Energy          =    -473.8398080262866756 [Eh]
	 Singles Energy            =      -0.0000000000000000 [Eh]
	 Same-Spin Energy          =      -0.4666393174260217 [Eh]
	 Opposite-Spin Energy      =      -1.4575648943384034 [Eh]
	 Correlation Energy        =      -1.9242042117644251 [Eh]
	 Total Energy              =    -475.7640122380511229 [Eh]

	 ================> DF-SCS-MP2 Energies <==================
	-----------------------------------------------------------
	 SCS Same-Spin Scale       =       0.3333333333333333 [-]
	 SCS Opposite-Spin Scale   =       1.2000000000000000 [-]
	 SCS Same-Spin Energy      =      -0.1555464391420072 [Eh]
	 SCS Opposite-Spin Energy  =      -1.7490778732060841 [Eh]
	 SCS Correlation Energy    =      -1.9046243123480913 [Eh]
	 SCS Total Energy          =    -475.7444323386347946 [Eh]
	-----------------------------------------------------------

  Dipole Moment: [D]
     X:    -0.9142      Y:     1.8478      Z:    -1.7089     Total:     2.6778

*** Psi4 exiting successfully. Buy a developer a beer!
