                               Psi4 1.3.2 release

  ==> Input File <==

--------------------------------------------------------------------------
#psi4
#
memory 32 gb

molecule  {
0 1
  O        1.0830410    -1.2590340     0.2697030
  O       -3.0460190    -0.6564700     0.3579990
  O       -1.7208190     1.1319200     0.8547670
  N        0.1334480     0.3363350    -1.0591540
  C        2.3767950     0.7348440    -0.1800510
  C        1.1530800    -0.1541890    -0.2667860
  C       -1.1420340    -0.3248900    -0.9988550
  C        3.4883670     0.0910310     0.6318210
  C       -1.9580260     0.1406600     0.1881420
  H        2.7160870     0.9611190    -1.1975940
  H        2.0743670     1.6930220     0.2624750
  H       -0.9793980    -1.4015010    -0.9274340
  H       -1.7700470    -0.1147322    -1.9966466
  H        0.1138710     1.3396710    -1.2046940
  H        3.7876720    -0.8582410     0.1862610
  H        4.3593370     0.7487140     0.6762100
  H        3.1503700    -0.1123850     1.6481590
  H       -3.5474700    -0.2792990     1.1088070
units angstrom
no_reorient  #important for SAPT in psi4, default
symmetry c1  #important for SAPT in psi4, default
}

set PROPERTIES_ORIGIN ["COM"]
properties('MP2/aug-cc-pvtz', properties = ['dipole'])
--------------------------------------------------------------------------

    Molecular point group: c1
  Charge       = 0
  Multiplicity = 1
  Basis Set: AUG-CC-PVTZ
    Blend: AUG-CC-PVTZ
  Basis Set: (AUG-CC-PVTZ AUX)
    Blend: AUG-CC-PVTZ-JKFIT

    Orbital Energies [Eh]
    ---------------------

    Doubly Occupied:

       1A    -20.625335     2A    -20.563219     3A    -20.529385
       4A    -15.593892     5A    -11.399708     6A    -11.356874
       7A    -11.301852     8A    -11.244694     9A    -11.216823
      10A     -1.468518    11A     -1.385538    12A     -1.368759
      13A     -1.241964    14A     -1.063018    15A     -1.001708
      16A     -0.890074    17A     -0.821560    18A     -0.786358
      19A     -0.715603    20A     -0.713551    21A     -0.692672
      22A     -0.650297    23A     -0.644783    24A     -0.636632
      25A     -0.604579    26A     -0.597214    27A     -0.553777
      28A     -0.539111    29A     -0.523840    30A     -0.517750
      31A     -0.495513    32A     -0.491656    33A     -0.469500
      34A     -0.434658    35A     -0.409987

  @DF-RHF Final Energy:  -473.83274977695095

   => Energetics <=

    Nuclear Repulsion Energy =            457.5170426151017296
    One-Electron Energy =               -1555.5987798081459914
    Two-Electron Energy =                 624.2489874160934278
    Total Energy =                       -473.8327497769508909
  Basis Set: (AUG-CC-PVTZ AUX)
    Blend: AUG-CC-PVTZ-RI
    Molecular point group: c1

    Geometry (in Angstrom), charge = 0, multiplicity = 1:

       Center              X                  Y                   Z               Mass
    ------------   -----------------  -----------------  -----------------  -----------------
         O            1.083444316698    -1.259168822956     0.270343587577    15.994914619570
         O           -3.045615683302    -0.656604822956     0.358639587577    15.994914619570
         O           -1.720415683302     1.131785177044     0.855407587577    15.994914619570
         N            0.133851316698     0.336200177044    -1.058513412423    14.003074004430
         C            2.377198316698     0.734709177044    -0.179410412423    12.000000000000
         C            1.153483316698    -0.154323822956    -0.266145412423    12.000000000000
         C           -1.141630683302    -0.325024822956    -0.998214412423    12.000000000000
         C            3.488770316698     0.090896177044     0.632461587577    12.000000000000
         C           -1.957622683302     0.140525177044     0.188782587577    12.000000000000
         H            2.716490316698     0.960984177044    -1.196953412423     1.007825032230
         H            2.074770316698     1.692887177044     0.263115587577     1.007825032230
         H           -0.978994683302    -1.401635822956    -0.926793412423     1.007825032230
         H           -1.769643683302    -0.114867022956    -1.996006012423     1.007825032230
         H            0.114274316698     1.339536177044    -1.204053412423     1.007825032230
         H            3.788075316698    -0.858375822956     0.186901587577     1.007825032230
         H            4.359740316698     0.748579177044     0.676850587577     1.007825032230
         H            3.150773316698    -0.112519822956     1.648799587577     1.007825032230
         H           -3.547066683302    -0.279433822956     1.109447587577     1.007825032230

  Basis Set: AUG-CC-PVTZ
    Blend: AUG-CC-PVTZ
  Basis Set: (AUG-CC-PVTZ AUX)
    Blend: AUG-CC-PVTZ-JKFIT
	 Reference Energy          =    -473.8327497769509478 [Eh]
	 Singles Energy            =      -0.0000000000000000 [Eh]
	 Same-Spin Energy          =      -0.4668378951059313 [Eh]
	 Opposite-Spin Energy      =      -1.4585110866303568 [Eh]
	 Correlation Energy        =      -1.9253489817362881 [Eh]
	 Total Energy              =    -475.7580987586872538 [Eh]

	 ================> DF-SCS-MP2 Energies <==================
	-----------------------------------------------------------
	 SCS Same-Spin Scale       =       0.3333333333333333 [-]
	 SCS Opposite-Spin Scale   =       1.2000000000000000 [-]
	 SCS Same-Spin Energy      =      -0.1556126317019771 [Eh]
	 SCS Opposite-Spin Energy  =      -1.7502133039564280 [Eh]
	 SCS Correlation Energy    =      -1.9058259356584051 [Eh]
	 SCS Total Energy          =    -475.7385757126093608 [Eh]
	-----------------------------------------------------------

  Dipole Moment: [D]
     X:    -0.9115      Y:     1.8829      Z:    -1.7309     Total:     2.7151

*** Psi4 exiting successfully. Buy a developer a beer!
