                               Psi4 1.4a3.dev225

  ==> Input File <==

--------------------------------------------------------------------------
#psi4
#
memory 32 gb

molecule  {
0 1
  O        0.8764270    -0.2428500     1.2911470
  O       -3.1675390     0.0980960     0.5443480
  O       -1.5839830     1.3406500    -0.5070920
  N        0.0834400    -0.8734940    -0.7544630
  C        2.2681300     0.2178930    -0.6380450
  C        1.0330250    -0.3000120     0.0721840
  C       -1.2394860    -1.0499030    -0.2084880
  C        3.4385850     0.4137260     0.3159750
  C       -1.9688345     0.2520092    -0.0867472
  H        2.5310470    -0.4685700    -1.4513520
  H        1.9929790     1.1708880    -1.1091590
  H       -1.1549390    -1.4972460     0.7835340
  H       -1.8230450    -1.7308360    -0.8360530
  H        0.1282230    -0.6025030    -1.7308050
  H        3.7379630    -0.5375510     0.7615240
  H        4.2975370     0.8343390    -0.2133880
  H        3.1581410     1.0869690     1.1269820
  H       -3.5812870     0.9851770     0.5837010
units angstrom
no_reorient  #important for SAPT in psi4, default
symmetry c1  #important for SAPT in psi4, default
}

set PROPERTIES_ORIGIN ["COM"]
properties('MP2/aug-cc-pvtz', properties = ['dipole'])
--------------------------------------------------------------------------

    Molecular point group: c1
  Charge       = 0
  Multiplicity = 1
  Basis Set: AUG-CC-PVTZ
    Blend: AUG-CC-PVTZ
  Basis Set: (AUG-CC-PVTZ AUX)
    Blend: AUG-CC-PVTZ-JKFIT

    Orbital Energies [Eh]
    ---------------------

    Doubly Occupied:

       1A    -20.622941     2A    -20.560068     3A    -20.528364
       4A    -15.594506     5A    -11.399444     6A    -11.356016
       7A    -11.293256     8A    -11.244173     9A    -11.217755
      10A     -1.463925    11A     -1.384367    12A     -1.359548
      13A     -1.242661    14A     -1.063596    15A     -1.009960
      16A     -0.889947    17A     -0.824048    18A     -0.785450
      19A     -0.714535    20A     -0.711162    21A     -0.698154
      22A     -0.653606    23A     -0.645024    24A     -0.630237
      25A     -0.603590    26A     -0.597471    27A     -0.559627
      28A     -0.545070    29A     -0.524399    30A     -0.515461
      31A     -0.494506    32A     -0.486362    33A     -0.468681
      34A     -0.433507    35A     -0.412952

  @DF-RHF Final Energy:  -473.83787198579978

   => Energetics <=

    Nuclear Repulsion Energy =            460.4895131411903435
    One-Electron Energy =               -1561.5860318080005982
    Two-Electron Energy =                 627.2586466810104184
    Total Energy =                       -473.8378719857997794
  Basis Set: (AUG-CC-PVTZ AUX)
    Blend: AUG-CC-PVTZ-RI
    Molecular point group: c1

    Geometry (in Angstrom), charge = 0, multiplicity = 1:

       Center              X                  Y                   Z               Mass
    ------------   -----------------  -----------------  -----------------  -----------------
         O            0.945686863870    -0.246939303132     1.275580595505    15.994914619570
         O           -3.098279136130     0.094006696868     0.528781595505    15.994914619570
         O           -1.514723136130     1.336560696868    -0.522658404495    15.994914619570
         N            0.152699863870    -0.877583303132    -0.770029404495    14.003074004430
         C            2.337389863870     0.213803696868    -0.653611404495    12.000000000000
         C            1.102284863870    -0.304101303132     0.056617595505    12.000000000000
         C           -1.170226136130    -1.053992303132    -0.224054404495    12.000000000000
         C            3.507844863870     0.409636696868     0.300408595505    12.000000000000
         C           -1.899574636130     0.247919896868    -0.102313604495    12.000000000000
         H            2.600306863870    -0.472659303132    -1.466918404495     1.007825032230
         H            2.062238863870     1.166798696868    -1.124725404495     1.007825032230
         H           -1.085679136130    -1.501335303132     0.767967595505     1.007825032230
         H           -1.753785136130    -1.734925303132    -0.851619404495     1.007825032230
         H            0.197482863870    -0.606592303132    -1.746371404495     1.007825032230
         H            3.807222863870    -0.541640303132     0.745957595505     1.007825032230
         H            4.366796863870     0.830249696868    -0.228954404495     1.007825032230
         H            3.227400863870     1.082879696868     1.111415595505     1.007825032230
         H           -3.512027136130     0.981087696868     0.568134595505     1.007825032230

  Basis Set: AUG-CC-PVTZ
    Blend: AUG-CC-PVTZ
  Basis Set: (AUG-CC-PVTZ AUX)
    Blend: AUG-CC-PVTZ-JKFIT
	 Reference Energy          =    -473.8378719857997794 [Eh]
	 Singles Energy            =      -0.0000000000000000 [Eh]
	 Same-Spin Energy          =      -0.4671729795519882 [Eh]
	 Opposite-Spin Energy      =      -1.4587028301161593 [Eh]
	 Correlation Energy        =      -1.9258758096681476 [Eh]
	 Total Energy              =    -475.7637477954679071 [Eh]

	 ================> DF-SCS-MP2 Energies <==================
	-----------------------------------------------------------
	 SCS Same-Spin Scale       =       0.3333333333333333 [-]
	 SCS Opposite-Spin Scale   =       1.2000000000000000 [-]
	 SCS Same-Spin Energy      =      -0.1557243265173294 [Eh]
	 SCS Opposite-Spin Energy  =      -1.7504433961393910 [Eh]
	 SCS Correlation Energy    =      -1.9061677226567204 [Eh]
	 SCS Total Energy          =    -475.7440397084565120 [Eh]
	-----------------------------------------------------------

  Dipole Moment: [D]
     X:    -0.8295      Y:    -0.8631      Z:    -2.6724     Total:     2.9283

*** Psi4 exiting successfully. Buy a developer a beer!
