                               Psi4 1.4a3.dev225

  ==> Input File <==

--------------------------------------------------------------------------
#psi4
#
memory 32 gb

molecule  {
0 1
  O        0.8764270    -0.2428500     1.2911470
  O       -3.1675390     0.0980960     0.5443480
  O       -1.5839830     1.3406500    -0.5070920
  N        0.0834400    -0.8734940    -0.7544630
  C        2.2681300     0.2178930    -0.6380450
  C        1.0192972    -0.3083026     0.0602335
  C       -1.2394860    -1.0499030    -0.2084880
  C        3.4385850     0.4137260     0.3159750
  C       -1.9785770     0.2694000    -0.0851210
  H        2.5310470    -0.4685700    -1.4513520
  H        1.9929790     1.1708880    -1.1091590
  H       -1.1549390    -1.4972460     0.7835340
  H       -1.8230450    -1.7308360    -0.8360530
  H        0.1282230    -0.6025030    -1.7308050
  H        3.7379630    -0.5375510     0.7615240
  H        4.2975370     0.8343390    -0.2133880
  H        3.1581410     1.0869690     1.1269820
  H       -3.5812870     0.9851770     0.5837010
units angstrom
no_reorient  #important for SAPT in psi4, default
symmetry c1  #important for SAPT in psi4, default
}

set PROPERTIES_ORIGIN ["COM"]
properties('MP2/aug-cc-pvtz', properties = ['dipole'])
--------------------------------------------------------------------------

    Molecular point group: c1
  Charge       = 0
  Multiplicity = 1
  Basis Set: AUG-CC-PVTZ
    Blend: AUG-CC-PVTZ
  Basis Set: (AUG-CC-PVTZ AUX)
    Blend: AUG-CC-PVTZ-JKFIT

    Orbital Energies [Eh]
    ---------------------

    Doubly Occupied:

       1A    -20.625556     2A    -20.561918     3A    -20.524136
       4A    -15.597008     5A    -11.399059     6A    -11.354479
       7A    -11.293888     8A    -11.243413     9A    -11.216591
      10A     -1.470117    11A     -1.378463    12A     -1.366858
      13A     -1.246282    14A     -1.060538    15A     -1.007733
      16A     -0.888256    17A     -0.826383    18A     -0.789055
      19A     -0.716778    20A     -0.712103    21A     -0.696890
      22A     -0.653609    23A     -0.647123    24A     -0.629733
      25A     -0.603694    26A     -0.596156    27A     -0.560413
      28A     -0.543842    29A     -0.522706    30A     -0.513791
      31A     -0.494688    32A     -0.489954    33A     -0.469349
      34A     -0.429788    35A     -0.411923

  @DF-RHF Final Energy:  -473.83875018987669

   => Energetics <=

    Nuclear Repulsion Energy =            460.5321912150215553
    One-Electron Energy =               -1561.6573357086742817
    Two-Electron Energy =                 627.2863943037759782
    Total Energy =                       -473.8387501898766914
  Basis Set: (AUG-CC-PVTZ AUX)
    Blend: AUG-CC-PVTZ-RI
    Molecular point group: c1

    Geometry (in Angstrom), charge = 0, multiplicity = 1:

       Center              X                  Y                   Z               Mass
    ------------   -----------------  -----------------  -----------------  -----------------
         O            0.947835859562    -0.247772538779     1.276525912617    15.994914619570
         O           -3.096130140438     0.093173461221     0.529726912617    15.994914619570
         O           -1.512574140438     1.335727461221    -0.521713087383    15.994914619570
         N            0.154848859562    -0.878416538779    -0.769084087383    14.003074004430
         C            2.339538859562     0.212970461221    -0.652666087383    12.000000000000
         C            1.090706059562    -0.313225138779     0.045612412617    12.000000000000
         C           -1.168077140438    -1.054825538779    -0.223109087383    12.000000000000
         C            3.509993859562     0.408803461221     0.301353912617    12.000000000000
         C           -1.907168140438     0.264477461221    -0.099742087383    12.000000000000
         H            2.602455859562    -0.473492538779    -1.465973087383     1.007825032230
         H            2.064387859562     1.165965461221    -1.123780087383     1.007825032230
         H           -1.083530140438    -1.502168538779     0.768912912617     1.007825032230
         H           -1.751636140438    -1.735758538779    -0.850674087383     1.007825032230
         H            0.199631859562    -0.607425538779    -1.745426087383     1.007825032230
         H            3.809371859562    -0.542473538779     0.746902912617     1.007825032230
         H            4.368945859562     0.829416461221    -0.228009087383     1.007825032230
         H            3.229549859562     1.082046461221     1.112360912617     1.007825032230
         H           -3.509878140438     0.980254461221     0.569079912617     1.007825032230

  Basis Set: AUG-CC-PVTZ
    Blend: AUG-CC-PVTZ
  Basis Set: (AUG-CC-PVTZ AUX)
    Blend: AUG-CC-PVTZ-JKFIT
	 Reference Energy          =    -473.8387501898766914 [Eh]
	 Singles Energy            =      -0.0000000000000000 [Eh]
	 Same-Spin Energy          =      -0.4669976817713163 [Eh]
	 Opposite-Spin Energy      =      -1.4582874875317136 [Eh]
	 Correlation Energy        =      -1.9252851693030300 [Eh]
	 Total Energy              =    -475.7640353591797293 [Eh]

	 ================> DF-SCS-MP2 Energies <==================
	-----------------------------------------------------------
	 SCS Same-Spin Scale       =       0.3333333333333333 [-]
	 SCS Opposite-Spin Scale   =       1.2000000000000000 [-]
	 SCS Same-Spin Energy      =      -0.1556658939237721 [Eh]
	 SCS Opposite-Spin Energy  =      -1.7499449850380562 [Eh]
	 SCS Correlation Energy    =      -1.9056108789618282 [Eh]
	 SCS Total Energy          =    -475.7443610688385434 [Eh]
	-----------------------------------------------------------

  Dipole Moment: [D]
     X:    -1.0312      Y:    -0.8397      Z:    -2.7581     Total:     3.0620

*** Psi4 exiting successfully. Buy a developer a beer!
