                               Psi4 1.3.2 release

  ==> Input File <==

--------------------------------------------------------------------------
#psi4
#
memory 32 gb

molecule  {
0 1
  O        1.0830410    -1.2590340     0.2697030
  O       -3.0460190    -0.6564700     0.3579990
  O       -1.7208190     1.1319200     0.8547670
  N        0.1305282     0.3408127    -1.0705069
  C        2.3767950     0.7348440    -0.1800510
  C        1.1530800    -0.1541890    -0.2667860
  C       -1.1420340    -0.3248900    -0.9988550
  C        3.4883670     0.0910310     0.6318210
  C       -1.9580260     0.1406600     0.1881420
  H        2.7160870     0.9611190    -1.1975940
  H        2.0743670     1.6930220     0.2624750
  H       -0.9793980    -1.4015010    -0.9274340
  H       -1.7103902    -0.1269605    -1.9166989
  H        0.1138710     1.3396710    -1.2046940
  H        3.7876720    -0.8582410     0.1862610
  H        4.3593370     0.7487140     0.6762100
  H        3.1503700    -0.1123850     1.6481590
  H       -3.5474700    -0.2792990     1.1088070
units angstrom
no_reorient  #important for SAPT in psi4, default
symmetry c1  #important for SAPT in psi4, default
}

set PROPERTIES_ORIGIN ["COM"]
properties('MP2/aug-cc-pvtz', properties = ['dipole'])
--------------------------------------------------------------------------

    Molecular point group: c1
  Charge       = 0
  Multiplicity = 1
  Basis Set: AUG-CC-PVTZ
    Blend: AUG-CC-PVTZ
  Basis Set: (AUG-CC-PVTZ AUX)
    Blend: AUG-CC-PVTZ-JKFIT

    Orbital Energies [Eh]
    ---------------------

    Doubly Occupied:

       1A    -20.625444     2A    -20.562902     3A    -20.530798
       4A    -15.592008     5A    -11.398906     6A    -11.357490
       7A    -11.290399     8A    -11.244558     9A    -11.216792
      10A     -1.468457    11A     -1.385103    12A     -1.368582
      13A     -1.240943    14A     -1.063488    15A     -1.005110
      16A     -0.889939    17A     -0.824327    18A     -0.785275
      19A     -0.715934    20A     -0.713054    21A     -0.698321
      22A     -0.651883    23A     -0.644440    24A     -0.636873
      25A     -0.604741    26A     -0.600023    27A     -0.560255
      28A     -0.540273    29A     -0.525247    30A     -0.517708
      31A     -0.495629    32A     -0.491762    33A     -0.469418
      34A     -0.434995    35A     -0.410462

  @DF-RHF Final Energy:  -473.83938887074794

   => Energetics <=

    Nuclear Repulsion Energy =            457.7932805086188068
    One-Electron Energy =               -1556.1422626896323891
    Two-Electron Energy =                 624.5095933102655863
    Total Energy =                       -473.8393888707479391
  Basis Set: (AUG-CC-PVTZ AUX)
    Blend: AUG-CC-PVTZ-RI
    Molecular point group: c1

    Geometry (in Angstrom), charge = 0, multiplicity = 1:

       Center              X                  Y                   Z               Mass
    ------------   -----------------  -----------------  -----------------  -----------------
         O            1.083297531266    -1.259553213716     0.270941811722    15.994914619570
         O           -3.045762468734    -0.656989213716     0.359237811722    15.994914619570
         O           -1.720562468734     1.131400786284     0.856005811722    15.994914619570
         N            0.130784731266     0.340293486284    -1.069268088278    14.003074004430
         C            2.377051531266     0.734324786284    -0.178812188278    12.000000000000
         C            1.153336531266    -0.154708213716    -0.265547188278    12.000000000000
         C           -1.141777468734    -0.325409213716    -0.997616188278    12.000000000000
         C            3.488623531266     0.090511786284     0.633059811722    12.000000000000
         C           -1.957769468734     0.140140786284     0.189380811722    12.000000000000
         H            2.716343531266     0.960599786284    -1.196355188278     1.007825032230
         H            2.074623531266     1.692502786284     0.263713811722     1.007825032230
         H           -0.979141468734    -1.402020213716    -0.926195188278     1.007825032230
         H           -1.710133668734    -0.127479713716    -1.915460088278     1.007825032230
         H            0.114127531266     1.339151786284    -1.203455188278     1.007825032230
         H            3.787928531266    -0.858760213716     0.187499811722     1.007825032230
         H            4.359593531266     0.748194786284     0.677448811722     1.007825032230
         H            3.150626531266    -0.112904213716     1.649397811722     1.007825032230
         H           -3.547213468734    -0.279818213716     1.110045811722     1.007825032230

  Basis Set: AUG-CC-PVTZ
    Blend: AUG-CC-PVTZ
  Basis Set: (AUG-CC-PVTZ AUX)
    Blend: AUG-CC-PVTZ-JKFIT
	 Reference Energy          =    -473.8393888707479391 [Eh]
	 Singles Energy            =      -0.0000000000000000 [Eh]
	 Same-Spin Energy          =      -0.4667099302187311 [Eh]
	 Opposite-Spin Energy      =      -1.4578310513723074 [Eh]
	 Correlation Energy        =      -1.9245409815910386 [Eh]
	 Total Energy              =    -475.7639298523390039 [Eh]

	 ================> DF-SCS-MP2 Energies <==================
	-----------------------------------------------------------
	 SCS Same-Spin Scale       =       0.3333333333333333 [-]
	 SCS Opposite-Spin Scale   =       1.2000000000000000 [-]
	 SCS Same-Spin Energy      =      -0.1555699767395770 [Eh]
	 SCS Opposite-Spin Energy  =      -1.7493972616467688 [Eh]
	 SCS Correlation Energy    =      -1.9049672383863459 [Eh]
	 SCS Total Energy          =    -475.7443561091342872 [Eh]
	-----------------------------------------------------------

  Dipole Moment: [D]
     X:    -0.9093      Y:     1.8529      Z:    -1.6994     Total:     2.6736

*** Psi4 exiting successfully. Buy a developer a beer!
