                               Psi4 1.4a3.dev225

  ==> Input File <==

--------------------------------------------------------------------------
#psi4
#
memory 32 gb

molecule  {
0 1
  O        0.8764270    -0.2428500     1.2911470
  O       -3.1675390     0.0980960     0.5443480
  O       -1.5839830     1.3406500    -0.5070920
  N        0.0834400    -0.8734940    -0.7544630
  C        2.2681300     0.2178930    -0.6380450
  C        1.0330250    -0.3000120     0.0721840
  C       -1.2394860    -1.0499030    -0.2084880
  C        3.4385850     0.4137260     0.3159750
  C       -1.9785770     0.2694000    -0.0851210
  H        2.5310470    -0.4685700    -1.4513520
  H        1.9929790     1.1708880    -1.1091590
  H       -1.1549390    -1.4972460     0.7835340
  H       -1.8337080    -1.7432782    -0.8475200
  H        0.1282230    -0.6025030    -1.7308050
  H        3.7379630    -0.5375510     0.7615240
  H        4.2975370     0.8343390    -0.2133880
  H        3.1581410     1.0869690     1.1269820
  H       -3.5812870     0.9851770     0.5837010
units angstrom
no_reorient  #important for SAPT in psi4, default
symmetry c1  #important for SAPT in psi4, default
}

set PROPERTIES_ORIGIN ["COM"]
properties('MP2/aug-cc-pvtz', properties = ['dipole'])
--------------------------------------------------------------------------

    Molecular point group: c1
  Charge       = 0
  Multiplicity = 1
  Basis Set: AUG-CC-PVTZ
    Blend: AUG-CC-PVTZ
  Basis Set: (AUG-CC-PVTZ AUX)
    Blend: AUG-CC-PVTZ-JKFIT

    Orbital Energies [Eh]
    ---------------------

    Doubly Occupied:

       1A    -20.624608     2A    -20.560954     3A    -20.527749
       4A    -15.593637     5A    -11.397839     6A    -11.355380
       7A    -11.294246     8A    -11.243829     9A    -11.217507
      10A     -1.469138    11A     -1.383902    12A     -1.366762
      13A     -1.241045    14A     -1.062037    15A     -1.003932
      16A     -0.889077    17A     -0.823802    18A     -0.784515
      19A     -0.715429    20A     -0.710934    21A     -0.697158
      22A     -0.652560    23A     -0.646320    24A     -0.630014
      25A     -0.604147    26A     -0.598279    27A     -0.557434
      28A     -0.544431    29A     -0.523737    30A     -0.515122
      31A     -0.495054    32A     -0.489638    33A     -0.468954
      34A     -0.432684    35A     -0.411127

  @DF-RHF Final Energy:  -473.83924198275020

   => Energetics <=

    Nuclear Repulsion Energy =            460.3604426627089765
    One-Electron Energy =               -1561.3334083396973710
    Two-Electron Energy =                 627.1337236942382560
    Total Energy =                       -473.8392419827501953
  Basis Set: (AUG-CC-PVTZ AUX)
    Blend: AUG-CC-PVTZ-RI
    Molecular point group: c1

    Geometry (in Angstrom), charge = 0, multiplicity = 1:

       Center              X                  Y                   Z               Mass
    ------------   -----------------  -----------------  -----------------  -----------------
         O            0.946660907434    -0.248435966255     1.275519876925    15.994914619570
         O           -3.097305092566     0.092510033745     0.528720876925    15.994914619570
         O           -1.513749092566     1.335064033745    -0.522719123075    15.994914619570
         N            0.153673907434    -0.879079966255    -0.770090123075    14.003074004430
         C            2.338363907434     0.212307033745    -0.653672123075    12.000000000000
         C            1.103258907434    -0.305597966255     0.056556876925    12.000000000000
         C           -1.169252092566    -1.055488966255    -0.224115123075    12.000000000000
         C            3.508818907434     0.408140033745     0.300347876925    12.000000000000
         C           -1.908343092566     0.263814033745    -0.100748123075    12.000000000000
         H            2.601280907434    -0.474155966255    -1.466979123075     1.007825032230
         H            2.063212907434     1.165302033745    -1.124786123075     1.007825032230
         H           -1.084705092566    -1.502831966255     0.767906876925     1.007825032230
         H           -1.763474092566    -1.748864166255    -0.863147123075     1.007825032230
         H            0.198456907434    -0.608088966255    -1.746432123075     1.007825032230
         H            3.808196907434    -0.543136966255     0.745896876925     1.007825032230
         H            4.367770907434     0.828753033745    -0.229015123075     1.007825032230
         H            3.228374907434     1.081383033745     1.111354876925     1.007825032230
         H           -3.511053092566     0.979591033745     0.568073876925     1.007825032230

  Basis Set: AUG-CC-PVTZ
    Blend: AUG-CC-PVTZ
  Basis Set: (AUG-CC-PVTZ AUX)
    Blend: AUG-CC-PVTZ-JKFIT
	 Reference Energy          =    -473.8392419827501953 [Eh]
	 Singles Energy            =      -0.0000000000000000 [Eh]
	 Same-Spin Energy          =      -0.4668396682809897 [Eh]
	 Opposite-Spin Energy      =      -1.4581180991316924 [Eh]
	 Correlation Energy        =      -1.9249577674126821 [Eh]
	 Total Energy              =    -475.7641997501629021 [Eh]

	 ================> DF-SCS-MP2 Energies <==================
	-----------------------------------------------------------
	 SCS Same-Spin Scale       =       0.3333333333333333 [-]
	 SCS Opposite-Spin Scale   =       1.2000000000000000 [-]
	 SCS Same-Spin Energy      =      -0.1556132227603299 [Eh]
	 SCS Opposite-Spin Energy  =      -1.7497417189580309 [Eh]
	 SCS Correlation Energy    =      -1.9053549417183608 [Eh]
	 SCS Total Energy          =    -475.7445969244685671 [Eh]
	-----------------------------------------------------------

  Dipole Moment: [D]
     X:    -0.8971      Y:    -0.7809      Z:    -2.6636     Total:     2.9170

*** Psi4 exiting successfully. Buy a developer a beer!
