                               Psi4 1.3.2 release

  ==> Input File <==

--------------------------------------------------------------------------
#psi4
#
memory 32 gb

molecule  {
0 1
  O        1.0830410    -1.2590340     0.2697030
  O       -3.0460190    -0.6564700     0.3579990
  O       -1.7208190     1.1319200     0.8547670
  N        0.1362516     0.3298614    -1.0695317
  C        2.3767950     0.7348440    -0.1800510
  C        1.1530800    -0.1541890    -0.2667860
  C       -1.1420340    -0.3248900    -0.9988550
  C        3.4883670     0.0910310     0.6318210
  C       -1.9677730     0.1324889     0.1845728
  H        2.7160870     0.9611190    -1.1975940
  H        2.0743670     1.6930220     0.2624750
  H       -0.9793980    -1.4015010    -0.9274340
  H       -1.7176060    -0.1322810    -1.9133280
  H        0.1138710     1.3396710    -1.2046940
  H        3.7876720    -0.8582410     0.1862610
  H        4.3593370     0.7487140     0.6762100
  H        3.1503700    -0.1123850     1.6481590
  H       -3.5474700    -0.2792990     1.1088070
units angstrom
no_reorient  #important for SAPT in psi4, default
symmetry c1  #important for SAPT in psi4, default
}

set PROPERTIES_ORIGIN ["COM"]
properties('MP2/aug-cc-pvtz', properties = ['dipole'])
--------------------------------------------------------------------------

    Molecular point group: c1
  Charge       = 0
  Multiplicity = 1
  Basis Set: AUG-CC-PVTZ
    Blend: AUG-CC-PVTZ
  Basis Set: (AUG-CC-PVTZ AUX)
    Blend: AUG-CC-PVTZ-JKFIT

    Orbital Energies [Eh]
    ---------------------

    Doubly Occupied:

       1A    -20.629286     2A    -20.560636     3A    -20.529043
       4A    -15.593269     5A    -11.399929     6A    -11.356124
       7A    -11.290699     8A    -11.244198     9A    -11.216432
      10A     -1.471838    11A     -1.384841    12A     -1.364703
      13A     -1.240828    14A     -1.063338    15A     -1.006332
      16A     -0.890430    17A     -0.827872    18A     -0.783811
      19A     -0.716200    20A     -0.713907    21A     -0.698213
      22A     -0.653774    23A     -0.645122    24A     -0.636916
      25A     -0.603392    26A     -0.598487    27A     -0.559566
      28A     -0.540061    29A     -0.525212    30A     -0.517326
      31A     -0.494780    32A     -0.489000    33A     -0.468086
      34A     -0.434407    35A     -0.410517

  @DF-RHF Final Energy:  -473.83884912566668

   => Energetics <=

    Nuclear Repulsion Energy =            457.8221391698981506
    One-Electron Energy =               -1556.2048297166109023
    Two-Electron Energy =                 624.5438414210459541
    Total Energy =                       -473.8388491256666839
  Basis Set: (AUG-CC-PVTZ AUX)
    Blend: AUG-CC-PVTZ-RI
    Molecular point group: c1

    Geometry (in Angstrom), charge = 0, multiplicity = 1:

       Center              X                  Y                   Z               Mass
    ------------   -----------------  -----------------  -----------------  -----------------
         O            1.083633954745    -1.257594029835     0.271138497747    15.994914619570
         O           -3.045426045255    -0.655030029835     0.359434497747    15.994914619570
         O           -1.720226045255     1.133359970165     0.856202497747    15.994914619570
         N            0.136844554745     0.331301370165    -1.068096202253    14.003074004430
         C            2.377387954745     0.736283970165    -0.178615502253    12.000000000000
         C            1.153672954745    -0.152749029835    -0.265350502253    12.000000000000
         C           -1.141441045255    -0.323450029835    -0.997419502253    12.000000000000
         C            3.488959954745     0.092470970165     0.633256497747    12.000000000000
         C           -1.967180045255     0.133928870165     0.186008297747    12.000000000000
         H            2.716679954745     0.962558970165    -1.196158502253     1.007825032230
         H            2.074959954745     1.694461970165     0.263910497747     1.007825032230
         H           -0.978805045255    -1.400061029835    -0.925998502253     1.007825032230
         H           -1.717013045255    -0.130841029835    -1.911892502253     1.007825032230
         H            0.114463954745     1.341110970165    -1.203258502253     1.007825032230
         H            3.788264954745    -0.856801029835     0.187696497747     1.007825032230
         H            4.359929954745     0.750153970165     0.677645497747     1.007825032230
         H            3.150962954745    -0.110945029835     1.649594497747     1.007825032230
         H           -3.546877045255    -0.277859029835     1.110242497747     1.007825032230

  Basis Set: AUG-CC-PVTZ
    Blend: AUG-CC-PVTZ
  Basis Set: (AUG-CC-PVTZ AUX)
    Blend: AUG-CC-PVTZ-JKFIT
	 Reference Energy          =    -473.8388491256666839 [Eh]
	 Singles Energy            =      -0.0000000000000000 [Eh]
	 Same-Spin Energy          =      -0.4668733183684612 [Eh]
	 Opposite-Spin Energy      =      -1.4580012542127103 [Eh]
	 Correlation Energy        =      -1.9248745725811716 [Eh]
	 Total Energy              =    -475.7637236982478726 [Eh]

	 ================> DF-SCS-MP2 Energies <==================
	-----------------------------------------------------------
	 SCS Same-Spin Scale       =       0.3333333333333333 [-]
	 SCS Opposite-Spin Scale   =       1.2000000000000000 [-]
	 SCS Same-Spin Energy      =      -0.1556244394561537 [Eh]
	 SCS Opposite-Spin Energy  =      -1.7496015050552522 [Eh]
	 SCS Correlation Energy    =      -1.9052259445114059 [Eh]
	 SCS Total Energy          =    -475.7440750701780985 [Eh]
	-----------------------------------------------------------

  Dipole Moment: [D]
     X:    -1.0191      Y:     1.7991      Z:    -1.7222     Total:     2.6910

*** Psi4 exiting successfully. Buy a developer a beer!
