                               Psi4 1.3.2 release

  ==> Input File <==

--------------------------------------------------------------------------
#psi4
#
memory 32 gb

molecule  {
0 1
  O        1.0830410    -1.2590340     0.2697030
  O       -3.0460190    -0.6564700     0.3579990
  O       -1.7208190     1.1319200     0.8547670
  N        0.1334480     0.3363350    -1.0591540
  C        2.3767950     0.7348440    -0.1800510
  C        1.1591627    -0.1513126    -0.3458190
  C       -1.1420340    -0.3248900    -0.9988550
  C        3.4883670     0.0910310     0.6318210
  C       -1.9580260     0.1406600     0.1881420
  H        2.6727010     0.9292717    -1.2175242
  H        2.0743670     1.6930220     0.2624750
  H       -0.9793980    -1.4015010    -0.9274340
  H       -1.7176060    -0.1322810    -1.9133280
  H        0.1138710     1.3396710    -1.2046940
  H        3.7876720    -0.8582410     0.1862610
  H        4.3593370     0.7487140     0.6762100
  H        3.1503700    -0.1123850     1.6481590
  H       -3.5474700    -0.2792990     1.1088070
units angstrom
no_reorient  #important for SAPT in psi4, default
symmetry c1  #important for SAPT in psi4, default
}

set PROPERTIES_ORIGIN ["COM"]
properties('MP2/aug-cc-pvtz', properties = ['dipole'])
--------------------------------------------------------------------------

    Molecular point group: c1
  Charge       = 0
  Multiplicity = 1
  Basis Set: AUG-CC-PVTZ
    Blend: AUG-CC-PVTZ
  Basis Set: (AUG-CC-PVTZ AUX)
    Blend: AUG-CC-PVTZ-JKFIT

    Orbital Energies [Eh]
    ---------------------

    Doubly Occupied:

       1A    -20.626953     2A    -20.564412     3A    -20.518555
       4A    -15.600691     5A    -11.401455     6A    -11.355602
       7A    -11.295067     8A    -11.245270     9A    -11.216224
      10A     -1.470024    11A     -1.372415    12A     -1.361486
      13A     -1.247905    14A     -1.064256    15A     -1.012284
      16A     -0.892258    17A     -0.829107    18A     -0.794839
      19A     -0.717945    20A     -0.713455    21A     -0.695506
      22A     -0.654470    23A     -0.645073    24A     -0.638290
      25A     -0.604824    26A     -0.588707    27A     -0.561792
      28A     -0.537675    29A     -0.527444    30A     -0.512929
      31A     -0.495240    32A     -0.492233    33A     -0.468861
      34A     -0.426207    35A     -0.407967

  @DF-RHF Final Energy:  -473.83207409217192

   => Energetics <=

    Nuclear Repulsion Energy =            457.8353558280048219
    One-Electron Energy =               -1556.2200179336423389
    Two-Electron Energy =                 624.5525880134656518
    Total Energy =                       -473.8320740921718652
  Basis Set: (AUG-CC-PVTZ AUX)
    Blend: AUG-CC-PVTZ-RI
    Molecular point group: c1

    Geometry (in Angstrom), charge = 0, multiplicity = 1:

       Center              X                  Y                   Z               Mass
    ------------   -----------------  -----------------  -----------------  -----------------
         O            1.082817738364    -1.259052341721     0.277092583767    15.994914619570
         O           -3.046242261636    -0.656488341721     0.365388583767    15.994914619570
         O           -1.721042261636     1.131901658279     0.862156583767    15.994914619570
         N            0.133224738364     0.336316658279    -1.051764416233    14.003074004430
         C            2.376571738364     0.734825658279    -0.172661416233    12.000000000000
         C            1.158939438364    -0.151330941721    -0.338429416233    12.000000000000
         C           -1.142257261636    -0.324908341721    -0.991465416233    12.000000000000
         C            3.488143738364     0.091012658279     0.639210583767    12.000000000000
         C           -1.958249261636     0.140641658279     0.195531583767    12.000000000000
         H            2.672477738364     0.929253358279    -1.210134616233     1.007825032230
         H            2.074143738364     1.693003658279     0.269864583767     1.007825032230
         H           -0.979621261636    -1.401519341721    -0.920044416233     1.007825032230
         H           -1.717829261636    -0.132299341721    -1.905938416233     1.007825032230
         H            0.113647738364     1.339652658279    -1.197304416233     1.007825032230
         H            3.787448738364    -0.858259341721     0.193650583767     1.007825032230
         H            4.359113738364     0.748695658279     0.683599583767     1.007825032230
         H            3.150146738364    -0.112403341721     1.655548583767     1.007825032230
         H           -3.547693261636    -0.279317341721     1.116196583767     1.007825032230

  Basis Set: AUG-CC-PVTZ
    Blend: AUG-CC-PVTZ
  Basis Set: (AUG-CC-PVTZ AUX)
    Blend: AUG-CC-PVTZ-JKFIT
	 Reference Energy          =    -473.8320740921719221 [Eh]
	 Singles Energy            =      -0.0000000000000000 [Eh]
	 Same-Spin Energy          =      -0.4675788771099282 [Eh]
	 Opposite-Spin Energy      =      -1.4593070908170995 [Eh]
	 Correlation Energy        =      -1.9268859679270278 [Eh]
	 Total Energy              =    -475.7589600600989570 [Eh]

	 ================> DF-SCS-MP2 Energies <==================
	-----------------------------------------------------------
	 SCS Same-Spin Scale       =       0.3333333333333333 [-]
	 SCS Opposite-Spin Scale   =       1.2000000000000000 [-]
	 SCS Same-Spin Energy      =      -0.1558596257033094 [Eh]
	 SCS Opposite-Spin Energy  =      -1.7511685089805193 [Eh]
	 SCS Correlation Energy    =      -1.9070281346838287 [Eh]
	 SCS Total Energy          =    -475.7391022268557776 [Eh]
	-----------------------------------------------------------

  Dipole Moment: [D]
     X:    -1.1594      Y:     2.0510      Z:    -1.9568     Total:     3.0626

*** Psi4 exiting successfully. Buy a developer a beer!
