                               Psi4 1.3.2 release

  ==> Input File <==

--------------------------------------------------------------------------
#psi4
#
memory 32 gb

molecule  {
0 1
  O        1.0830410    -1.2590340     0.2697030
  O       -3.0460190    -0.6564700     0.3579990
  O       -1.7208190     1.1319200     0.8547670
  N        0.1211885     0.3539404    -1.1045295
  C        2.3767950     0.7348440    -0.1800510
  C        1.1530800    -0.1541890    -0.2667860
  C       -1.1420340    -0.3248900    -0.9988550
  C        3.4883670     0.0910310     0.6318210
  C       -1.9580260     0.1406600     0.1881420
  H        2.7160870     0.9611190    -1.1975940
  H        2.0743670     1.6930220     0.2624750
  H       -0.9793980    -1.4015010    -0.9274340
  H       -1.6884853    -0.1110912    -1.9263911
  H        0.1138710     1.3396710    -1.2046940
  H        3.7876720    -0.8582410     0.1862610
  H        4.3593370     0.7487140     0.6762100
  H        3.1503700    -0.1123850     1.6481590
  H       -3.5474700    -0.2792990     1.1088070
units angstrom
no_reorient  #important for SAPT in psi4, default
symmetry c1  #important for SAPT in psi4, default
}

set PROPERTIES_ORIGIN ["COM"]
properties('MP2/aug-cc-pvtz', properties = ['dipole'])
--------------------------------------------------------------------------

    Molecular point group: c1
  Charge       = 0
  Multiplicity = 1
  Basis Set: AUG-CC-PVTZ
    Blend: AUG-CC-PVTZ
  Basis Set: (AUG-CC-PVTZ AUX)
    Blend: AUG-CC-PVTZ-JKFIT

    Orbital Energies [Eh]
    ---------------------

    Doubly Occupied:

       1A    -20.625258     2A    -20.562775     3A    -20.536688
       4A    -15.589657     5A    -11.398686     6A    -11.361438
       7A    -11.288893     8A    -11.245554     9A    -11.217704
      10A     -1.468201    11A     -1.386055    12A     -1.368493
      13A     -1.238108    14A     -1.063584    15A     -1.002188
      16A     -0.890735    17A     -0.823715    18A     -0.783347
      19A     -0.715399    20A     -0.713225    21A     -0.698465
      22A     -0.648365    23A     -0.644836    24A     -0.636338
      25A     -0.606902    26A     -0.600427    27A     -0.561807
      28A     -0.539773    29A     -0.525026    30A     -0.518266
      31A     -0.496068    32A     -0.491790    33A     -0.469812
      34A     -0.437607    35A     -0.411028

  @DF-RHF Final Energy:  -473.83649462868158

   => Energetics <=

    Nuclear Repulsion Energy =            457.0885494273876475
    One-Electron Energy =               -1554.7176613436929529
    Two-Electron Energy =                 623.7926172876236706
    Total Energy =                       -473.8364946286815211
  Basis Set: (AUG-CC-PVTZ AUX)
    Blend: AUG-CC-PVTZ-RI
    Molecular point group: c1

    Geometry (in Angstrom), charge = 0, multiplicity = 1:

       Center              X                  Y                   Z               Mass
    ------------   -----------------  -----------------  -----------------  -----------------
         O            1.084126996099    -1.261077891810     0.274651528988    15.994914619570
         O           -3.044933003901    -0.658513891810     0.362947528988    15.994914619570
         O           -1.719733003901     1.129876108190     0.859715528988    15.994914619570
         N            0.122274496099     0.351896508190    -1.099580971012    14.003074004430
         C            2.377880996099     0.732800108190    -0.175102471012    12.000000000000
         C            1.154165996099    -0.156232891810    -0.261837471012    12.000000000000
         C           -1.140948003901    -0.326933891810    -0.993906471012    12.000000000000
         C            3.489452996099     0.088987108190     0.636769528988    12.000000000000
         C           -1.956940003901     0.138616108190     0.193090528988    12.000000000000
         H            2.717172996099     0.959075108190    -1.192645471012     1.007825032230
         H            2.075452996099     1.690978108190     0.267423528988     1.007825032230
         H           -0.978312003901    -1.403544891810    -0.922485471012     1.007825032230
         H           -1.687399303901    -0.113135091810    -1.921442571012     1.007825032230
         H            0.114956996099     1.337627108190    -1.199745471012     1.007825032230
         H            3.788757996099    -0.860284891810     0.191209528988     1.007825032230
         H            4.360422996099     0.746670108190     0.681158528988     1.007825032230
         H            3.151455996099    -0.114428891810     1.653107528988     1.007825032230
         H           -3.546384003901    -0.281342891810     1.113755528988     1.007825032230

  Basis Set: AUG-CC-PVTZ
    Blend: AUG-CC-PVTZ
  Basis Set: (AUG-CC-PVTZ AUX)
    Blend: AUG-CC-PVTZ-JKFIT
	 Reference Energy          =    -473.8364946286815780 [Eh]
	 Singles Energy            =      -0.0000000000000000 [Eh]
	 Same-Spin Energy          =      -0.4666788014614640 [Eh]
	 Opposite-Spin Energy      =      -1.4582764308059279 [Eh]
	 Correlation Energy        =      -1.9249552322673920 [Eh]
	 Total Energy              =    -475.7614498609489715 [Eh]

	 ================> DF-SCS-MP2 Energies <==================
	-----------------------------------------------------------
	 SCS Same-Spin Scale       =       0.3333333333333333 [-]
	 SCS Opposite-Spin Scale   =       1.2000000000000000 [-]
	 SCS Same-Spin Energy      =      -0.1555596004871546 [Eh]
	 SCS Opposite-Spin Energy  =      -1.7499317169671136 [Eh]
	 SCS Correlation Energy    =      -1.9054913174542683 [Eh]
	 SCS Total Energy          =    -475.7419859461358556 [Eh]
	-----------------------------------------------------------

  Dipole Moment: [D]
     X:    -0.7848      Y:     1.7819      Z:    -1.5563     Total:     2.4927

*** Psi4 exiting successfully. Buy a developer a beer!
