                               Psi4 1.3.2 release

  ==> Input File <==

--------------------------------------------------------------------------
#psi4
#
memory 32 gb

molecule  {
0 1
  O        1.0830410    -1.2590340     0.2697030
  O       -3.0460190    -0.6564700     0.3579990
  O       -1.7208190     1.1319200     0.8547670
  N        0.1334480     0.3363350    -1.0591540
  C        2.3767950     0.7348440    -0.1800510
  C        1.1768577    -0.0863713    -0.2587005
  C       -1.1420340    -0.3248900    -0.9988550
  C        3.4883670     0.0910310     0.6318210
  C       -1.9580260     0.1406600     0.1881420
  H        2.7160870     0.9611190    -1.1975940
  H        2.0743670     1.6930220     0.2624750
  H       -0.9793980    -1.4015010    -0.9274340
  H       -1.7176060    -0.1322810    -1.9133280
  H        0.1571996     1.3435263    -1.1742616
  H        3.7876720    -0.8582410     0.1862610
  H        4.3593370     0.7487140     0.6762100
  H        3.1503700    -0.1123850     1.6481590
  H       -3.5474700    -0.2792990     1.1088070
units angstrom
no_reorient  #important for SAPT in psi4, default
symmetry c1  #important for SAPT in psi4, default
}

set PROPERTIES_ORIGIN ["COM"]
properties('MP2/aug-cc-pvtz', properties = ['dipole'])
--------------------------------------------------------------------------

    Molecular point group: c1
  Charge       = 0
  Multiplicity = 1
  Basis Set: AUG-CC-PVTZ
    Blend: AUG-CC-PVTZ
  Basis Set: (AUG-CC-PVTZ AUX)
    Blend: AUG-CC-PVTZ-JKFIT

    Orbital Energies [Eh]
    ---------------------

    Doubly Occupied:

       1A    -20.625674     2A    -20.563046     3A    -20.520299
       4A    -15.597056     5A    -11.399662     6A    -11.359974
       7A    -11.293375     8A    -11.247691     9A    -11.219751
      10A     -1.468674    11A     -1.370200    12A     -1.351686
      13A     -1.235072    14A     -1.076781    15A     -1.009871
      16A     -0.899943    17A     -0.828251    18A     -0.777532
      19A     -0.716620    20A     -0.714265    21A     -0.699021
      22A     -0.655344    23A     -0.644502    24A     -0.641477
      25A     -0.603875    26A     -0.589180    27A     -0.556747
      28A     -0.535577    29A     -0.528760    30A     -0.516182
      31A     -0.495030    32A     -0.490058    33A     -0.466951
      34A     -0.431606    35A     -0.405255

  @DF-RHF Final Energy:  -473.82599992804444

   => Energetics <=

    Nuclear Repulsion Energy =            457.6642231724401313
    One-Electron Energy =               -1555.9104688003801584
    Two-Electron Energy =                 624.4202456998955313
    Total Energy =                       -473.8259999280444390
  Basis Set: (AUG-CC-PVTZ AUX)
    Blend: AUG-CC-PVTZ-RI
    Molecular point group: c1

    Geometry (in Angstrom), charge = 0, multiplicity = 1:

       Center              X                  Y                   Z               Mass
    ------------   -----------------  -----------------  -----------------  -----------------
         O            1.080530715913    -1.265273068890     0.268728526210    15.994914619570
         O           -3.048529284087    -0.662709068890     0.357024526210    15.994914619570
         O           -1.723329284087     1.125680931110     0.853792526210    15.994914619570
         N            0.130937715913     0.330095931110    -1.060128473790    14.003074004430
         C            2.374284715913     0.728604931110    -0.181025473790    12.000000000000
         C            1.174347415913    -0.092610368890    -0.259674973790    12.000000000000
         C           -1.144544284087    -0.331129068890    -0.999829473790    12.000000000000
         C            3.485856715913     0.084791931110     0.630846526210    12.000000000000
         C           -1.960536284087     0.134420931110     0.187167526210    12.000000000000
         H            2.713576715913     0.954879931110    -1.198568473790     1.007825032230
         H            2.071856715913     1.686782931110     0.261500526210     1.007825032230
         H           -0.981908284087    -1.407740068890    -0.928408473790     1.007825032230
         H           -1.720116284087    -0.138520068890    -1.914302473790     1.007825032230
         H            0.154689315913     1.337287231110    -1.175236073790     1.007825032230
         H            3.785161715913    -0.864480068890     0.185286526210     1.007825032230
         H            4.356826715913     0.742474931110     0.675235526210     1.007825032230
         H            3.147859715913    -0.118624068890     1.647184526210     1.007825032230
         H           -3.549980284087    -0.285538068890     1.107832526210     1.007825032230

  Basis Set: AUG-CC-PVTZ
    Blend: AUG-CC-PVTZ
  Basis Set: (AUG-CC-PVTZ AUX)
    Blend: AUG-CC-PVTZ-JKFIT
	 Reference Energy          =    -473.8259999280444390 [Eh]
	 Singles Energy            =      -0.0000000000000000 [Eh]
	 Same-Spin Energy          =      -0.4685132661003302 [Eh]
	 Opposite-Spin Energy      =      -1.4611195439142581 [Eh]
	 Correlation Energy        =      -1.9296328100145883 [Eh]
	 Total Energy              =    -475.7556327380590346 [Eh]

	 ================> DF-SCS-MP2 Energies <==================
	-----------------------------------------------------------
	 SCS Same-Spin Scale       =       0.3333333333333333 [-]
	 SCS Opposite-Spin Scale   =       1.2000000000000000 [-]
	 SCS Same-Spin Energy      =      -0.1561710887001100 [Eh]
	 SCS Opposite-Spin Energy  =      -1.7533434526971097 [Eh]
	 SCS Correlation Energy    =      -1.9095145413972197 [Eh]
	 SCS Total Energy          =    -475.7355144694416822 [Eh]
	-----------------------------------------------------------

  Dipole Moment: [D]
     X:    -0.8241      Y:     2.1233      Z:    -1.7836     Total:     2.8929

*** Psi4 exiting successfully. Buy a developer a beer!
