                               Psi4 1.3.2 release

  ==> Input File <==

--------------------------------------------------------------------------
#psi4
#
memory 32 gb

molecule  {
0 1
  O        1.0830410    -1.2590340     0.2697030
  O       -3.0460190    -0.6564700     0.3579990
  O       -1.7208190     1.1319200     0.8547670
  N        0.1334480     0.3363350    -1.0591540
  C        2.3767950     0.7348440    -0.1800510
  C        1.1530800    -0.1541890    -0.2667860
  C       -1.1420340    -0.3248900    -0.9988550
  C        3.5200865     0.0945559     0.5894549
  C       -1.9580260     0.1406600     0.1881420
  H        2.7503640     0.9466471    -1.1886634
  H        2.0743670     1.6930220     0.2624750
  H       -0.9793980    -1.4015010    -0.9274340
  H       -1.7176060    -0.1322810    -1.9133280
  H        0.1138710     1.3396710    -1.2046940
  H        3.7876720    -0.8582410     0.1862610
  H        4.3593370     0.7487140     0.6762100
  H        3.1503700    -0.1123850     1.6481590
  H       -3.5474700    -0.2792990     1.1088070
units angstrom
no_reorient  #important for SAPT in psi4, default
symmetry c1  #important for SAPT in psi4, default
}

set PROPERTIES_ORIGIN ["COM"]
properties('MP2/aug-cc-pvtz', properties = ['dipole'])
--------------------------------------------------------------------------

    Molecular point group: c1
  Charge       = 0
  Multiplicity = 1
  Basis Set: AUG-CC-PVTZ
    Blend: AUG-CC-PVTZ
  Basis Set: (AUG-CC-PVTZ AUX)
    Blend: AUG-CC-PVTZ-JKFIT

    Orbital Energies [Eh]
    ---------------------

    Doubly Occupied:

       1A    -20.625602     2A    -20.563065     3A    -20.529180
       4A    -15.593257     5A    -11.399120     6A    -11.356969
       7A    -11.291132     8A    -11.244249     9A    -11.216519
      10A     -1.468650    11A     -1.385141    12A     -1.368725
      13A     -1.242155    14A     -1.063587    15A     -1.006526
      16A     -0.889663    17A     -0.824743    18A     -0.785941
      19A     -0.716269    20A     -0.713269    21A     -0.698779
      22A     -0.653173    23A     -0.644638    24A     -0.637378
      25A     -0.603802    26A     -0.601702    27A     -0.559833
      28A     -0.541382    29A     -0.532573    30A     -0.515886
      31A     -0.493054    32A     -0.484276    33A     -0.469405
      34A     -0.434612    35A     -0.410440

  @DF-RHF Final Energy:  -473.83629647359169

   => Energetics <=

    Nuclear Repulsion Energy =            457.7913998705154199
    One-Electron Energy =               -1556.1260007186929215
    Two-Electron Energy =                 624.4983043745859277
    Total Energy =                       -473.8362964735916876
  Basis Set: (AUG-CC-PVTZ AUX)
    Blend: AUG-CC-PVTZ-RI
    Molecular point group: c1

    Geometry (in Angstrom), charge = 0, multiplicity = 1:

       Center              X                  Y                   Z               Mass
    ------------   -----------------  -----------------  -----------------  -----------------
         O            1.079873152002    -1.259245335022     0.273513339719    15.994914619570
         O           -3.049186847998    -0.656681335022     0.361809339719    15.994914619570
         O           -1.723986847998     1.131708664978     0.858577339719    15.994914619570
         N            0.130280152002     0.336123664978    -1.055343660281    14.003074004430
         C            2.373627152002     0.734632664978    -0.176240660281    12.000000000000
         C            1.149912152002    -0.154400335022    -0.262975660281    12.000000000000
         C           -1.145201847998    -0.325101335022    -0.995044660281    12.000000000000
         C            3.516918652002     0.094344564978     0.593265239719    12.000000000000
         C           -1.961193847998     0.140448664978     0.191952339719    12.000000000000
         H            2.747196152002     0.946435764978    -1.184853060281     1.007825032230
         H            2.071199152002     1.692810664978     0.266285339719     1.007825032230
         H           -0.982565847998    -1.401712335022    -0.923623660281     1.007825032230
         H           -1.720773847998    -0.132492335022    -1.909517660281     1.007825032230
         H            0.110703152002     1.339459664978    -1.200883660281     1.007825032230
         H            3.784504152002    -0.858452335022     0.190071339719     1.007825032230
         H            4.356169152002     0.748502664978     0.680020339719     1.007825032230
         H            3.147202152002    -0.112596335022     1.651969339719     1.007825032230
         H           -3.550637847998    -0.279510335022     1.112617339719     1.007825032230

  Basis Set: AUG-CC-PVTZ
    Blend: AUG-CC-PVTZ
  Basis Set: (AUG-CC-PVTZ AUX)
    Blend: AUG-CC-PVTZ-JKFIT
	 Reference Energy          =    -473.8362964735916876 [Eh]
	 Singles Energy            =      -0.0000000000000000 [Eh]
	 Same-Spin Energy          =      -0.4667945520777892 [Eh]
	 Opposite-Spin Energy      =      -1.4579321507119776 [Eh]
	 Correlation Energy        =      -1.9247267027897668 [Eh]
	 Total Energy              =    -475.7610231763814568 [Eh]

	 ================> DF-SCS-MP2 Energies <==================
	-----------------------------------------------------------
	 SCS Same-Spin Scale       =       0.3333333333333333 [-]
	 SCS Opposite-Spin Scale   =       1.2000000000000000 [-]
	 SCS Same-Spin Energy      =      -0.1555981840259297 [Eh]
	 SCS Opposite-Spin Energy  =      -1.7495185808543730 [Eh]
	 SCS Correlation Energy    =      -1.9051167648803027 [Eh]
	 SCS Total Energy          =    -475.7414132384719778 [Eh]
	-----------------------------------------------------------

  Dipole Moment: [D]
     X:    -0.9472      Y:     1.8746      Z:    -1.7670     Total:     2.7447

*** Psi4 exiting successfully. Buy a developer a beer!
