                               Psi4 1.3.2 release

  ==> Input File <==

--------------------------------------------------------------------------
#psi4
#
memory 32 gb

molecule  {
0 1
  O        1.0830410    -1.2590340     0.2697030
  O       -3.0223523    -0.6969963     0.3044945
  O       -1.6678249     1.1403486     0.8203275
  N        0.1334480     0.3363350    -1.0591540
  C        2.3767950     0.7348440    -0.1800510
  C        1.1530800    -0.1541890    -0.2667860
  C       -1.1420340    -0.3248900    -0.9988550
  C        3.4883670     0.0910310     0.6318210
  C       -1.9580260     0.1406600     0.1881420
  H        2.7160870     0.9611190    -1.1975940
  H        2.0743670     1.6930220     0.2624750
  H       -0.9793980    -1.4015010    -0.9274340
  H       -1.7176060    -0.1322810    -1.9133280
  H        0.1138710     1.3396710    -1.2046940
  H        3.7876720    -0.8582410     0.1862610
  H        4.3593370     0.7487140     0.6762100
  H        3.1503700    -0.1123850     1.6481590
  H       -3.5474700    -0.2792990     1.1088070
units angstrom
no_reorient  #important for SAPT in psi4, default
symmetry c1  #important for SAPT in psi4, default
}

set PROPERTIES_ORIGIN ["COM"]
properties('MP2/aug-cc-pvtz', properties = ['dipole'])
--------------------------------------------------------------------------

    Molecular point group: c1
  Charge       = 0
  Multiplicity = 1
  Basis Set: AUG-CC-PVTZ
    Blend: AUG-CC-PVTZ
  Basis Set: (AUG-CC-PVTZ AUX)
    Blend: AUG-CC-PVTZ-JKFIT

    Orbital Energies [Eh]
    ---------------------

    Doubly Occupied:

       1A    -20.639238     2A    -20.567081     3A    -20.526225
       4A    -15.588757     5A    -11.399915     6A    -11.353500
       7A    -11.284060     8A    -11.242459     9A    -11.215212
      10A     -1.463613    11A     -1.382687    12A     -1.372791
      13A     -1.237797    14A     -1.061112    15A     -1.000888
      16A     -0.886102    17A     -0.813990    18A     -0.781840
      19A     -0.718193    20A     -0.708177    21A     -0.697058
      22A     -0.651798    23A     -0.641977    24A     -0.635507
      25A     -0.604488    26A     -0.598129    27A     -0.556077
      28A     -0.538229    29A     -0.523383    30A     -0.515936
      31A     -0.498427    32A     -0.492375    33A     -0.468384
      34A     -0.431347    35A     -0.406140

  @DF-RHF Final Energy:  -473.82694712356238

   => Energetics <=

    Nuclear Repulsion Energy =            458.6195779756036472
    One-Electron Energy =               -1557.8872659017290516
    Two-Electron Energy =                 625.4407408025629138
    Total Energy =                       -473.8269471235623769
  Basis Set: (AUG-CC-PVTZ AUX)
    Blend: AUG-CC-PVTZ-RI
    Molecular point group: c1

    Geometry (in Angstrom), charge = 0, multiplicity = 1:

       Center              X                  Y                   Z               Mass
    ------------   -----------------  -----------------  -----------------  -----------------
         O            1.073685035081    -1.255116532325     0.280435941699    15.994914619570
         O           -3.031708264919    -0.693078832325     0.315227441699    15.994914619570
         O           -1.677180864919     1.144266067675     0.831060441699    15.994914619570
         N            0.124092035081     0.340252467675    -1.048421058301    14.003074004430
         C            2.367439035081     0.738761467675    -0.169318058301    12.000000000000
         C            1.143724035081    -0.150271532325    -0.256053058301    12.000000000000
         C           -1.151389964919    -0.320972532325    -0.988122058301    12.000000000000
         C            3.479011035081     0.094948467675     0.642553941699    12.000000000000
         C           -1.967381964919     0.144577467675     0.198874941699    12.000000000000
         H            2.706731035081     0.965036467675    -1.186861058301     1.007825032230
         H            2.065011035081     1.696939467675     0.273207941699     1.007825032230
         H           -0.988753964919    -1.397583532325    -0.916701058301     1.007825032230
         H           -1.726961964919    -0.128363532325    -1.902595058301     1.007825032230
         H            0.104515035081     1.343588467675    -1.193961058301     1.007825032230
         H            3.778316035081    -0.854323532325     0.196993941699     1.007825032230
         H            4.349981035081     0.752631467675     0.686942941699     1.007825032230
         H            3.141014035081    -0.108467532325     1.658891941699     1.007825032230
         H           -3.556825964919    -0.275381532325     1.119539941699     1.007825032230

  Basis Set: AUG-CC-PVTZ
    Blend: AUG-CC-PVTZ
  Basis Set: (AUG-CC-PVTZ AUX)
    Blend: AUG-CC-PVTZ-JKFIT
	 Reference Energy          =    -473.8269471235623769 [Eh]
	 Singles Energy            =      -0.0000000000000000 [Eh]
	 Same-Spin Energy          =      -0.4683829960978021 [Eh]
	 Opposite-Spin Energy      =      -1.4612697843351645 [Eh]
	 Correlation Energy        =      -1.9296527804329666 [Eh]
	 Total Energy              =    -475.7565999039953226 [Eh]

	 ================> DF-SCS-MP2 Energies <==================
	-----------------------------------------------------------
	 SCS Same-Spin Scale       =       0.3333333333333333 [-]
	 SCS Opposite-Spin Scale   =       1.2000000000000000 [-]
	 SCS Same-Spin Energy      =      -0.1561276653659340 [Eh]
	 SCS Opposite-Spin Energy  =      -1.7535237412021973 [Eh]
	 SCS Correlation Energy    =      -1.9096514065681314 [Eh]
	 SCS Total Energy          =    -475.7365985301304931 [Eh]
	-----------------------------------------------------------

  Dipole Moment: [D]
     X:    -1.2428      Y:     1.9128      Z:    -1.5435     Total:     2.7543

*** Psi4 exiting successfully. Buy a developer a beer!
