                               Psi4 1.3.2 release

  ==> Input File <==

--------------------------------------------------------------------------
#psi4
#
memory 32 gb

molecule  {
0 1
  O        1.0830410    -1.2590340     0.2697030
  O       -3.0460190    -0.6564700     0.3579990
  O       -1.7208190     1.1319200     0.8547670
  N        0.1334480     0.3363350    -1.0591540
  C        2.3767950     0.7348440    -0.1800510
  C        1.1265075    -0.2206622    -0.2770433
  C       -1.1420340    -0.3248900    -0.9988550
  C        3.4883670     0.0910310     0.6318210
  C       -1.9580260     0.1406600     0.1881420
  H        2.7160870     0.9611190    -1.1975940
  H        2.0743670     1.6930220     0.2624750
  H       -0.9793980    -1.4015010    -0.9274340
  H       -1.7176060    -0.1322810    -1.9133280
  H        0.0705961     1.3330656    -1.2347275
  H        3.7876720    -0.8582410     0.1862610
  H        4.3593370     0.7487140     0.6762100
  H        3.1503700    -0.1123850     1.6481590
  H       -3.5474700    -0.2792990     1.1088070
units angstrom
no_reorient  #important for SAPT in psi4, default
symmetry c1  #important for SAPT in psi4, default
}

set PROPERTIES_ORIGIN ["COM"]
properties('MP2/aug-cc-pvtz', properties = ['dipole'])
--------------------------------------------------------------------------

    Molecular point group: c1
  Charge       = 0
  Multiplicity = 1
  Basis Set: AUG-CC-PVTZ
    Blend: AUG-CC-PVTZ
  Basis Set: (AUG-CC-PVTZ AUX)
    Blend: AUG-CC-PVTZ-JKFIT

    Orbital Energies [Eh]
    ---------------------

    Doubly Occupied:

       1A    -20.625534     2A    -20.563063     3A    -20.537185
       4A    -15.589519     5A    -11.398565     6A    -11.353026
       7A    -11.288886     8A    -11.239317     9A    -11.213061
      10A     -1.468648    11A     -1.421790    12A     -1.369202
      13A     -1.246226    14A     -1.051307    15A     -1.002772
      16A     -0.879975    17A     -0.821303    18A     -0.793992
      19A     -0.716030    20A     -0.712703    21A     -0.699578
      22A     -0.656369    23A     -0.645822    24A     -0.633512
      25A     -0.608808    26A     -0.601991    27A     -0.561512
      28A     -0.553053    29A     -0.525350    30A     -0.515097
      31A     -0.494463    32A     -0.492367    33A     -0.471000
      34A     -0.429293    35A     -0.411240

  @DF-RHF Final Energy:  -473.83639195418476

   => Energetics <=

    Nuclear Repulsion Energy =            458.4602425060804194
    One-Electron Energy =               -1557.4101515815330004
    Two-Electron Energy =                 625.1135171212678188
    Total Energy =                       -473.8363919541847054
  Basis Set: (AUG-CC-PVTZ AUX)
    Blend: AUG-CC-PVTZ-RI
    Molecular point group: c1

    Geometry (in Angstrom), charge = 0, multiplicity = 1:

       Center              X                  Y                   Z               Mass
    ------------   -----------------  -----------------  -----------------  -----------------
         O            1.085806870686    -1.252896637494     0.270873012821    15.994914619570
         O           -3.043253129314    -0.650332637494     0.359169012821    15.994914619570
         O           -1.718053129314     1.138057362506     0.855937012821    15.994914619570
         N            0.136213870686     0.342472362506    -1.057983987179    14.003074004430
         C            2.379560870686     0.740981362506    -0.178880987179    12.000000000000
         C            1.129273370686    -0.214524837494    -0.275873287179    12.000000000000
         C           -1.139268129314    -0.318752637494    -0.997684987179    12.000000000000
         C            3.491132870686     0.097168362506     0.632991012821    12.000000000000
         C           -1.955260129314     0.146797362506     0.189312012821    12.000000000000
         H            2.718852870686     0.967256362506    -1.196423987179     1.007825032230
         H            2.077132870686     1.699159362506     0.263645012821     1.007825032230
         H           -0.976632129314    -1.395363637494    -0.926263987179     1.007825032230
         H           -1.714840129314    -0.126143637494    -1.912157987179     1.007825032230
         H            0.073361970686     1.339202962506    -1.233557487179     1.007825032230
         H            3.790437870686    -0.852103637494     0.187431012821     1.007825032230
         H            4.362102870686     0.754851362506     0.677380012821     1.007825032230
         H            3.153135870686    -0.106247637494     1.649329012821     1.007825032230
         H           -3.544704129314    -0.273161637494     1.109977012821     1.007825032230

  Basis Set: AUG-CC-PVTZ
    Blend: AUG-CC-PVTZ
  Basis Set: (AUG-CC-PVTZ AUX)
    Blend: AUG-CC-PVTZ-JKFIT
	 Reference Energy          =    -473.8363919541847622 [Eh]
	 Singles Energy            =      -0.0000000000000000 [Eh]
	 Same-Spin Energy          =      -0.4655353408742443 [Eh]
	 Opposite-Spin Energy      =      -1.4554155515516640 [Eh]
	 Correlation Energy        =      -1.9209508924259082 [Eh]
	 Total Energy              =    -475.7573428466106975 [Eh]

	 ================> DF-SCS-MP2 Energies <==================
	-----------------------------------------------------------
	 SCS Same-Spin Scale       =       0.3333333333333333 [-]
	 SCS Opposite-Spin Scale   =       1.2000000000000000 [-]
	 SCS Same-Spin Energy      =      -0.1551784469580814 [Eh]
	 SCS Opposite-Spin Energy  =      -1.7464986618619969 [Eh]
	 SCS Correlation Energy    =      -1.9016771088200783 [Eh]
	 SCS Total Energy          =    -475.7380690630048434 [Eh]
	-----------------------------------------------------------

  Dipole Moment: [D]
     X:    -1.1123      Y:     1.5941      Z:    -1.7153     Total:     2.5925

*** Psi4 exiting successfully. Buy a developer a beer!
