                               Psi4 1.3.2 release

  ==> Input File <==

--------------------------------------------------------------------------
#psi4
#
memory 32 gb

molecule  {
0 1
  O        1.0830410    -1.2590340     0.2697030
  O       -3.0460190    -0.6564700     0.3579990
  O       -1.7208190     1.1319200     0.8547670
  N        0.1334480     0.3363350    -1.0591540
  C        2.3767950     0.7348440    -0.1800510
  C        1.1416935    -0.3338084    -0.1795667
  C       -1.1420340    -0.3248900    -0.9988550
  C        3.4883670     0.0910310     0.6318210
  C       -1.9580260     0.1406600     0.1881420
  H        2.7160870     0.9611190    -1.1975940
  H        2.0743670     1.6930220     0.2624750
  H       -0.9793980    -1.4015010    -0.9274340
  H       -1.7176060    -0.1322810    -1.9133280
  H        0.1138710     1.3396710    -1.2046940
  H        3.7876720    -0.8582410     0.1862610
  H        4.3593370     0.7487140     0.6762100
  H        3.1503700    -0.1123850     1.6481590
  H       -3.5474700    -0.2792990     1.1088070
units angstrom
no_reorient  #important for SAPT in psi4, default
symmetry c1  #important for SAPT in psi4, default
}

set PROPERTIES_ORIGIN ["COM"]
properties('MP2/aug-cc-pvtz', properties = ['dipole'])
--------------------------------------------------------------------------

    Molecular point group: c1
  Charge       = 0
  Multiplicity = 1
  Basis Set: AUG-CC-PVTZ
    Blend: AUG-CC-PVTZ
  Basis Set: (AUG-CC-PVTZ AUX)
    Blend: AUG-CC-PVTZ-JKFIT

    Orbital Energies [Eh]
    ---------------------

    Doubly Occupied:

       1A    -20.621056     2A    -20.567959     3A    -20.557815
       4A    -15.562083     5A    -11.391076     6A    -11.346567
       7A    -11.277840     8A    -11.234523     9A    -11.213337
      10A     -1.547803    11A     -1.463670    12A     -1.364130
      13A     -1.211627    14A     -1.043025    15A     -0.984557
      16A     -0.866253    17A     -0.810410    18A     -0.778523
      19A     -0.739353    20A     -0.710755    21A     -0.700618
      22A     -0.681098    23A     -0.663403    24A     -0.644693
      25A     -0.611953    26A     -0.598314    27A     -0.590581
      28A     -0.554594    29A     -0.543966    30A     -0.514344
      31A     -0.496841    32A     -0.488634    33A     -0.466456
      34A     -0.414156    35A     -0.388067

  @DF-RHF Final Energy:  -473.76240485358500

   => Energetics <=

    Nuclear Repulsion Energy =            459.5639373077857499
    One-Electron Energy =               -1559.3525256351097141
    Two-Electron Energy =                 626.0261834737389108
    Total Energy =                       -473.7624048535849397
  Basis Set: (AUG-CC-PVTZ AUX)
    Blend: AUG-CC-PVTZ-RI
    Molecular point group: c1

    Geometry (in Angstrom), charge = 0, multiplicity = 1:

       Center              X                  Y                   Z               Mass
    ------------   -----------------  -----------------  -----------------  -----------------
         O            1.084083625188    -1.242587501037     0.261716872129    15.994914619570
         O           -3.044976374812    -0.640023501037     0.350012872129    15.994914619570
         O           -1.719776374812     1.148366498963     0.846780872129    15.994914619570
         N            0.134490625188     0.352781498963    -1.067140127871    14.003074004430
         C            2.377837625188     0.751290498963    -0.188037127871    12.000000000000
         C            1.142736125188    -0.317361901037    -0.187552827871    12.000000000000
         C           -1.140991374812    -0.308443501037    -1.006841127871    12.000000000000
         C            3.489409625188     0.107477498963     0.623834872129    12.000000000000
         C           -1.956983374812     0.157106498963     0.180155872129    12.000000000000
         H            2.717129625188     0.977565498963    -1.205580127871     1.007825032230
         H            2.075409625188     1.709468498963     0.254488872129     1.007825032230
         H           -0.978355374812    -1.385054501037    -0.935420127871     1.007825032230
         H           -1.716563374812    -0.115834501037    -1.921314127871     1.007825032230
         H            0.114913625188     1.356117498963    -1.212680127871     1.007825032230
         H            3.788714625188    -0.841794501037     0.178274872129     1.007825032230
         H            4.360379625188     0.765160498963     0.668223872129     1.007825032230
         H            3.151412625188    -0.095938501037     1.640172872129     1.007825032230
         H           -3.546427374812    -0.262852501037     1.100820872129     1.007825032230

  Basis Set: AUG-CC-PVTZ
    Blend: AUG-CC-PVTZ
  Basis Set: (AUG-CC-PVTZ AUX)
    Blend: AUG-CC-PVTZ-JKFIT
	 Reference Energy          =    -473.7624048535849965 [Eh]
	 Singles Energy            =      -0.0000000000000000 [Eh]
	 Same-Spin Energy          =      -0.4631246005583953 [Eh]
	 Opposite-Spin Energy      =      -1.4508561331026373 [Eh]
	 Correlation Energy        =      -1.9139807336610326 [Eh]
	 Total Energy              =    -475.6763855872460454 [Eh]

	 ================> DF-SCS-MP2 Energies <==================
	-----------------------------------------------------------
	 SCS Same-Spin Scale       =       0.3333333333333333 [-]
	 SCS Opposite-Spin Scale   =       1.2000000000000000 [-]
	 SCS Same-Spin Energy      =      -0.1543748668527984 [Eh]
	 SCS Opposite-Spin Energy  =      -1.7410273597231647 [Eh]
	 SCS Correlation Energy    =      -1.8954022265759631 [Eh]
	 SCS Total Energy          =    -475.6578070801609783 [Eh]
	-----------------------------------------------------------

  Dipole Moment: [D]
     X:    -0.5409      Y:     0.7164      Z:    -1.0056     Total:     1.3480

*** Psi4 exiting successfully. Buy a developer a beer!
