                               Psi4 1.3.2 release

  ==> Input File <==

--------------------------------------------------------------------------
#psi4
#
memory 32 gb

molecule  {
0 1
  O        1.0830410    -1.2590340     0.2697030
  O       -3.0460190    -0.6564700     0.3579990
  O       -1.7208190     1.1319200     0.8547670
  N        0.1334480     0.3363350    -1.0591540
  C        2.3767950     0.7348440    -0.1800510
  C        1.1530800    -0.1541890    -0.2667860
  C       -1.1420340    -0.3248900    -0.9988550
  C        3.4802240     0.0902722     0.6422600
  C       -1.9580260     0.1406600     0.1881420
  H        2.7074515     0.9646946    -1.1996333
  H        2.0743670     1.6930220     0.2624750
  H       -0.9793980    -1.4015010    -0.9274340
  H       -1.7176060    -0.1322810    -1.9133280
  H        0.1138710     1.3396710    -1.2046940
  H        3.7876720    -0.8582410     0.1862610
  H        4.3593370     0.7487140     0.6762100
  H        3.1503700    -0.1123850     1.6481590
  H       -3.5474700    -0.2792990     1.1088070
units angstrom
no_reorient  #important for SAPT in psi4, default
symmetry c1  #important for SAPT in psi4, default
}

set PROPERTIES_ORIGIN ["COM"]
properties('MP2/aug-cc-pvtz', properties = ['dipole'])
--------------------------------------------------------------------------

    Molecular point group: c1
  Charge       = 0
  Multiplicity = 1
  Basis Set: AUG-CC-PVTZ
    Blend: AUG-CC-PVTZ
  Basis Set: (AUG-CC-PVTZ AUX)
    Blend: AUG-CC-PVTZ-JKFIT

    Orbital Energies [Eh]
    ---------------------

    Doubly Occupied:

       1A    -20.625499     2A    -20.562933     3A    -20.528698
       4A    -15.592758     5A    -11.398972     6A    -11.355907
       7A    -11.290888     8A    -11.244304     9A    -11.216651
      10A     -1.468535    11A     -1.384844    12A     -1.368597
      13A     -1.241836    14A     -1.063544    15A     -1.006078
      16A     -0.889809    17A     -0.824718    18A     -0.785659
      19A     -0.716116    20A     -0.713013    21A     -0.698243
      22A     -0.653106    23A     -0.644276    24A     -0.637056
      25A     -0.604437    26A     -0.599168    27A     -0.559618
      28A     -0.540829    29A     -0.524006    30A     -0.518440
      31A     -0.495786    32A     -0.491817    33A     -0.469276
      34A     -0.433919    35A     -0.410133

  @DF-RHF Final Energy:  -473.83951813750014

   => Energetics <=

    Nuclear Repulsion Energy =            458.0924845826521619
    One-Electron Energy =               -1556.7450686841759762
    Two-Electron Energy =                 624.8130659640237354
    Total Energy =                       -473.8395181375001357
  Basis Set: (AUG-CC-PVTZ AUX)
    Blend: AUG-CC-PVTZ-RI
    Molecular point group: c1

    Geometry (in Angstrom), charge = 0, multiplicity = 1:

       Center              X                  Y                   Z               Mass
    ------------   -----------------  -----------------  -----------------  -----------------
         O            1.083853048872    -1.258991892912     0.268762738420    15.994914619570
         O           -3.045206951128    -0.656427892912     0.357058738420    15.994914619570
         O           -1.720006951128     1.131962107088     0.853826738420    15.994914619570
         N            0.134260048872     0.336377107088    -1.060094261580    14.003074004430
         C            2.377607048872     0.734886107088    -0.180991261580    12.000000000000
         C            1.153892048872    -0.154146892912    -0.267726261580    12.000000000000
         C           -1.141221951128    -0.324847892912    -0.999795261580    12.000000000000
         C            3.481036048872     0.090314307088     0.641319738420    12.000000000000
         C           -1.957213951128     0.140702107088     0.187201738420    12.000000000000
         H            2.708263548872     0.964736707088    -1.200573561580     1.007825032230
         H            2.075179048872     1.693064107088     0.261534738420     1.007825032230
         H           -0.978585951128    -1.401458892912    -0.928374261580     1.007825032230
         H           -1.716793951128    -0.132238892912    -1.914268261580     1.007825032230
         H            0.114683048872     1.339713107088    -1.205634261580     1.007825032230
         H            3.788484048872    -0.858198892912     0.185320738420     1.007825032230
         H            4.360149048872     0.748756107088     0.675269738420     1.007825032230
         H            3.151182048872    -0.112342892912     1.647218738420     1.007825032230
         H           -3.546657951128    -0.279256892912     1.107866738420     1.007825032230

  Basis Set: AUG-CC-PVTZ
    Blend: AUG-CC-PVTZ
  Basis Set: (AUG-CC-PVTZ AUX)
    Blend: AUG-CC-PVTZ-JKFIT
	 Reference Energy          =    -473.8395181375001357 [Eh]
	 Singles Energy            =      -0.0000000000000000 [Eh]
	 Same-Spin Energy          =      -0.4667448675745026 [Eh]
	 Opposite-Spin Energy      =      -1.4577274579283275 [Eh]
	 Correlation Energy        =      -1.9244723255028302 [Eh]
	 Total Energy              =    -475.7639904630029832 [Eh]

	 ================> DF-SCS-MP2 Energies <==================
	-----------------------------------------------------------
	 SCS Same-Spin Scale       =       0.3333333333333333 [-]
	 SCS Opposite-Spin Scale   =       1.2000000000000000 [-]
	 SCS Same-Spin Energy      =      -0.1555816225248342 [Eh]
	 SCS Opposite-Spin Energy  =      -1.7492729495139929 [Eh]
	 SCS Correlation Energy    =      -1.9048545720388272 [Eh]
	 SCS Total Energy          =    -475.7443727095389363 [Eh]
	-----------------------------------------------------------

  Dipole Moment: [D]
     X:    -0.9519      Y:     1.8773      Z:    -1.7427     Total:     2.7327

*** Psi4 exiting successfully. Buy a developer a beer!
