                               Psi4 1.3.2 release

  ==> Input File <==

--------------------------------------------------------------------------
#psi4
#
memory 32 gb

molecule  {
0 1
  O        1.0830410    -1.2590340     0.2697030
  O       -3.0460190    -0.6564700     0.3579990
  O       -1.7208190     1.1319200     0.8547670
  N        0.1334480     0.3363350    -1.0591540
  C        2.3767950     0.7348440    -0.1800510
  C        1.1530800    -0.1541890    -0.2667860
  C       -1.1420340    -0.3248900    -0.9988550
  C        3.4883670     0.0910310     0.6318210
  C       -1.9580260     0.1406600     0.1881420
  H        2.7160870     0.9611190    -1.1975940
  H        2.0743670     1.6930220     0.2624750
  H       -0.9793980    -1.4015010    -0.9274340
  H       -1.7176060    -0.1322810    -1.9133280
  H        0.1138710     1.3396710    -1.2046940
  H        3.7876720    -0.8582410     0.1862610
  H        4.3593370     0.7487140     0.6762100
  H        3.1503700    -0.1123850     1.6481590
  H       -3.4962221    -0.3178456     1.0320750
units angstrom
no_reorient  #important for SAPT in psi4, default
symmetry c1  #important for SAPT in psi4, default
}

set PROPERTIES_ORIGIN ["COM"]
properties('MP2/aug-cc-pvtz', properties = ['dipole'])
--------------------------------------------------------------------------

    Molecular point group: c1
  Charge       = 0
  Multiplicity = 1
  Basis Set: AUG-CC-PVTZ
    Blend: AUG-CC-PVTZ
  Basis Set: (AUG-CC-PVTZ AUX)
    Blend: AUG-CC-PVTZ-JKFIT

    Orbital Energies [Eh]
    ---------------------

    Doubly Occupied:

       1A    -20.618183     2A    -20.565031     3A    -20.529264
       4A    -15.593378     5A    -11.401030     6A    -11.356582
       7A    -11.291535     8A    -11.244591     9A    -11.216764
      10A     -1.486537    11A     -1.386591    12A     -1.377624
      13A     -1.242527    14A     -1.064361    15A     -1.010879
      16A     -0.894951    17A     -0.838981    18A     -0.786690
      19A     -0.725180    20A     -0.715450    21A     -0.699740
      22A     -0.655165    23A     -0.647353    24A     -0.638215
      25A     -0.609711    26A     -0.601000    27A     -0.561322
      28A     -0.541619    29A     -0.525736    30A     -0.517750
      31A     -0.497048    32A     -0.493530    33A     -0.471108
      34A     -0.434571    35A     -0.410908

  @DF-RHF Final Energy:  -473.83483463909641

   => Energetics <=

    Nuclear Repulsion Energy =            458.6945074308714538
    One-Electron Energy =               -1557.7568795077188497
    Two-Electron Energy =                 625.2275374377510389
    Total Energy =                       -473.8348346390963570
  Basis Set: (AUG-CC-PVTZ AUX)
    Blend: AUG-CC-PVTZ-RI
    Molecular point group: c1

    Geometry (in Angstrom), charge = 0, multiplicity = 1:

       Center              X                  Y                   Z               Mass
    ------------   -----------------  -----------------  -----------------  -----------------
         O            1.082646959230    -1.258737454833     0.270292937269    15.994914619570
         O           -3.046413040770    -0.656173454833     0.358588937269    15.994914619570
         O           -1.721213040770     1.132216545167     0.855356937269    15.994914619570
         N            0.133053959230     0.336631545167    -1.058564062731    14.003074004430
         C            2.376400959230     0.735140545167    -0.179461062731    12.000000000000
         C            1.152685959230    -0.153892454833    -0.266196062731    12.000000000000
         C           -1.142428040770    -0.324593454833    -0.998265062731    12.000000000000
         C            3.487972959230     0.091327545167     0.632410937269    12.000000000000
         C           -1.958420040770     0.140956545167     0.188731937269    12.000000000000
         H            2.715692959230     0.961415545167    -1.197004062731     1.007825032230
         H            2.073972959230     1.693318545167     0.263064937269     1.007825032230
         H           -0.979792040770    -1.401204454833    -0.926844062731     1.007825032230
         H           -1.718000040770    -0.131984454833    -1.912738062731     1.007825032230
         H            0.113476959230     1.339967545167    -1.204104062731     1.007825032230
         H            3.787277959230    -0.857944454833     0.186850937269     1.007825032230
         H            4.358942959230     0.749010545167     0.676799937269     1.007825032230
         H            3.149975959230    -0.112088454833     1.648748937269     1.007825032230
         H           -3.496616140770    -0.317549054833     1.032664937269     1.007825032230

  Basis Set: AUG-CC-PVTZ
    Blend: AUG-CC-PVTZ
  Basis Set: (AUG-CC-PVTZ AUX)
    Blend: AUG-CC-PVTZ-JKFIT
	 Reference Energy          =    -473.8348346390964139 [Eh]
	 Singles Energy            =      -0.0000000000000000 [Eh]
	 Same-Spin Energy          =      -0.4654803943729321 [Eh]
	 Opposite-Spin Energy      =      -1.4549260911956421 [Eh]
	 Correlation Energy        =      -1.9204064855685743 [Eh]
	 Total Energy              =    -475.7552411246649626 [Eh]

	 ================> DF-SCS-MP2 Energies <==================
	-----------------------------------------------------------
	 SCS Same-Spin Scale       =       0.3333333333333333 [-]
	 SCS Opposite-Spin Scale   =       1.2000000000000000 [-]
	 SCS Same-Spin Energy      =      -0.1551601314576440 [Eh]
	 SCS Opposite-Spin Energy  =      -1.7459113094347705 [Eh]
	 SCS Correlation Energy    =      -1.9010714408924145 [Eh]
	 SCS Total Energy          =    -475.7359060799888084 [Eh]
	-----------------------------------------------------------

  Dipole Moment: [D]
     X:    -0.8560      Y:     1.8605      Z:    -1.8356     Total:     2.7502

*** Psi4 exiting successfully. Buy a developer a beer!
