                               Psi4 1.3.2 release

  ==> Input File <==

--------------------------------------------------------------------------
#psi4
#
memory 32 gb

molecule  {
0 1
  O        1.0830410    -1.2590340     0.2697030
  O       -3.0460190    -0.6564700     0.3579990
  O       -1.7718358     1.1180958     0.8904275
  N        0.1334480     0.3363350    -1.0591540
  C        2.3767950     0.7348440    -0.1800510
  C        1.1530800    -0.1541890    -0.2667860
  C       -1.1919815    -0.3859323    -1.0066040
  C        3.4883670     0.0910310     0.6318210
  C       -1.9580260     0.1406600     0.1881420
  H        2.7160870     0.9611190    -1.1975940
  H        2.0743670     1.6930220     0.2624750
  H       -0.9793980    -1.4015010    -0.9274340
  H       -1.7176060    -0.1322810    -1.9133280
  H        0.1138710     1.3396710    -1.2046940
  H        3.7876720    -0.8582410     0.1862610
  H        4.3593370     0.7487140     0.6762100
  H        3.1503700    -0.1123850     1.6481590
  H       -3.5474700    -0.2792990     1.1088070
units angstrom
no_reorient  #important for SAPT in psi4, default
symmetry c1  #important for SAPT in psi4, default
}

set PROPERTIES_ORIGIN ["COM"]
properties('MP2/aug-cc-pvtz', properties = ['dipole'])
--------------------------------------------------------------------------

    Molecular point group: c1
  Charge       = 0
  Multiplicity = 1
  Basis Set: AUG-CC-PVTZ
    Blend: AUG-CC-PVTZ
  Basis Set: (AUG-CC-PVTZ AUX)
    Blend: AUG-CC-PVTZ-JKFIT

    Orbital Energies [Eh]
    ---------------------

    Doubly Occupied:

       1A    -20.620539     2A    -20.565892     3A    -20.526954
       4A    -15.592612     5A    -11.402263     6A    -11.354438
       7A    -11.296220     8A    -11.243286     9A    -11.215836
      10A     -1.470362    11A     -1.381918    12A     -1.365900
      13A     -1.228080    14A     -1.062980    15A     -1.013252
      16A     -0.886706    17A     -0.825679    18A     -0.782928
      19A     -0.715286    20A     -0.709954    21A     -0.698754
      22A     -0.652643    23A     -0.639611    24A     -0.635306
      25A     -0.603934    26A     -0.595203    27A     -0.578608
      28A     -0.540707    29A     -0.522644    30A     -0.516605
      31A     -0.494991    32A     -0.491410    33A     -0.472109
      34A     -0.431501    35A     -0.410045

  @DF-RHF Final Energy:  -473.83247393631962

   => Energetics <=

    Nuclear Repulsion Energy =            456.5752485072121090
    One-Electron Energy =               -1553.7251334666041203
    Two-Electron Energy =                 623.3174110230723954
    Total Energy =                       -473.8324739363196159
  Basis Set: (AUG-CC-PVTZ AUX)
    Blend: AUG-CC-PVTZ-RI
    Molecular point group: c1

    Geometry (in Angstrom), charge = 0, multiplicity = 1:

       Center              X                  Y                   Z               Mass
    ------------   -----------------  -----------------  -----------------  -----------------
         O            1.093840671593    -1.251757533172     0.266060230727    15.994914619570
         O           -3.035219328407    -0.649193533172     0.354356230727    15.994914619570
         O           -1.761036128407     1.125372266828     0.886784730727    15.994914619570
         N            0.144247671593     0.343611466828    -1.062796769273    14.003074004430
         C            2.387594671593     0.742120466828    -0.183693769273    12.000000000000
         C            1.163879671593    -0.146912533172    -0.270428769273    12.000000000000
         C           -1.181181828407    -0.378655833172    -1.010246769273    12.000000000000
         C            3.499166671593     0.098307466828     0.628178230727    12.000000000000
         C           -1.947226328407     0.147936466828     0.184499230727    12.000000000000
         H            2.726886671593     0.968395466828    -1.201236769273     1.007825032230
         H            2.085166671593     1.700298466828     0.258832230727     1.007825032230
         H           -0.968598328407    -1.394224533172    -0.931076769273     1.007825032230
         H           -1.706806328407    -0.125004533172    -1.916970769273     1.007825032230
         H            0.124670671593     1.346947466828    -1.208336769273     1.007825032230
         H            3.798471671593    -0.850964533172     0.182618230727     1.007825032230
         H            4.370136671593     0.755990466828     0.672567230727     1.007825032230
         H            3.161169671593    -0.105108533172     1.644516230727     1.007825032230
         H           -3.536670328407    -0.272022533172     1.105164230727     1.007825032230

  Basis Set: AUG-CC-PVTZ
    Blend: AUG-CC-PVTZ
  Basis Set: (AUG-CC-PVTZ AUX)
    Blend: AUG-CC-PVTZ-JKFIT
	 Reference Energy          =    -473.8324739363196159 [Eh]
	 Singles Energy            =      -0.0000000000000000 [Eh]
	 Same-Spin Energy          =      -0.4664615149047998 [Eh]
	 Opposite-Spin Energy      =      -1.4581612150057706 [Eh]
	 Correlation Energy        =      -1.9246227299105705 [Eh]
	 Total Energy              =    -475.7570966662302112 [Eh]

	 ================> DF-SCS-MP2 Energies <==================
	-----------------------------------------------------------
	 SCS Same-Spin Scale       =       0.3333333333333333 [-]
	 SCS Opposite-Spin Scale   =       1.2000000000000000 [-]
	 SCS Same-Spin Energy      =      -0.1554871716349333 [Eh]
	 SCS Opposite-Spin Energy  =      -1.7497934580069245 [Eh]
	 SCS Correlation Energy    =      -1.9052806296418578 [Eh]
	 SCS Total Energy          =    -475.7377545659614952 [Eh]
	-----------------------------------------------------------

  Dipole Moment: [D]
     X:    -0.9960      Y:     1.8741      Z:    -1.8543     Total:     2.8182

*** Psi4 exiting successfully. Buy a developer a beer!
