                               Psi4 1.3.2 release

  ==> Input File <==

--------------------------------------------------------------------------
#psi4
#
memory 32 gb

molecule  {
0 1
  O        1.0830410    -1.2590340     0.2697030
  O       -3.0460190    -0.6564700     0.3579990
  O       -1.7208190     1.1319200     0.8547670
  N        0.1334480     0.3363350    -1.0591540
  C        2.3767950     0.7348440    -0.1800510
  C        1.1530800    -0.1541890    -0.2667860
  C       -1.1420340    -0.3248900    -0.9988550
  C        3.4964254     0.0918388     0.6213202
  C       -1.9580260     0.1406600     0.1881420
  H        2.7246966     0.9575262    -1.1954772
  H        2.0743670     1.6930220     0.2624750
  H       -0.9793980    -1.4015010    -0.9274340
  H       -1.7176060    -0.1322810    -1.9133280
  H        0.1138710     1.3396710    -1.2046940
  H        3.7876720    -0.8582410     0.1862610
  H        4.3593370     0.7487140     0.6762100
  H        3.1503700    -0.1123850     1.6481590
  H       -3.5474700    -0.2792990     1.1088070
units angstrom
no_reorient  #important for SAPT in psi4, default
symmetry c1  #important for SAPT in psi4, default
}

set PROPERTIES_ORIGIN ["COM"]
properties('MP2/aug-cc-pvtz', properties = ['dipole'])
--------------------------------------------------------------------------

    Molecular point group: c1
  Charge       = 0
  Multiplicity = 1
  Basis Set: AUG-CC-PVTZ
    Blend: AUG-CC-PVTZ
  Basis Set: (AUG-CC-PVTZ AUX)
    Blend: AUG-CC-PVTZ-JKFIT

    Orbital Energies [Eh]
    ---------------------

    Doubly Occupied:

       1A    -20.625534     2A    -20.562979     3A    -20.528872
       4A    -15.592943     5A    -11.399024     6A    -11.356312
       7A    -11.290976     8A    -11.244196     9A    -11.216391
      10A     -1.468575    11A     -1.384944    12A     -1.368641
      13A     -1.241947    14A     -1.063474    15A     -1.006216
      16A     -0.889616    17A     -0.824676    18A     -0.785742
      19A     -0.716167    20A     -0.713076    21A     -0.698417
      22A     -0.653128    23A     -0.644357    24A     -0.637022
      25A     -0.604146    26A     -0.600110    27A     -0.559622
      28A     -0.540402    29A     -0.527181    30A     -0.516326
      31A     -0.494652    32A     -0.491356    33A     -0.469332
      34A     -0.434186    35A     -0.410259

  @DF-RHF Final Energy:  -473.83949333153123

   => Energetics <=

    Nuclear Repulsion Energy =            457.9690592272073104
    One-Electron Energy =               -1556.4955096492656139
    Two-Electron Energy =                 624.6869570905271303
    Total Energy =                       -473.8394933315312301
  Basis Set: (AUG-CC-PVTZ AUX)
    Blend: AUG-CC-PVTZ-RI
    Molecular point group: c1

    Geometry (in Angstrom), charge = 0, multiplicity = 1:

       Center              X                  Y                   Z               Mass
    ------------   -----------------  -----------------  -----------------  -----------------
         O            1.082236997577    -1.259080210188     0.270648075599    15.994914619570
         O           -3.046823002423    -0.656516210188     0.358944075599    15.994914619570
         O           -1.721623002423     1.131873789812     0.855712075599    15.994914619570
         N            0.132643997577     0.336288789812    -1.058208924401    14.003074004430
         C            2.375990997577     0.734797789812    -0.179105924401    12.000000000000
         C            1.152275997577    -0.154235210188    -0.265840924401    12.000000000000
         C           -1.142838002423    -0.324936210188    -0.997909924401    12.000000000000
         C            3.495621397577     0.091792589812     0.622265275599    12.000000000000
         C           -1.958830002423     0.140613789812     0.189087075599    12.000000000000
         H            2.723892597577     0.957479989812    -1.194532124401     1.007825032230
         H            2.073562997577     1.692975789812     0.263420075599     1.007825032230
         H           -0.980202002423    -1.401547210188    -0.926488924401     1.007825032230
         H           -1.718410002423    -0.132327210188    -1.912382924401     1.007825032230
         H            0.113066997577     1.339624789812    -1.203748924401     1.007825032230
         H            3.786867997577    -0.858287210188     0.187206075599     1.007825032230
         H            4.358532997577     0.748667789812     0.677155075599     1.007825032230
         H            3.149565997577    -0.112431210188     1.649104075599     1.007825032230
         H           -3.548274002423    -0.279345210188     1.109752075599     1.007825032230

  Basis Set: AUG-CC-PVTZ
    Blend: AUG-CC-PVTZ
  Basis Set: (AUG-CC-PVTZ AUX)
    Blend: AUG-CC-PVTZ-JKFIT
	 Reference Energy          =    -473.8394933315312301 [Eh]
	 Singles Energy            =      -0.0000000000000000 [Eh]
	 Same-Spin Energy          =      -0.4667396286286586 [Eh]
	 Opposite-Spin Energy      =      -1.4577474461698325 [Eh]
	 Correlation Energy        =      -1.9244870747984910 [Eh]
	 Total Energy              =    -475.7639804063297220 [Eh]

	 ================> DF-SCS-MP2 Energies <==================
	-----------------------------------------------------------
	 SCS Same-Spin Scale       =       0.3333333333333333 [-]
	 SCS Opposite-Spin Scale   =       1.2000000000000000 [-]
	 SCS Same-Spin Energy      =      -0.1555798762095529 [Eh]
	 SCS Opposite-Spin Energy  =      -1.7492969354037990 [Eh]
	 SCS Correlation Energy    =      -1.9048768116133519 [Eh]
	 SCS Total Energy          =    -475.7443701431445788 [Eh]
	-----------------------------------------------------------

  Dipole Moment: [D]
     X:    -0.9489      Y:     1.8759      Z:    -1.7508     Total:     2.7358

*** Psi4 exiting successfully. Buy a developer a beer!
