                               Psi4 1.3.2 release

  ==> Input File <==

--------------------------------------------------------------------------
#psi4
#
memory 32 gb

molecule  {
0 1
  O        1.0442767    -1.2643342     0.2520086
  O       -3.0460190    -0.6564700     0.3579990
  O       -1.7208190     1.1319200     0.8547670
  N        0.1087707     0.2957071    -1.0510830
  C        2.3767950     0.7348440    -0.1800510
  C        1.1530800    -0.1541890    -0.2667860
  C       -1.1420340    -0.3248900    -0.9988550
  C        3.4883670     0.0910310     0.6318210
  C       -1.9580260     0.1406600     0.1881420
  H        2.7160870     0.9611190    -1.1975940
  H        2.0743670     1.6930220     0.2624750
  H       -0.9793980    -1.4015010    -0.9274340
  H       -1.7176060    -0.1322810    -1.9133280
  H        0.1138710     1.3396710    -1.2046940
  H        3.7876720    -0.8582410     0.1862610
  H        4.3593370     0.7487140     0.6762100
  H        3.1503700    -0.1123850     1.6481590
  H       -3.5474700    -0.2792990     1.1088070
units angstrom
no_reorient  #important for SAPT in psi4, default
symmetry c1  #important for SAPT in psi4, default
}

set PROPERTIES_ORIGIN ["COM"]
properties('MP2/aug-cc-pvtz', properties = ['dipole'])
--------------------------------------------------------------------------

    Molecular point group: c1
  Charge       = 0
  Multiplicity = 1
  Basis Set: AUG-CC-PVTZ
    Blend: AUG-CC-PVTZ
  Basis Set: (AUG-CC-PVTZ AUX)
    Blend: AUG-CC-PVTZ-JKFIT

    Orbital Energies [Eh]
    ---------------------

    Doubly Occupied:

       1A    -20.623598     2A    -20.561360     3A    -20.526618
       4A    -15.591685     5A    -11.396266     6A    -11.356186
       7A    -11.285858     8A    -11.248975     9A    -11.219512
      10A     -1.466765    11A     -1.386681    12A     -1.366961
      13A     -1.242648    14A     -1.067027    15A     -1.004172
      16A     -0.891707    17A     -0.826772    18A     -0.774393
      19A     -0.715696    20A     -0.714462    21A     -0.699701
      22A     -0.657322    23A     -0.642413    24A     -0.638509
      25A     -0.604156    26A     -0.599673    27A     -0.550459
      28A     -0.540735    29A     -0.529811    30A     -0.519991
      31A     -0.497356    32A     -0.490771    33A     -0.468365
      34A     -0.434633    35A     -0.405128

  @DF-RHF Final Energy:  -473.83503175649201

   => Energetics <=

    Nuclear Repulsion Energy =            458.8386985824411113
    One-Electron Energy =               -1558.2547281398544783
    Two-Electron Energy =                 625.5809978009212955
    Total Energy =                       -473.8350317564920715
  Basis Set: (AUG-CC-PVTZ AUX)
    Blend: AUG-CC-PVTZ-RI
    Molecular point group: c1

    Geometry (in Angstrom), charge = 0, multiplicity = 1:

       Center              X                  Y                   Z               Mass
    ------------   -----------------  -----------------  -----------------  -----------------
         O            1.051644388816    -1.259346278743     0.253305621191    15.994914619570
         O           -3.038651311184    -0.651482078743     0.359296021191    15.994914619570
         O           -1.713451311184     1.136907921257     0.856064021191    15.994914619570
         N            0.116138388816     0.300695021257    -1.049785978809    14.003074004430
         C            2.384162688816     0.739831921257    -0.178753978809    12.000000000000
         C            1.160447688816    -0.149201078743    -0.265488978809    12.000000000000
         C           -1.134666311184    -0.319902078743    -0.997557978809    12.000000000000
         C            3.495734688816     0.096018921257     0.633118021191    12.000000000000
         C           -1.950658311184     0.145647921257     0.189439021191    12.000000000000
         H            2.723454688816     0.966106921257    -1.196296978809     1.007825032230
         H            2.081734688816     1.698009921257     0.263772021191     1.007825032230
         H           -0.972030311184    -1.396513078743    -0.926136978809     1.007825032230
         H           -1.710238311184    -0.127293078743    -1.912030978809     1.007825032230
         H            0.121238688816     1.344658921257    -1.203396978809     1.007825032230
         H            3.795039688816    -0.853253078743     0.187558021191     1.007825032230
         H            4.366704688816     0.753701921257     0.677507021191     1.007825032230
         H            3.157737688816    -0.107397078743     1.649456021191     1.007825032230
         H           -3.540102311184    -0.274311078743     1.110104021191     1.007825032230

  Basis Set: AUG-CC-PVTZ
    Blend: AUG-CC-PVTZ
  Basis Set: (AUG-CC-PVTZ AUX)
    Blend: AUG-CC-PVTZ-JKFIT
	 Reference Energy          =    -473.8350317564920147 [Eh]
	 Singles Energy            =      -0.0000000000000000 [Eh]
	 Same-Spin Energy          =      -0.4672477129095744 [Eh]
	 Opposite-Spin Energy      =      -1.4582724811401540 [Eh]
	 Correlation Energy        =      -1.9255201940497284 [Eh]
	 Total Energy              =    -475.7605519505417533 [Eh]

	 ================> DF-SCS-MP2 Energies <==================
	-----------------------------------------------------------
	 SCS Same-Spin Scale       =       0.3333333333333333 [-]
	 SCS Opposite-Spin Scale   =       1.2000000000000000 [-]
	 SCS Same-Spin Energy      =      -0.1557492376365248 [Eh]
	 SCS Opposite-Spin Energy  =      -1.7499269773681847 [Eh]
	 SCS Correlation Energy    =      -1.9056762150047095 [Eh]
	 SCS Total Energy          =    -475.7407079714967040 [Eh]
	-----------------------------------------------------------

  Dipole Moment: [D]
     X:    -0.6995      Y:     1.9507      Z:    -1.7150     Total:     2.6899

*** Psi4 exiting successfully. Buy a developer a beer!
