                               Psi4 1.3.2 release

  ==> Input File <==

--------------------------------------------------------------------------
#psi4
#
memory 32 gb

molecule  {
0 1
  O        1.0830410    -1.2590340     0.2697030
  O       -3.0460190    -0.6564700     0.3579990
  O       -1.7208190     1.1319200     0.8547670
  N        0.1334480     0.3363350    -1.0591540
  C        2.3767950     0.7348440    -0.1800510
  C        1.1530800    -0.1541890    -0.2667860
  C       -1.1420340    -0.3248900    -0.9988550
  C        3.4883670     0.0910310     0.6318210
  C       -1.7979576     0.2579358     0.1631522
  H        2.7160870     0.9611190    -1.1975940
  H        2.0743670     1.6930220     0.2624750
  H       -0.9793980    -1.4015010    -0.9274340
  H       -1.7176060    -0.1322810    -1.9133280
  H        0.1138710     1.3396710    -1.2046940
  H        3.7876720    -0.8582410     0.1862610
  H        4.3593370     0.7487140     0.6762100
  H        3.1503700    -0.1123850     1.6481590
  H       -3.5474700    -0.2792990     1.1088070
units angstrom
no_reorient  #important for SAPT in psi4, default
symmetry c1  #important for SAPT in psi4, default
}

set PROPERTIES_ORIGIN ["COM"]
properties('MP2/aug-cc-pvtz', properties = ['dipole'])
--------------------------------------------------------------------------

    Molecular point group: c1
  Charge       = 0
  Multiplicity = 1
  Basis Set: AUG-CC-PVTZ
    Blend: AUG-CC-PVTZ
  Basis Set: (AUG-CC-PVTZ AUX)
    Blend: AUG-CC-PVTZ-JKFIT

    Orbital Energies [Eh]
    ---------------------

    Doubly Occupied:

       1A    -20.597072     2A    -20.562125     3A    -20.536252
       4A    -15.600379     5A    -11.398755     6A    -11.363333
       7A    -11.300380     8A    -11.250404     9A    -11.221233
      10A     -1.508285    11A     -1.392562    12A     -1.317385
      13A     -1.257573    14A     -1.072891    15A     -1.019218
      16A     -0.890586    17A     -0.803002    18A     -0.794100
      19A     -0.726073    20A     -0.718481    21A     -0.704571
      22A     -0.655569    23A     -0.645304    24A     -0.641176
      25A     -0.609248    26A     -0.600778    27A     -0.565468
      28A     -0.548871    29A     -0.530961    30A     -0.522763
      31A     -0.500213    32A     -0.485738    33A     -0.466024
      34A     -0.439295    35A     -0.415345

  @DF-RHF Final Energy:  -473.79972220577133

   => Energetics <=

    Nuclear Repulsion Energy =            459.4664965294668377
    One-Electron Energy =               -1559.2096152783151410
    Two-Electron Energy =                 625.9433965430769149
    Total Energy =                       -473.7997222057713316
  Basis Set: (AUG-CC-PVTZ AUX)
    Blend: AUG-CC-PVTZ-RI
    Molecular point group: c1

    Geometry (in Angstrom), charge = 0, multiplicity = 1:

       Center              X                  Y                   Z               Mass
    ------------   -----------------  -----------------  -----------------  -----------------
         O            1.068384812580    -1.269771921599     0.271991000392    15.994914619570
         O           -3.060675187420    -0.667207921599     0.360287000392    15.994914619570
         O           -1.735475187420     1.121182078401     0.857055000392    15.994914619570
         N            0.118791812580     0.325597078401    -1.056865999608    14.003074004430
         C            2.362138812580     0.724106078401    -0.177762999608    12.000000000000
         C            1.138423812580    -0.164926921599    -0.264497999608    12.000000000000
         C           -1.156690187420    -0.335627921599    -0.996566999608    12.000000000000
         C            3.473710812580     0.080293078401     0.634109000392    12.000000000000
         C           -1.812613787420     0.247197878401     0.165440200392    12.000000000000
         H            2.701430812580     0.950381078401    -1.195305999608     1.007825032230
         H            2.059710812580     1.682284078401     0.264763000392     1.007825032230
         H           -0.994054187420    -1.412238921599    -0.925145999608     1.007825032230
         H           -1.732262187420    -0.143018921599    -1.911039999608     1.007825032230
         H            0.099214812580     1.328933078401    -1.202405999608     1.007825032230
         H            3.773015812580    -0.868978921599     0.188549000392     1.007825032230
         H            4.344680812580     0.737976078401     0.678498000392     1.007825032230
         H            3.135713812580    -0.123122921599     1.650447000392     1.007825032230
         H           -3.562126187420    -0.290036921599     1.111095000392     1.007825032230

  Basis Set: AUG-CC-PVTZ
    Blend: AUG-CC-PVTZ
  Basis Set: (AUG-CC-PVTZ AUX)
    Blend: AUG-CC-PVTZ-JKFIT
	 Reference Energy          =    -473.7997222057713316 [Eh]
	 Singles Energy            =      -0.0000000000000000 [Eh]
	 Same-Spin Energy          =      -0.4671389469237189 [Eh]
	 Opposite-Spin Energy      =      -1.4595857927846372 [Eh]
	 Correlation Energy        =      -1.9267247397083560 [Eh]
	 Total Energy              =    -475.7264469454796654 [Eh]

	 ================> DF-SCS-MP2 Energies <==================
	-----------------------------------------------------------
	 SCS Same-Spin Scale       =       0.3333333333333333 [-]
	 SCS Opposite-Spin Scale   =       1.2000000000000000 [-]
	 SCS Same-Spin Energy      =      -0.1557129823079063 [Eh]
	 SCS Opposite-Spin Energy  =      -1.7515029513415645 [Eh]
	 SCS Correlation Energy    =      -1.9072159336494710 [Eh]
	 SCS Total Energy          =    -475.7069381394207994 [Eh]
	-----------------------------------------------------------

  Dipole Moment: [D]
     X:     0.5890      Y:     2.9243      Z:    -1.9788     Total:     3.5797

*** Psi4 exiting successfully. Buy a developer a beer!
