                               Psi4 1.3.2 release

  ==> Input File <==

--------------------------------------------------------------------------
#psi4
#
memory 32 gb

molecule  {
0 1
  O        1.0830410    -1.2590340     0.2697030
  O       -3.0460190    -0.6564700     0.3579990
  O       -1.7208190     1.1319200     0.8547670
  N        0.1334480     0.3363350    -1.0591540
  C        2.3767950     0.7348440    -0.1800510
  C        1.1530800    -0.1541890    -0.2667860
  C       -1.1420340    -0.3248900    -0.9988550
  C        3.4883670     0.0910310     0.6318210
  C       -1.9510648     0.1269546     0.1700693
  H        2.7160870     0.9611190    -1.1975940
  H        2.0743670     1.6930220     0.2624750
  H       -0.9793980    -1.4015010    -0.9274340
  H       -1.7176060    -0.1322810    -1.9133280
  H        0.1138710     1.3396710    -1.2046940
  H        3.7876720    -0.8582410     0.1862610
  H        4.3593370     0.7487140     0.6762100
  H        3.1503700    -0.1123850     1.6481590
  H       -3.5590778    -0.2917071     1.1070934
units angstrom
no_reorient  #important for SAPT in psi4, default
symmetry c1  #important for SAPT in psi4, default
}

set PROPERTIES_ORIGIN ["COM"]
properties('MP2/aug-cc-pvtz', properties = ['dipole'])
--------------------------------------------------------------------------

    Molecular point group: c1
  Charge       = 0
  Multiplicity = 1
  Basis Set: AUG-CC-PVTZ
    Blend: AUG-CC-PVTZ
  Basis Set: (AUG-CC-PVTZ AUX)
    Blend: AUG-CC-PVTZ-JKFIT

    Orbital Energies [Eh]
    ---------------------

    Doubly Occupied:

       1A    -20.625507     2A    -20.560001     3A    -20.529420
       4A    -15.593895     5A    -11.401222     6A    -11.356810
       7A    -11.292262     8A    -11.244541     9A    -11.216679
      10A     -1.464047    11A     -1.385450    12A     -1.357634
      13A     -1.243238    14A     -1.064900    15A     -1.011924
      16A     -0.891218    17A     -0.826932    18A     -0.786780
      19A     -0.715611    20A     -0.712449    21A     -0.698064
      22A     -0.653803    23A     -0.643993    24A     -0.636695
      25A     -0.602727    26A     -0.596915    27A     -0.560448
      28A     -0.540774    29A     -0.525770    30A     -0.517681
      31A     -0.494780    32A     -0.485458    33A     -0.467889
      34A     -0.434923    35A     -0.412197

  @DF-RHF Final Energy:  -473.83703177987610

   => Energetics <=

    Nuclear Repulsion Energy =            457.9850767967382126
    One-Electron Energy =               -1556.5389458176366588
    Two-Electron Energy =                 624.7168372410224038
    Total Energy =                       -473.8370317798760425
  Basis Set: (AUG-CC-PVTZ AUX)
    Blend: AUG-CC-PVTZ-RI
    Molecular point group: c1

    Geometry (in Angstrom), charge = 0, multiplicity = 1:

       Center              X                  Y                   Z               Mass
    ------------   -----------------  -----------------  -----------------  -----------------
         O            1.082492929604    -1.257683558779     0.271370831915    15.994914619570
         O           -3.046567070396    -0.655119558779     0.359666831915    15.994914619570
         O           -1.721367070396     1.133270441221     0.856434831915    15.994914619570
         N            0.132899929604     0.337685441221    -1.057486168085    14.003074004430
         C            2.376246929604     0.736194441221    -0.178383168085    12.000000000000
         C            1.152531929604    -0.152838558779    -0.265118168085    12.000000000000
         C           -1.142582070396    -0.323539558779    -0.997187168085    12.000000000000
         C            3.487818929604     0.092381441221     0.633488831915    12.000000000000
         C           -1.951612870396     0.128305041221     0.171737131915    12.000000000000
         H            2.715538929604     0.962469441221    -1.195926168085     1.007825032230
         H            2.073818929604     1.694372441221     0.264142831915     1.007825032230
         H           -0.979946070396    -1.400150558779    -0.925766168085     1.007825032230
         H           -1.718154070396    -0.130930558779    -1.911660168085     1.007825032230
         H            0.113322929604     1.341021441221    -1.203026168085     1.007825032230
         H            3.787123929604    -0.856890558779     0.187928831915     1.007825032230
         H            4.358788929604     0.750064441221     0.677877831915     1.007825032230
         H            3.149821929604    -0.111034558779     1.649826831915     1.007825032230
         H           -3.559625870396    -0.290356658779     1.108761231915     1.007825032230

  Basis Set: AUG-CC-PVTZ
    Blend: AUG-CC-PVTZ
  Basis Set: (AUG-CC-PVTZ AUX)
    Blend: AUG-CC-PVTZ-JKFIT
	 Reference Energy          =    -473.8370317798760993 [Eh]
	 Singles Energy            =      -0.0000000000000000 [Eh]
	 Same-Spin Energy          =      -0.4671703660539680 [Eh]
	 Opposite-Spin Energy      =      -1.4585591783084952 [Eh]
	 Correlation Energy        =      -1.9257295443624631 [Eh]
	 Total Energy              =    -475.7627613242385678 [Eh]

	 ================> DF-SCS-MP2 Energies <==================
	-----------------------------------------------------------
	 SCS Same-Spin Scale       =       0.3333333333333333 [-]
	 SCS Opposite-Spin Scale   =       1.2000000000000000 [-]
	 SCS Same-Spin Energy      =      -0.1557234553513226 [Eh]
	 SCS Opposite-Spin Energy  =      -1.7502710139701942 [Eh]
	 SCS Correlation Energy    =      -1.9059944693215169 [Eh]
	 SCS Total Energy          =    -475.7430262491976123 [Eh]
	-----------------------------------------------------------

  Dipole Moment: [D]
     X:    -0.9327      Y:     1.7842      Z:    -1.8276     Total:     2.7191

*** Psi4 exiting successfully. Buy a developer a beer!
