                               Psi4 1.4a3.dev225

  ==> Input File <==

--------------------------------------------------------------------------
#psi4
#
memory 32 gb

molecule  {
0 1
  O        0.8764270    -0.2428500     1.2911470
  O       -3.1675390     0.0980960     0.5443480
  O       -1.5839830     1.3406500    -0.5070920
  N        0.0834400    -0.8734940    -0.7544630
  C        2.2681300     0.2178930    -0.6380450
  C        1.0330250    -0.3000120     0.0721840
  C       -1.2394860    -1.0499030    -0.2084880
  C        3.4385850     0.4137260     0.3159750
  C       -1.9785770     0.2694000    -0.0851210
  H        2.5310470    -0.4685700    -1.4513520
  H        1.9929790     1.1708880    -1.1091590
  H       -1.1549390    -1.4972460     0.7835340
  H       -1.7963876    -1.6997305    -0.8073854
  H        0.1282230    -0.6025030    -1.7308050
  H        3.7379630    -0.5375510     0.7615240
  H        4.2975370     0.8343390    -0.2133880
  H        3.1581410     1.0869690     1.1269820
  H       -3.5812870     0.9851770     0.5837010
units angstrom
no_reorient  #important for SAPT in psi4, default
symmetry c1  #important for SAPT in psi4, default
}

set PROPERTIES_ORIGIN ["COM"]
properties('MP2/aug-cc-pvtz', properties = ['dipole'])
--------------------------------------------------------------------------

    Molecular point group: c1
  Charge       = 0
  Multiplicity = 1
  Basis Set: AUG-CC-PVTZ
    Blend: AUG-CC-PVTZ
  Basis Set: (AUG-CC-PVTZ AUX)
    Blend: AUG-CC-PVTZ-JKFIT

    Orbital Energies [Eh]
    ---------------------

    Doubly Occupied:

       1A    -20.624777     2A    -20.560794     3A    -20.527412
       4A    -15.593077     5A    -11.397424     6A    -11.354949
       7A    -11.286253     8A    -11.243574     9A    -11.217319
      10A     -1.469205    11A     -1.383544    12A     -1.366685
      13A     -1.241280    14A     -1.062726    15A     -1.007948
      16A     -0.888876    17A     -0.826645    18A     -0.784211
      19A     -0.716554    20A     -0.710822    21A     -0.701354
      22A     -0.654048    23A     -0.646500    24A     -0.630580
      25A     -0.604080    26A     -0.600180    27A     -0.562428
      28A     -0.544180    29A     -0.524184    30A     -0.515049
      31A     -0.495005    32A     -0.489604    33A     -0.468876
      34A     -0.432346    35A     -0.411148

  @DF-RHF Final Energy:  -473.83898600391456

   => Energetics <=

    Nuclear Repulsion Energy =            460.7455034723686822
    One-Electron Energy =               -1562.0817026488148258
    Two-Electron Energy =                 627.4972131725315876
    Total Energy =                       -473.8389860039145560
  Basis Set: (AUG-CC-PVTZ AUX)
    Blend: AUG-CC-PVTZ-RI
    Molecular point group: c1

    Geometry (in Angstrom), charge = 0, multiplicity = 1:

       Center              X                  Y                   Z               Mass
    ------------   -----------------  -----------------  -----------------  -----------------
         O            0.946373917220    -0.248770843795     1.275211245789    15.994914619570
         O           -3.097592082780     0.092175156205     0.528412245789    15.994914619570
         O           -1.514036082780     1.334729156205    -0.523027754211    15.994914619570
         N            0.153386917220    -0.879414843795    -0.770398754211    14.003074004430
         C            2.338076917220     0.211972156205    -0.653980754211    12.000000000000
         C            1.102971917220    -0.305932843795     0.056248245789    12.000000000000
         C           -1.169539082780    -1.055823843795    -0.224423754211    12.000000000000
         C            3.508531917220     0.407805156205     0.300039245789    12.000000000000
         C           -1.908630082780     0.263479156205    -0.101056754211    12.000000000000
         H            2.600993917220    -0.474490843795    -1.467287754211     1.007825032230
         H            2.062925917220     1.164967156205    -1.125094754211     1.007825032230
         H           -1.084992082780    -1.503166843795     0.767598245789     1.007825032230
         H           -1.726440682780    -1.705651343795    -0.823321154211     1.007825032230
         H            0.198169917220    -0.608423843795    -1.746740754211     1.007825032230
         H            3.807909917220    -0.543471843795     0.745588245789     1.007825032230
         H            4.367483917220     0.828418156205    -0.229323754211     1.007825032230
         H            3.228087917220     1.081048156205     1.111046245789     1.007825032230
         H           -3.511340082780     0.979256156205     0.567765245789     1.007825032230

  Basis Set: AUG-CC-PVTZ
    Blend: AUG-CC-PVTZ
  Basis Set: (AUG-CC-PVTZ AUX)
    Blend: AUG-CC-PVTZ-JKFIT
	 Reference Energy          =    -473.8389860039145560 [Eh]
	 Singles Energy            =      -0.0000000000000000 [Eh]
	 Same-Spin Energy          =      -0.4667865641077964 [Eh]
	 Opposite-Spin Energy      =      -1.4576829601620935 [Eh]
	 Correlation Energy        =      -1.9244695242698899 [Eh]
	 Total Energy              =    -475.7634555281844655 [Eh]

	 ================> DF-SCS-MP2 Energies <==================
	-----------------------------------------------------------
	 SCS Same-Spin Scale       =       0.3333333333333333 [-]
	 SCS Opposite-Spin Scale   =       1.2000000000000000 [-]
	 SCS Same-Spin Energy      =      -0.1555955213692655 [Eh]
	 SCS Opposite-Spin Energy  =      -1.7492195521945122 [Eh]
	 SCS Correlation Energy    =      -1.9048150735637777 [Eh]
	 SCS Total Energy          =    -475.7438010774783379 [Eh]
	-----------------------------------------------------------

  Dipole Moment: [D]
     X:    -0.9172      Y:    -0.7872      Z:    -2.6635     Total:     2.9249

*** Psi4 exiting successfully. Buy a developer a beer!
