                               Psi4 1.3.2 release

  ==> Input File <==

--------------------------------------------------------------------------
#psi4
#
memory 32 gb

molecule  {
0 1
  O        1.0830410    -1.2590340     0.2697030
  O       -3.0460190    -0.6564700     0.3579990
  O       -1.7208190     1.1319200     0.8547670
  N        0.1334480     0.3363350    -1.0591540
  C        2.3767950     0.7348440    -0.1800510
  C        1.1530800    -0.1541890    -0.2667860
  C       -1.1420340    -0.3248900    -0.9988550
  C        3.4883670     0.0910310     0.6318210
  C       -1.9616310     0.1474219     0.1971981
  H        2.7160870     0.9611190    -1.1975940
  H        2.0743670     1.6930220     0.2624750
  H       -0.9793980    -1.4015010    -0.9274340
  H       -1.7176060    -0.1322810    -1.9133280
  H        0.1138710     1.3396710    -1.2046940
  H        3.7876720    -0.8582410     0.1862610
  H        4.3593370     0.7487140     0.6762100
  H        3.1503700    -0.1123850     1.6481590
  H       -3.5416086    -0.2731378     1.1095781
units angstrom
no_reorient  #important for SAPT in psi4, default
symmetry c1  #important for SAPT in psi4, default
}

set PROPERTIES_ORIGIN ["COM"]
properties('MP2/aug-cc-pvtz', properties = ['dipole'])
--------------------------------------------------------------------------

    Molecular point group: c1
  Charge       = 0
  Multiplicity = 1
  Basis Set: AUG-CC-PVTZ
    Blend: AUG-CC-PVTZ
  Basis Set: (AUG-CC-PVTZ AUX)
    Blend: AUG-CC-PVTZ-JKFIT

    Orbital Energies [Eh]
    ---------------------

    Doubly Occupied:

       1A    -20.625550     2A    -20.564432     3A    -20.528455
       4A    -15.592325     5A    -11.397928     6A    -11.355746
       7A    -11.290191     8A    -11.244078     9A    -11.216388
      10A     -1.471145    11A     -1.384726    12A     -1.373811
      13A     -1.241194    14A     -1.062870    15A     -1.003260
      16A     -0.888904    17A     -0.823542    18A     -0.785150
      19A     -0.717815    20A     -0.712419    21A     -0.698358
      22A     -0.652990    23A     -0.644462    24A     -0.637213
      25A     -0.605743    26A     -0.600052    27A     -0.559133
      28A     -0.540447    29A     -0.525036    30A     -0.517307
      31A     -0.497280    32A     -0.493454    33A     -0.469743
      34A     -0.433598    35A     -0.409090

  @DF-RHF Final Energy:  -473.84029005920877

   => Energetics <=

    Nuclear Repulsion Energy =            458.0552635151602772
    One-Electron Energy =               -1556.6634418507262581
    Two-Electron Energy =                 624.7678882763572119
    Total Energy =                       -473.8402900592087690
  Basis Set: (AUG-CC-PVTZ AUX)
    Blend: AUG-CC-PVTZ-RI
    Molecular point group: c1

    Geometry (in Angstrom), charge = 0, multiplicity = 1:

       Center              X                  Y                   Z               Mass
    ------------   -----------------  -----------------  -----------------  -----------------
         O            1.083326059214    -1.259700388846     0.268867748286    15.994914619570
         O           -3.045733940786    -0.657136388846     0.357163748286    15.994914619570
         O           -1.720533940786     1.131253611154     0.853931748286    15.994914619570
         N            0.133733059214     0.335668611154    -1.059989251714    14.003074004430
         C            2.377080059214     0.734177611154    -0.180886251714    12.000000000000
         C            1.153365059214    -0.154855388846    -0.267621251714    12.000000000000
         C           -1.141748940786    -0.325556388846    -0.999690251714    12.000000000000
         C            3.488652059214     0.090364611154     0.630985748286    12.000000000000
         C           -1.961345940786     0.146755511154     0.196362848286    12.000000000000
         H            2.716372059214     0.960452611154    -1.198429251714     1.007825032230
         H            2.074652059214     1.692355611154     0.261639748286     1.007825032230
         H           -0.979112940786    -1.402167388846    -0.928269251714     1.007825032230
         H           -1.717320940786    -0.132947388846    -1.914163251714     1.007825032230
         H            0.114156059214     1.339004611154    -1.205529251714     1.007825032230
         H            3.787957059214    -0.858907388846     0.185425748286     1.007825032230
         H            4.359622059214     0.748047611154     0.675374748286     1.007825032230
         H            3.150655059214    -0.113051388846     1.647323748286     1.007825032230
         H           -3.541323540786    -0.273804188846     1.108742848286     1.007825032230

  Basis Set: AUG-CC-PVTZ
    Blend: AUG-CC-PVTZ
  Basis Set: (AUG-CC-PVTZ AUX)
    Blend: AUG-CC-PVTZ-JKFIT
	 Reference Energy          =    -473.8402900592087690 [Eh]
	 Singles Energy            =      -0.0000000000000000 [Eh]
	 Same-Spin Energy          =      -0.4665486114463149 [Eh]
	 Opposite-Spin Energy      =      -1.4573574337298365 [Eh]
	 Correlation Energy        =      -1.9239060451761514 [Eh]
	 Total Energy              =    -475.7641961043848937 [Eh]

	 ================> DF-SCS-MP2 Energies <==================
	-----------------------------------------------------------
	 SCS Same-Spin Scale       =       0.3333333333333333 [-]
	 SCS Opposite-Spin Scale   =       1.2000000000000000 [-]
	 SCS Same-Spin Energy      =      -0.1555162038154383 [Eh]
	 SCS Opposite-Spin Energy  =      -1.7488289204758038 [Eh]
	 SCS Correlation Energy    =      -1.9043451242912421 [Eh]
	 SCS Total Energy          =    -475.7446351835000087 [Eh]
	-----------------------------------------------------------

  Dipole Moment: [D]
     X:    -0.9600      Y:     1.9233      Z:    -1.7047     Total:     2.7435

*** Psi4 exiting successfully. Buy a developer a beer!
