                               Psi4 1.3.2 release

  ==> Input File <==

--------------------------------------------------------------------------
#psi4
#
memory 32 gb

molecule  {
0 1
  O        1.0432276    -1.2632177     0.2541709
  O       -3.0460190    -0.6564700     0.3579990
  O       -1.7208190     1.1319200     0.8547670
  N        0.1334480     0.3363350    -1.0591540
  C        2.3516682     0.7707452    -0.2096536
  C        1.1530800    -0.1541890    -0.2667860
  C       -1.1420340    -0.3248900    -0.9988550
  C        3.4883670     0.0910310     0.6318210
  C       -1.9580260     0.1406600     0.1881420
  H        2.7160870     0.9611190    -1.1975940
  H        2.0743670     1.6930220     0.2624750
  H       -0.9793980    -1.4015010    -0.9274340
  H       -1.7176060    -0.1322810    -1.9133280
  H        0.1138710     1.3396710    -1.2046940
  H        3.7876720    -0.8582410     0.1862610
  H        4.3593370     0.7487140     0.6762100
  H        3.1503700    -0.1123850     1.6481590
  H       -3.5474700    -0.2792990     1.1088070
units angstrom
no_reorient  #important for SAPT in psi4, default
symmetry c1  #important for SAPT in psi4, default
}

set PROPERTIES_ORIGIN ["COM"]
properties('MP2/aug-cc-pvtz', properties = ['dipole'])
--------------------------------------------------------------------------

    Molecular point group: c1
  Charge       = 0
  Multiplicity = 1
  Basis Set: AUG-CC-PVTZ
    Blend: AUG-CC-PVTZ
  Basis Set: (AUG-CC-PVTZ AUX)
    Blend: AUG-CC-PVTZ-JKFIT

    Orbital Energies [Eh]
    ---------------------

    Doubly Occupied:

       1A    -20.624557     2A    -20.561878     3A    -20.529706
       4A    -15.589761     5A    -11.397877     6A    -11.356786
       7A    -11.288616     8A    -11.244142     9A    -11.220119
      10A     -1.467549    11A     -1.385912    12A     -1.367648
      13A     -1.239238    14A     -1.061476    15A     -1.002508
      16A     -0.890401    17A     -0.824962    18A     -0.784807
      19A     -0.715359    20A     -0.713583    21A     -0.698453
      22A     -0.652050    23A     -0.644364    24A     -0.641131
      25A     -0.603802    26A     -0.598562    27A     -0.557242
      28A     -0.540219    29A     -0.524171    30A     -0.507700
      31A     -0.505199    32A     -0.491602    33A     -0.468349
      34A     -0.435875    35A     -0.408579

  @DF-RHF Final Energy:  -473.83667150585177

   => Energetics <=

    Nuclear Repulsion Energy =            458.0521103213283141
    One-Electron Energy =               -1556.6892063407481146
    Two-Electron Energy =                 624.8004245135681458
    Total Energy =                       -473.8366715058517684
  Basis Set: (AUG-CC-PVTZ AUX)
    Blend: AUG-CC-PVTZ-RI
    Molecular point group: c1

    Geometry (in Angstrom), charge = 0, multiplicity = 1:

       Center              X                  Y                   Z               Mass
    ------------   -----------------  -----------------  -----------------  -----------------
         O            1.050387318737    -1.265994175609     0.258776863810    15.994914619570
         O           -3.038859281263    -0.659246475609     0.362604963810    15.994914619570
         O           -1.713659281263     1.129143524391     0.859372963810    15.994914619570
         N            0.140607718737     0.333558524391    -1.054548036190    14.003074004430
         C            2.358827918737     0.767968724391    -0.205047636190    12.000000000000
         C            1.160239718737    -0.156965475609    -0.262180036190    12.000000000000
         C           -1.134874281263    -0.327666475609    -0.994249036190    12.000000000000
         C            3.495526718737     0.088254524391     0.636426963810    12.000000000000
         C           -1.950866281263     0.137883524391     0.192747963810    12.000000000000
         H            2.723246718737     0.958342524391    -1.192988036190     1.007825032230
         H            2.081526718737     1.690245524391     0.267080963810     1.007825032230
         H           -0.972238281263    -1.404277475609    -0.922828036190     1.007825032230
         H           -1.710446281263    -0.135057475609    -1.908722036190     1.007825032230
         H            0.121030718737     1.336894524391    -1.200088036190     1.007825032230
         H            3.794831718737    -0.861017475609     0.190866963810     1.007825032230
         H            4.366496718737     0.745937524391     0.680815963810     1.007825032230
         H            3.157529718737    -0.115161475609     1.652764963810     1.007825032230
         H           -3.540310281263    -0.282075475609     1.113412963810     1.007825032230

  Basis Set: AUG-CC-PVTZ
    Blend: AUG-CC-PVTZ
  Basis Set: (AUG-CC-PVTZ AUX)
    Blend: AUG-CC-PVTZ-JKFIT
	 Reference Energy          =    -473.8366715058517684 [Eh]
	 Singles Energy            =      -0.0000000000000000 [Eh]
	 Same-Spin Energy          =      -0.4666692088296363 [Eh]
	 Opposite-Spin Energy      =      -1.4578799657005681 [Eh]
	 Correlation Energy        =      -1.9245491745302044 [Eh]
	 Total Energy              =    -475.7612206803819959 [Eh]

	 ================> DF-SCS-MP2 Energies <==================
	-----------------------------------------------------------
	 SCS Same-Spin Scale       =       0.3333333333333333 [-]
	 SCS Opposite-Spin Scale   =       1.2000000000000000 [-]
	 SCS Same-Spin Energy      =      -0.1555564029432121 [Eh]
	 SCS Opposite-Spin Energy  =      -1.7494559588406817 [Eh]
	 SCS Correlation Energy    =      -1.9050123617838939 [Eh]
	 SCS Total Energy          =    -475.7416838676356861 [Eh]
	-----------------------------------------------------------

  Dipole Moment: [D]
     X:    -0.8278      Y:     1.8924      Z:    -1.7165     Total:     2.6856

*** Psi4 exiting successfully. Buy a developer a beer!
