                               Psi4 1.3.2 release

  ==> Input File <==

--------------------------------------------------------------------------
#psi4
#
memory 32 gb

molecule  {
0 1
  O        1.0830410    -1.2590340     0.2697030
  O       -3.0460190    -0.6564700     0.3579990
  O       -1.7377592     1.1276121     0.8668618
  N        0.1334480     0.3363350    -1.0591540
  C        2.3767950     0.7348440    -0.1800510
  C        1.1530800    -0.1541890    -0.2667860
  C       -1.1584413    -0.3453875    -1.0018007
  C        3.4883670     0.0910310     0.6318210
  C       -1.9580260     0.1406600     0.1881420
  H        2.7160870     0.9611190    -1.1975940
  H        2.0743670     1.6930220     0.2624750
  H       -0.9793980    -1.4015010    -0.9274340
  H       -1.7176060    -0.1322810    -1.9133280
  H        0.1138710     1.3396710    -1.2046940
  H        3.7876720    -0.8582410     0.1862610
  H        4.3593370     0.7487140     0.6762100
  H        3.1503700    -0.1123850     1.6481590
  H       -3.5474700    -0.2792990     1.1088070
units angstrom
no_reorient  #important for SAPT in psi4, default
symmetry c1  #important for SAPT in psi4, default
}

set PROPERTIES_ORIGIN ["COM"]
properties('MP2/aug-cc-pvtz', properties = ['dipole'])
--------------------------------------------------------------------------

    Molecular point group: c1
  Charge       = 0
  Multiplicity = 1
  Basis Set: AUG-CC-PVTZ
    Blend: AUG-CC-PVTZ
  Basis Set: (AUG-CC-PVTZ AUX)
    Blend: AUG-CC-PVTZ-JKFIT

    Orbital Energies [Eh]
    ---------------------

    Doubly Occupied:

       1A    -20.623840     2A    -20.563938     3A    -20.528156
       4A    -15.592877     5A    -11.400006     6A    -11.355551
       7A    -11.292468     8A    -11.243919     9A    -11.216272
      10A     -1.469061    11A     -1.383835    12A     -1.367695
      13A     -1.237034    14A     -1.063265    15A     -1.008550
      16A     -0.888633    17A     -0.824801    18A     -0.784731
      19A     -0.715881    20A     -0.711659    21A     -0.698446
      22A     -0.650839    23A     -0.644230    24A     -0.636673
      25A     -0.603847    26A     -0.598559    27A     -0.566439
      28A     -0.540645    29A     -0.524667    30A     -0.517163
      31A     -0.495373    32A     -0.491689    33A     -0.470343
      34A     -0.433206    35A     -0.410330

  @DF-RHF Final Energy:  -473.83905762984421

   => Energetics <=

    Nuclear Repulsion Energy =            457.5301133757841399
    One-Electron Energy =               -1555.6291034635387405
    Two-Electron Energy =                 624.2599324579103950
    Total Energy =                       -473.8390576298442056
  Basis Set: (AUG-CC-PVTZ AUX)
    Blend: AUG-CC-PVTZ-RI
    Molecular point group: c1

    Geometry (in Angstrom), charge = 0, multiplicity = 1:

       Center              X                  Y                   Z               Mass
    ------------   -----------------  -----------------  -----------------  -----------------
         O            1.086610796655    -1.256631320510     0.268496489231    15.994914619570
         O           -3.042449203345    -0.654067320510     0.356792489231    15.994914619570
         O           -1.734189403345     1.130014779490     0.865655289231    15.994914619570
         N            0.137017796655     0.338737679490    -1.060360510769    14.003074004430
         C            2.380364796655     0.737246679490    -0.181257510769    12.000000000000
         C            1.156649796655    -0.151786320510    -0.267992510769    12.000000000000
         C           -1.154871503345    -0.342984820510    -1.003007210769    12.000000000000
         C            3.491936796655     0.093433679490     0.630614489231    12.000000000000
         C           -1.954456203345     0.143062679490     0.186935489231    12.000000000000
         H            2.719656796655     0.963521679490    -1.198800510769     1.007825032230
         H            2.077936796655     1.695424679490     0.261268489231     1.007825032230
         H           -0.975828203345    -1.399098320510    -0.928640510769     1.007825032230
         H           -1.714036203345    -0.129878320510    -1.914534510769     1.007825032230
         H            0.117440796655     1.342073679490    -1.205900510769     1.007825032230
         H            3.791241796655    -0.855838320510     0.185054489231     1.007825032230
         H            4.362906796655     0.751116679490     0.675003489231     1.007825032230
         H            3.153939796655    -0.109982320510     1.646952489231     1.007825032230
         H           -3.543900203345    -0.276896320510     1.107600489231     1.007825032230

  Basis Set: AUG-CC-PVTZ
    Blend: AUG-CC-PVTZ
  Basis Set: (AUG-CC-PVTZ AUX)
    Blend: AUG-CC-PVTZ-JKFIT
	 Reference Energy          =    -473.8390576298442056 [Eh]
	 Singles Energy            =      -0.0000000000000000 [Eh]
	 Same-Spin Energy          =      -0.4665801967166956 [Eh]
	 Opposite-Spin Energy      =      -1.4577422002745339 [Eh]
	 Correlation Energy        =      -1.9243223969912295 [Eh]
	 Total Energy              =    -475.7633800268354207 [Eh]

	 ================> DF-SCS-MP2 Energies <==================
	-----------------------------------------------------------
	 SCS Same-Spin Scale       =       0.3333333333333333 [-]
	 SCS Opposite-Spin Scale   =       1.2000000000000000 [-]
	 SCS Same-Spin Energy      =      -0.1555267322388985 [Eh]
	 SCS Opposite-Spin Energy  =      -1.7492906403294406 [Eh]
	 SCS Correlation Energy    =      -1.9048173725683391 [Eh]
	 SCS Total Energy          =    -475.7438750024125511 [Eh]
	-----------------------------------------------------------

  Dipole Moment: [D]
     X:    -0.9666      Y:     1.8748      Z:    -1.7845     Total:     2.7629

*** Psi4 exiting successfully. Buy a developer a beer!
