                               Psi4 1.3.2 release

  ==> Input File <==

--------------------------------------------------------------------------
#psi4
#
memory 32 gb

molecule  {
0 1
  O        1.0830410    -1.2590340     0.2697030
  O       -3.0460190    -0.6564700     0.3579990
  O       -1.7208190     1.1319200     0.8547670
  N        0.1275496     0.3491306    -1.0383856
  C        2.3767950     0.7348440    -0.1800510
  C        1.1530800    -0.1541890    -0.2667860
  C       -1.1420340    -0.3248900    -0.9988550
  C        3.4883670     0.0910310     0.6318210
  C       -1.9383464     0.1568952     0.1950090
  H        2.7160870     0.9611190    -1.1975940
  H        2.0743670     1.6930220     0.2624750
  H       -0.9793980    -1.4015010    -0.9274340
  H       -1.7176060    -0.1322810    -1.9133280
  H        0.1138710     1.3396710    -1.2046940
  H        3.7876720    -0.8582410     0.1862610
  H        4.3593370     0.7487140     0.6762100
  H        3.1503700    -0.1123850     1.6481590
  H       -3.5474700    -0.2792990     1.1088070
units angstrom
no_reorient  #important for SAPT in psi4, default
symmetry c1  #important for SAPT in psi4, default
}

set PROPERTIES_ORIGIN ["COM"]
properties('MP2/aug-cc-pvtz', properties = ['dipole'])
--------------------------------------------------------------------------

    Molecular point group: c1
  Charge       = 0
  Multiplicity = 1
  Basis Set: AUG-CC-PVTZ
    Blend: AUG-CC-PVTZ
  Basis Set: (AUG-CC-PVTZ AUX)
    Blend: AUG-CC-PVTZ-JKFIT

    Orbital Energies [Eh]
    ---------------------

    Doubly Occupied:

       1A    -20.617789     2A    -20.567481     3A    -20.528386
       4A    -15.592121     5A    -11.397091     6A    -11.356172
       7A    -11.291492     8A    -11.244373     9A    -11.216642
      10A     -1.465740    11A     -1.384901    12A     -1.373213
      13A     -1.243990    14A     -1.063862    15A     -1.005854
      16A     -0.888485    17A     -0.818524    18A     -0.789350
      19A     -0.717092    20A     -0.711366    21A     -0.698711
      22A     -0.652259    23A     -0.643047    24A     -0.637104
      25A     -0.606636    26A     -0.600718    27A     -0.559464
      28A     -0.541424    29A     -0.525424    30A     -0.517684
      31A     -0.499202    32A     -0.494163    33A     -0.471082
      34A     -0.433471    35A     -0.409531

  @DF-RHF Final Energy:  -473.83959473642221

   => Energetics <=

    Nuclear Repulsion Energy =            458.4524852327336362
    One-Electron Energy =               -1557.4564714189245933
    Two-Electron Energy =                 625.1643914497688002
    Total Energy =                       -473.8395947364222138
  Basis Set: (AUG-CC-PVTZ AUX)
    Blend: AUG-CC-PVTZ-RI
    Molecular point group: c1

    Geometry (in Angstrom), charge = 0, multiplicity = 1:

       Center              X                  Y                   Z               Mass
    ------------   -----------------  -----------------  -----------------  -----------------
         O            1.081869361809    -1.261887568494     0.266855092676    15.994914619570
         O           -3.047190638191    -0.659323568494     0.355151092676    15.994914619570
         O           -1.721990638191     1.129066431506     0.851919092676    15.994914619570
         N            0.126377961809     0.346277031506    -1.041233507324    14.003074004430
         C            2.375623361809     0.731990431506    -0.182898907324    12.000000000000
         C            1.151908361809    -0.157042568494    -0.269633907324    12.000000000000
         C           -1.143205638191    -0.327743568494    -1.001702907324    12.000000000000
         C            3.487195361809     0.088177431506     0.628973092676    12.000000000000
         C           -1.939518038191     0.154041631506     0.192161092676    12.000000000000
         H            2.714915361809     0.958265431506    -1.200441907324     1.007825032230
         H            2.073195361809     1.690168431506     0.259627092676     1.007825032230
         H           -0.980569638191    -1.404354568494    -0.930281907324     1.007825032230
         H           -1.718777638191    -0.135134568494    -1.916175907324     1.007825032230
         H            0.112699361809     1.336817431506    -1.207541907324     1.007825032230
         H            3.786500361809    -0.861094568494     0.183413092676     1.007825032230
         H            4.358165361809     0.745860431506     0.673362092676     1.007825032230
         H            3.149198361809    -0.115238568494     1.645311092676     1.007825032230
         H           -3.548641638191    -0.282152568494     1.105959092676     1.007825032230

  Basis Set: AUG-CC-PVTZ
    Blend: AUG-CC-PVTZ
  Basis Set: (AUG-CC-PVTZ AUX)
    Blend: AUG-CC-PVTZ-JKFIT
	 Reference Energy          =    -473.8395947364222138 [Eh]
	 Singles Energy            =      -0.0000000000000000 [Eh]
	 Same-Spin Energy          =      -0.4665082784937113 [Eh]
	 Opposite-Spin Energy      =      -1.4572699659517605 [Eh]
	 Correlation Energy        =      -1.9237782444454719 [Eh]
	 Total Energy              =    -475.7633729808677003 [Eh]

	 ================> DF-SCS-MP2 Energies <==================
	-----------------------------------------------------------
	 SCS Same-Spin Scale       =       0.3333333333333333 [-]
	 SCS Opposite-Spin Scale   =       1.2000000000000000 [-]
	 SCS Same-Spin Energy      =      -0.1555027594979038 [Eh]
	 SCS Opposite-Spin Energy  =      -1.7487239591421126 [Eh]
	 SCS Correlation Energy    =      -1.9042267186400164 [Eh]
	 SCS Total Energy          =    -475.7438214550622320 [Eh]
	-----------------------------------------------------------

  Dipole Moment: [D]
     X:    -0.8036      Y:     2.0309      Z:    -1.7955     Total:     2.8274

*** Psi4 exiting successfully. Buy a developer a beer!
