                               Psi4 1.3.2 release

  ==> Input File <==

--------------------------------------------------------------------------
#psi4
#
memory 32 gb

molecule  {
0 1
  O        1.0830410    -1.2590340     0.2697030
  O       -3.0460190    -0.6564700     0.3579990
  O       -1.7547666     1.1230036     0.8787498
  N        0.1334480     0.3363350    -1.0591540
  C        2.3767950     0.7348440    -0.1800510
  C        1.1530800    -0.1541890    -0.2667860
  C       -1.1750921    -0.3657370    -1.0043840
  C        3.4883670     0.0910310     0.6318210
  C       -1.9580260     0.1406600     0.1881420
  H        2.7160870     0.9611190    -1.1975940
  H        2.0743670     1.6930220     0.2624750
  H       -0.9793980    -1.4015010    -0.9274340
  H       -1.7176060    -0.1322810    -1.9133280
  H        0.1138710     1.3396710    -1.2046940
  H        3.7876720    -0.8582410     0.1862610
  H        4.3593370     0.7487140     0.6762100
  H        3.1503700    -0.1123850     1.6481590
  H       -3.5474700    -0.2792990     1.1088070
units angstrom
no_reorient  #important for SAPT in psi4, default
symmetry c1  #important for SAPT in psi4, default
}

set PROPERTIES_ORIGIN ["COM"]
properties('MP2/aug-cc-pvtz', properties = ['dipole'])
--------------------------------------------------------------------------

    Molecular point group: c1
  Charge       = 0
  Multiplicity = 1
  Basis Set: AUG-CC-PVTZ
    Blend: AUG-CC-PVTZ
  Basis Set: (AUG-CC-PVTZ AUX)
    Blend: AUG-CC-PVTZ-JKFIT

    Orbital Energies [Eh]
    ---------------------

    Doubly Occupied:

       1A    -20.622180     2A    -20.564917     3A    -20.527548
       4A    -15.592802     5A    -11.401096     6A    -11.354997
       7A    -11.294231     8A    -11.243604     9A    -11.216056
      10A     -1.469663    11A     -1.382849    12A     -1.366790
      13A     -1.232435    14A     -1.063092    15A     -1.010925
      16A     -0.887641    17A     -0.825132    18A     -0.783811
      19A     -0.715591    20A     -0.710634    21A     -0.698593
      22A     -0.650981    23A     -0.642239    24A     -0.636187
      25A     -0.603750    26A     -0.597051    27A     -0.572863
      28A     -0.540710    29A     -0.523776    30A     -0.516888
      31A     -0.495198    32A     -0.491570    33A     -0.471280
      34A     -0.432357    35A     -0.410271

  @DF-RHF Final Energy:  -473.83660930483092

   => Energetics <=

    Nuclear Repulsion Energy =            457.0451913029278899
    One-Electron Energy =               -1554.6641864464033915
    Two-Electron Energy =                 623.7823858386445863
    Total Energy =                       -473.8366093048309722
  Basis Set: (AUG-CC-PVTZ AUX)
    Blend: AUG-CC-PVTZ-RI
    Molecular point group: c1

    Geometry (in Angstrom), charge = 0, multiplicity = 1:

       Center              X                  Y                   Z               Mass
    ------------   -----------------  -----------------  -----------------  -----------------
         O            1.090211039567    -1.254205631317     0.267282159318    15.994914619570
         O           -3.038848960433    -0.651641631317     0.355578159318    15.994914619570
         O           -1.747596560433     1.127831968683     0.876328959318    15.994914619570
         N            0.140618039567     0.341163368683    -1.061574840682    14.003074004430
         C            2.383965039567     0.739672368683    -0.182471840682    12.000000000000
         C            1.160250039567    -0.149360631317    -0.269206840682    12.000000000000
         C           -1.167922060433    -0.360908631317    -1.006804840682    12.000000000000
         C            3.495537039567     0.095859368683     0.629400159318    12.000000000000
         C           -1.950855960433     0.145488368683     0.185721159318    12.000000000000
         H            2.723257039567     0.965947368683    -1.200014840682     1.007825032230
         H            2.081537039567     1.697850368683     0.260054159318     1.007825032230
         H           -0.972227960433    -1.396672631317    -0.929854840682     1.007825032230
         H           -1.710435960433    -0.127452631317    -1.915748840682     1.007825032230
         H            0.121041039567     1.344499368683    -1.207114840682     1.007825032230
         H            3.794842039567    -0.853412631317     0.183840159318     1.007825032230
         H            4.366507039567     0.753542368683     0.673789159318     1.007825032230
         H            3.157540039567    -0.107556631317     1.645738159318     1.007825032230
         H           -3.540299960433    -0.274470631317     1.106386159318     1.007825032230

  Basis Set: AUG-CC-PVTZ
    Blend: AUG-CC-PVTZ
  Basis Set: (AUG-CC-PVTZ AUX)
    Blend: AUG-CC-PVTZ-JKFIT
	 Reference Energy          =    -473.8366093048309153 [Eh]
	 Singles Energy            =      -0.0000000000000000 [Eh]
	 Same-Spin Energy          =      -0.4664884070575399 [Eh]
	 Opposite-Spin Energy      =      -1.4578883151551931 [Eh]
	 Correlation Energy        =      -1.9243767222127330 [Eh]
	 Total Energy              =    -475.7609860270436570 [Eh]

	 ================> DF-SCS-MP2 Energies <==================
	-----------------------------------------------------------
	 SCS Same-Spin Scale       =       0.3333333333333333 [-]
	 SCS Opposite-Spin Scale   =       1.2000000000000000 [-]
	 SCS Same-Spin Energy      =      -0.1554961356858466 [Eh]
	 SCS Opposite-Spin Energy  =      -1.7494659781862316 [Eh]
	 SCS Correlation Energy    =      -1.9049621138720783 [Eh]
	 SCS Total Energy          =    -475.7415714187030176 [Eh]
	-----------------------------------------------------------

  Dipole Moment: [D]
     X:    -0.9818      Y:     1.8741      Z:    -1.8204     Total:     2.7910

*** Psi4 exiting successfully. Buy a developer a beer!
