                               Psi4 1.3.2 release

  ==> Input File <==

--------------------------------------------------------------------------
#psi4
#
memory 32 gb

molecule  {
0 1
  O        1.0830410    -1.2590340     0.2697030
  O       -3.0460190    -0.6564700     0.3579990
  O       -1.7208190     1.1319200     0.8547670
  N        0.1334480     0.3363350    -1.0591540
  C        2.3767950     0.7348440    -0.1800510
  C        1.1293019    -0.1170404    -0.2959605
  C       -1.1420340    -0.3248900    -0.9988550
  C        3.5182676     0.1339882     0.6232149
  C       -1.9580260     0.1406600     0.1881420
  H        2.7160870     0.9611190    -1.1975940
  H        2.0743670     1.6930220     0.2624750
  H       -0.9793980    -1.4015010    -0.9274340
  H       -1.7176060    -0.1322810    -1.9133280
  H        0.1138710     1.3396710    -1.2046940
  H        3.7876720    -0.8582410     0.1862610
  H        4.3593370     0.7487140     0.6762100
  H        3.1503700    -0.1123850     1.6481590
  H       -3.5474700    -0.2792990     1.1088070
units angstrom
no_reorient  #important for SAPT in psi4, default
symmetry c1  #important for SAPT in psi4, default
}

set PROPERTIES_ORIGIN ["COM"]
properties('MP2/aug-cc-pvtz', properties = ['dipole'])
--------------------------------------------------------------------------

    Molecular point group: c1
  Charge       = 0
  Multiplicity = 1
  Basis Set: AUG-CC-PVTZ
    Blend: AUG-CC-PVTZ
  Basis Set: (AUG-CC-PVTZ AUX)
    Blend: AUG-CC-PVTZ-JKFIT

    Orbital Energies [Eh]
    ---------------------

    Doubly Occupied:

       1A    -20.627861     2A    -20.565684     3A    -20.517769
       4A    -15.603016     5A    -11.402666     6A    -11.356629
       7A    -11.296213     8A    -11.244980     9A    -11.216002
      10A     -1.471088    11A     -1.373452    12A     -1.360197
      13A     -1.250082    14A     -1.063858    15A     -1.013984
      16A     -0.892576    17A     -0.830593    18A     -0.795656
      19A     -0.719218    20A     -0.715523    21A     -0.696513
      22A     -0.656115    23A     -0.646302    24A     -0.634322
      25A     -0.605056    26A     -0.592143    27A     -0.561706
      28A     -0.539862    29A     -0.533015    30A     -0.508953
      31A     -0.495438    32A     -0.483969    33A     -0.469317
      34A     -0.426402    35A     -0.409659

  @DF-RHF Final Energy:  -473.82913786549750

   => Energetics <=

    Nuclear Repulsion Energy =            457.7020916580412404
    One-Electron Energy =               -1555.9108226771024874
    Two-Electron Energy =                 624.3795931535638601
    Total Energy =                       -473.8291378654975006
  Basis Set: (AUG-CC-PVTZ AUX)
    Blend: AUG-CC-PVTZ-RI
    Molecular point group: c1

    Geometry (in Angstrom), charge = 0, multiplicity = 1:

       Center              X                  Y                   Z               Mass
    ------------   -----------------  -----------------  -----------------  -----------------
         O            1.082480460099    -1.266368549256     0.273162156027    15.994914619570
         O           -3.046579539901    -0.663804549256     0.361458156027    15.994914619570
         O           -1.721379539901     1.124585450744     0.858226156027    15.994914619570
         N            0.132887460099     0.329000450744    -1.055694843973    14.003074004430
         C            2.376234460099     0.727509450744    -0.176591843973    12.000000000000
         C            1.128741360099    -0.124374949256    -0.292501343973    12.000000000000
         C           -1.142594539901    -0.332224549256    -0.995395843973    12.000000000000
         C            3.517707060099     0.126653650744     0.626674056027    12.000000000000
         C           -1.958586539901     0.133325450744     0.191601156027    12.000000000000
         H            2.715526460099     0.953784450744    -1.194134843973     1.007825032230
         H            2.073806460099     1.685687450744     0.265934156027     1.007825032230
         H           -0.979958539901    -1.408835549256    -0.923974843973     1.007825032230
         H           -1.718166539901    -0.139615549256    -1.909868843973     1.007825032230
         H            0.113310460099     1.332336450744    -1.201234843973     1.007825032230
         H            3.787111460099    -0.865575549256     0.189720156027     1.007825032230
         H            4.358776460099     0.741379450744     0.679669156027     1.007825032230
         H            3.149809460099    -0.119719549256     1.651618156027     1.007825032230
         H           -3.548030539901    -0.286633549256     1.112266156027     1.007825032230

  Basis Set: AUG-CC-PVTZ
    Blend: AUG-CC-PVTZ
  Basis Set: (AUG-CC-PVTZ AUX)
    Blend: AUG-CC-PVTZ-JKFIT
	 Reference Energy          =    -473.8291378654975006 [Eh]
	 Singles Energy            =      -0.0000000000000000 [Eh]
	 Same-Spin Energy          =      -0.4676989380140468 [Eh]
	 Opposite-Spin Energy      =      -1.4595602867991422 [Eh]
	 Correlation Energy        =      -1.9272592248131890 [Eh]
	 Total Energy              =    -475.7563970903107133 [Eh]

	 ================> DF-SCS-MP2 Energies <==================
	-----------------------------------------------------------
	 SCS Same-Spin Scale       =       0.3333333333333333 [-]
	 SCS Opposite-Spin Scale   =       1.2000000000000000 [-]
	 SCS Same-Spin Energy      =      -0.1558996460046823 [Eh]
	 SCS Opposite-Spin Energy  =      -1.7514723441589706 [Eh]
	 SCS Correlation Energy    =      -1.9073719901636528 [Eh]
	 SCS Total Energy          =    -475.7365098556611542 [Eh]
	-----------------------------------------------------------

  Dipole Moment: [D]
     X:    -1.2291      Y:     2.1195      Z:    -1.9704     Total:     3.1441

*** Psi4 exiting successfully. Buy a developer a beer!
