                               Psi4 1.4a3.dev225

  ==> Input File <==

--------------------------------------------------------------------------
#psi4
#
memory 32 gb

molecule  {
0 1
  O        0.8764270    -0.2428500     1.2911470
  O       -3.1675390     0.0980960     0.5443480
  O       -1.5839830     1.3406500    -0.5070920
  N        0.0834400    -0.8734940    -0.7544630
  C        2.2681300     0.2178930    -0.6380450
  C        1.0673444    -0.2792855     0.1020603
  C       -1.2394860    -1.0499030    -0.2084880
  C        3.4385850     0.4137260     0.3159750
  C       -1.9785770     0.2694000    -0.0851210
  H        2.5310470    -0.4685700    -1.4513520
  H        1.9929790     1.1708880    -1.1091590
  H       -1.1549390    -1.4972460     0.7835340
  H       -1.8230450    -1.7308360    -0.8360530
  H        0.1282230    -0.6025030    -1.7308050
  H        3.7379630    -0.5375510     0.7615240
  H        4.2975370     0.8343390    -0.2133880
  H        3.1581410     1.0869690     1.1269820
  H       -3.5812870     0.9851770     0.5837010
units angstrom
no_reorient  #important for SAPT in psi4, default
symmetry c1  #important for SAPT in psi4, default
}

set PROPERTIES_ORIGIN ["COM"]
properties('MP2/aug-cc-pvtz', properties = ['dipole'])
--------------------------------------------------------------------------

    Molecular point group: c1
  Charge       = 0
  Multiplicity = 1
  Basis Set: AUG-CC-PVTZ
    Blend: AUG-CC-PVTZ
  Basis Set: (AUG-CC-PVTZ AUX)
    Blend: AUG-CC-PVTZ-JKFIT

    Orbital Energies [Eh]
    ---------------------

    Doubly Occupied:

       1A    -20.622391     2A    -20.558343     3A    -20.536223
       4A    -15.584255     5A    -11.394357     6A    -11.357059
       7A    -11.287279     8A    -11.244919     9A    -11.219702
      10A     -1.466743    11A     -1.400793    12A     -1.364862
      13A     -1.227092    14A     -1.067231    15A     -0.997756
      16A     -0.891134    17A     -0.819987    18A     -0.773687
      19A     -0.713273    20A     -0.709708    21A     -0.700249
      22A     -0.651953    23A     -0.645859    24A     -0.631366
      25A     -0.610252    26A     -0.598381    27A     -0.555513
      28A     -0.546782    29A     -0.527615    30A     -0.517806
      31A     -0.497478    32A     -0.488235    33A     -0.467387
      34A     -0.437697    35A     -0.407059

  @DF-RHF Final Energy:  -473.83821306634900

   => Energetics <=

    Nuclear Repulsion Energy =            460.3308114989893056
    One-Electron Energy =               -1561.2971886577101941
    Two-Electron Energy =                 627.1281640923718896
    Total Energy =                       -473.8382130663489988
  Basis Set: (AUG-CC-PVTZ AUX)
    Blend: AUG-CC-PVTZ-RI
    Molecular point group: c1

    Geometry (in Angstrom), charge = 0, multiplicity = 1:

       Center              X                  Y                   Z               Mass
    ------------   -----------------  -----------------  -----------------  -----------------
         O            0.943436545287    -0.250429412484     1.272696152749    15.994914619570
         O           -3.100529454713     0.090516587516     0.525897152749    15.994914619570
         O           -1.516973454713     1.333070587516    -0.525542847251    15.994914619570
         N            0.150449545287    -0.881073412484    -0.772913847251    14.003074004430
         C            2.335139545287     0.210313587516    -0.656495847251    12.000000000000
         C            1.134353945287    -0.286864912484     0.083609452749    12.000000000000
         C           -1.172476454713    -1.057482412484    -0.226938847251    12.000000000000
         C            3.505594545287     0.406146587516     0.297524152749    12.000000000000
         C           -1.911567454713     0.261820587516    -0.103571847251    12.000000000000
         H            2.598056545287    -0.476149412484    -1.469802847251     1.007825032230
         H            2.059988545287     1.163308587516    -1.127609847251     1.007825032230
         H           -1.087929454713    -1.504825412484     0.765083152749     1.007825032230
         H           -1.756035454713    -1.738415412484    -0.854503847251     1.007825032230
         H            0.195232545287    -0.610082412484    -1.749255847251     1.007825032230
         H            3.804972545287    -0.545130412484     0.743073152749     1.007825032230
         H            4.364546545287     0.826759587516    -0.231838847251     1.007825032230
         H            3.225150545287     1.079389587516     1.108531152749     1.007825032230
         H           -3.514277454713     0.977597587516     0.565250152749     1.007825032230

  Basis Set: AUG-CC-PVTZ
    Blend: AUG-CC-PVTZ
  Basis Set: (AUG-CC-PVTZ AUX)
    Blend: AUG-CC-PVTZ-JKFIT
	 Reference Energy          =    -473.8382130663489988 [Eh]
	 Singles Energy            =      -0.0000000000000000 [Eh]
	 Same-Spin Energy          =      -0.4664841490701122 [Eh]
	 Opposite-Spin Energy      =      -1.4573999907510209 [Eh]
	 Correlation Energy        =      -1.9238841398211330 [Eh]
	 Total Energy              =    -475.7620972061701536 [Eh]

	 ================> DF-SCS-MP2 Energies <==================
	-----------------------------------------------------------
	 SCS Same-Spin Scale       =       0.3333333333333333 [-]
	 SCS Opposite-Spin Scale   =       1.2000000000000000 [-]
	 SCS Same-Spin Energy      =      -0.1554947163567041 [Eh]
	 SCS Opposite-Spin Energy  =      -1.7488799889012250 [Eh]
	 SCS Correlation Energy    =      -1.9043747052579290 [Eh]
	 SCS Total Energy          =    -475.7425877716069067 [Eh]
	-----------------------------------------------------------

  Dipole Moment: [D]
     X:    -0.5721      Y:    -0.6368      Z:    -2.4270     Total:     2.5736

*** Psi4 exiting successfully. Buy a developer a beer!
