                               Psi4 1.3.2 release

  ==> Input File <==

--------------------------------------------------------------------------
#psi4
#
memory 32 gb

molecule  {
0 1
  O        1.0830410    -1.2590340     0.2697030
  O       -3.0460190    -0.6564700     0.3579990
  O       -1.7208190     1.1319200     0.8547670
  N        0.1334480     0.3363350    -1.0591540
  C        2.3767950     0.7348440    -0.1800510
  C        1.1530800    -0.1541890    -0.2667860
  C       -1.1420340    -0.3248900    -0.9988550
  C        3.4883670     0.0910310     0.6318210
  C       -2.1180944     0.0233842     0.2131318
  H        2.7160870     0.9611190    -1.1975940
  H        2.0743670     1.6930220     0.2624750
  H       -0.9793980    -1.4015010    -0.9274340
  H       -1.7176060    -0.1322810    -1.9133280
  H        0.1138710     1.3396710    -1.2046940
  H        3.7876720    -0.8582410     0.1862610
  H        4.3593370     0.7487140     0.6762100
  H        3.1503700    -0.1123850     1.6481590
  H       -3.5474700    -0.2792990     1.1088070
units angstrom
no_reorient  #important for SAPT in psi4, default
symmetry c1  #important for SAPT in psi4, default
}

set PROPERTIES_ORIGIN ["COM"]
properties('MP2/aug-cc-pvtz', properties = ['dipole'])
--------------------------------------------------------------------------

    Molecular point group: c1
  Charge       = 0
  Multiplicity = 1
  Basis Set: AUG-CC-PVTZ
    Blend: AUG-CC-PVTZ
  Basis Set: (AUG-CC-PVTZ AUX)
    Blend: AUG-CC-PVTZ-JKFIT

    Orbital Energies [Eh]
    ---------------------

    Doubly Occupied:

       1A    -20.682333     2A    -20.526651     3A    -20.522864
       4A    -15.587798     5A    -11.401167     6A    -11.350330
       7A    -11.288019     8A    -11.239194     9A    -11.212517
      10A     -1.592035    11A     -1.378207    12A     -1.296181
      13A     -1.229690    14A     -1.056606    15A     -1.001750
      16A     -0.917126    17A     -0.862734    18A     -0.781172
      19A     -0.767856    20A     -0.719056    21A     -0.700369
      22A     -0.683061    23A     -0.648180    24A     -0.631578
      25A     -0.600006    26A     -0.570964    27A     -0.555195
      28A     -0.521917    29A     -0.519608    30A     -0.512961
      31A     -0.488171    32A     -0.446261    33A     -0.434234
      34A     -0.428683    35A     -0.398614

  @DF-RHF Final Energy:  -473.77708478995311

   => Energetics <=

    Nuclear Repulsion Energy =            457.3377433907398313
    One-Electron Energy =               -1555.1234721812727457
    Two-Electron Energy =                 624.0086440005798067
    Total Energy =                       -473.7770847899530509
  Basis Set: (AUG-CC-PVTZ AUX)
    Blend: AUG-CC-PVTZ-RI
    Molecular point group: c1

    Geometry (in Angstrom), charge = 0, multiplicity = 1:

       Center              X                  Y                   Z               Mass
    ------------   -----------------  -----------------  -----------------  -----------------
         O            1.097697288526    -1.248295827213     0.267414751042    15.994914619570
         O           -3.031362711474    -0.645731827213     0.355710751042    15.994914619570
         O           -1.706162711474     1.142658172787     0.852478751042    15.994914619570
         N            0.148104288526     0.347073172787    -1.061442248958    14.003074004430
         C            2.391451288526     0.745582172787    -0.182339248958    12.000000000000
         C            1.167736288526    -0.143450827213    -0.269074248958    12.000000000000
         C           -1.127377711474    -0.314151827213    -1.001143248958    12.000000000000
         C            3.503023288526     0.101769172787     0.629532751042    12.000000000000
         C           -2.103438111474     0.034122372787     0.210843551042    12.000000000000
         H            2.730743288526     0.971857172787    -1.199882248958     1.007825032230
         H            2.089023288526     1.703760172787     0.260186751042     1.007825032230
         H           -0.964741711474    -1.390762827213    -0.929722248958     1.007825032230
         H           -1.702949711474    -0.121542827213    -1.915616248958     1.007825032230
         H            0.128527288526     1.350409172787    -1.206982248958     1.007825032230
         H            3.802328288526    -0.847502827213     0.183972751042     1.007825032230
         H            4.373993288526     0.759452172787     0.673921751042     1.007825032230
         H            3.165026288526    -0.101646827213     1.645870751042     1.007825032230
         H           -3.532813711474    -0.268560827213     1.106518751042     1.007825032230

  Basis Set: AUG-CC-PVTZ
    Blend: AUG-CC-PVTZ
  Basis Set: (AUG-CC-PVTZ AUX)
    Blend: AUG-CC-PVTZ-JKFIT
	 Reference Energy          =    -473.7770847899531077 [Eh]
	 Singles Energy            =      -0.0000000000000000 [Eh]
	 Same-Spin Energy          =      -0.4680745578406583 [Eh]
	 Opposite-Spin Energy      =      -1.4590453901001872 [Eh]
	 Correlation Energy        =      -1.9271199479408454 [Eh]
	 Total Energy              =    -475.7042047378939742 [Eh]

	 ================> DF-SCS-MP2 Energies <==================
	-----------------------------------------------------------
	 SCS Same-Spin Scale       =       0.3333333333333333 [-]
	 SCS Opposite-Spin Scale   =       1.2000000000000000 [-]
	 SCS Same-Spin Energy      =      -0.1560248526135528 [Eh]
	 SCS Opposite-Spin Energy  =      -1.7508544681202245 [Eh]
	 SCS Correlation Energy    =      -1.9068793207337773 [Eh]
	 SCS Total Energy          =    -475.6839641106868726 [Eh]
	-----------------------------------------------------------

  Dipole Moment: [D]
     X:    -2.2370      Y:     0.8195      Z:    -1.6591     Total:     2.9031

*** Psi4 exiting successfully. Buy a developer a beer!
