                               Psi4 1.3.2 release

  ==> Input File <==

--------------------------------------------------------------------------
#psi4
#
memory 32 gb

molecule  {
0 1
  O        1.1024581    -1.2558786     0.2783064
  O       -3.0460190    -0.6564700     0.3579990
  O       -1.7208190     1.1319200     0.8547670
  N        0.1462545     0.3564279    -1.0628280
  C        2.3767950     0.7348440    -0.1800510
  C        1.1530800    -0.1541890    -0.2667860
  C       -1.1420340    -0.3248900    -0.9988550
  C        3.4883670     0.0910310     0.6318210
  C       -1.9580260     0.1406600     0.1881420
  H        2.7160870     0.9611190    -1.1975940
  H        2.0743670     1.6930220     0.2624750
  H       -0.9793980    -1.4015010    -0.9274340
  H       -1.7176060    -0.1322810    -1.9133280
  H        0.1138710     1.3396710    -1.2046940
  H        3.7876720    -0.8582410     0.1862610
  H        4.3593370     0.7487140     0.6762100
  H        3.1503700    -0.1123850     1.6481590
  H       -3.5474700    -0.2792990     1.1088070
units angstrom
no_reorient  #important for SAPT in psi4, default
symmetry c1  #important for SAPT in psi4, default
}

set PROPERTIES_ORIGIN ["COM"]
properties('MP2/aug-cc-pvtz', properties = ['dipole'])
--------------------------------------------------------------------------

    Molecular point group: c1
  Charge       = 0
  Multiplicity = 1
  Basis Set: AUG-CC-PVTZ
    Blend: AUG-CC-PVTZ
  Basis Set: (AUG-CC-PVTZ AUX)
    Blend: AUG-CC-PVTZ-JKFIT

    Orbital Energies [Eh]
    ---------------------

    Doubly Occupied:

       1A    -20.626462     2A    -20.563744     3A    -20.529923
       4A    -15.593408     5A    -11.400330     6A    -11.356312
       7A    -11.293443     8A    -11.241873     9A    -11.214989
      10A     -1.469441    11A     -1.384317    12A     -1.369437
      13A     -1.241964    14A     -1.061758    15A     -1.007109
      16A     -0.888878    17A     -0.823972    18A     -0.791480
      19A     -0.716809    20A     -0.711979    21A     -0.697697
      22A     -0.651645    23A     -0.644842    24A     -0.636292
      25A     -0.604333    26A     -0.599606    27A     -0.563508
      28A     -0.540439    29A     -0.522906    30A     -0.516076
      31A     -0.495089    32A     -0.491731    33A     -0.469812
      34A     -0.433513    35A     -0.412546

  @DF-RHF Final Energy:  -473.83898911679302

   => Energetics <=

    Nuclear Repulsion Energy =            457.6535631445578360
    One-Electron Energy =               -1555.8497802547442461
    Two-Electron Energy =                 624.3572279933933942
    Total Energy =                       -473.8389891167929591
  Basis Set: (AUG-CC-PVTZ AUX)
    Blend: AUG-CC-PVTZ-RI
    Molecular point group: c1

    Geometry (in Angstrom), charge = 0, multiplicity = 1:

       Center              X                  Y                   Z               Mass
    ------------   -----------------  -----------------  -----------------  -----------------
         O            1.098720077982    -1.258410422883     0.277648832488    15.994914619570
         O           -3.049757022018    -0.659001822883     0.357341432488    15.994914619570
         O           -1.724557022018     1.129388177117     0.854109432488    15.994914619570
         N            0.142516477982     0.353896077117    -1.063485567512    14.003074004430
         C            2.373056977982     0.732312177117    -0.180708567512    12.000000000000
         C            1.149341977982    -0.156720822883    -0.267443567512    12.000000000000
         C           -1.145772022018    -0.327421822883    -0.999512567512    12.000000000000
         C            3.484628977982     0.088499177117     0.631163432488    12.000000000000
         C           -1.961764022018     0.138128177117     0.187484432488    12.000000000000
         H            2.712348977982     0.958587177117    -1.198251567512     1.007825032230
         H            2.070628977982     1.690490177117     0.261817432488     1.007825032230
         H           -0.983136022018    -1.404032822883    -0.928091567512     1.007825032230
         H           -1.721344022018    -0.134812822883    -1.913985567512     1.007825032230
         H            0.110132977982     1.337139177117    -1.205351567512     1.007825032230
         H            3.783933977982    -0.860772822883     0.185603432488     1.007825032230
         H            4.355598977982     0.746182177117     0.675552432488     1.007825032230
         H            3.146631977982    -0.114916822883     1.647501432488     1.007825032230
         H           -3.551208022018    -0.281830822883     1.108149432488     1.007825032230

  Basis Set: AUG-CC-PVTZ
    Blend: AUG-CC-PVTZ
  Basis Set: (AUG-CC-PVTZ AUX)
    Blend: AUG-CC-PVTZ-JKFIT
	 Reference Energy          =    -473.8389891167930159 [Eh]
	 Singles Energy            =      -0.0000000000000000 [Eh]
	 Same-Spin Energy          =      -0.4665710206160071 [Eh]
	 Opposite-Spin Energy      =      -1.4576608612329942 [Eh]
	 Correlation Energy        =      -1.9242318818490014 [Eh]
	 Total Energy              =    -475.7632209986419980 [Eh]

	 ================> DF-SCS-MP2 Energies <==================
	-----------------------------------------------------------
	 SCS Same-Spin Scale       =       0.3333333333333333 [-]
	 SCS Opposite-Spin Scale   =       1.2000000000000000 [-]
	 SCS Same-Spin Energy      =      -0.1555236735386690 [Eh]
	 SCS Opposite-Spin Energy  =      -1.7491930334795931 [Eh]
	 SCS Correlation Energy    =      -1.9047167070182622 [Eh]
	 SCS Total Energy          =    -475.7437058238112968 [Eh]
	-----------------------------------------------------------

  Dipole Moment: [D]
     X:    -1.0728      Y:     1.8347      Z:    -1.7594     Total:     2.7590

*** Psi4 exiting successfully. Buy a developer a beer!
