                               Psi4 1.3.2 release

  ==> Input File <==

--------------------------------------------------------------------------
#psi4
#
memory 32 gb

molecule  {
0 1
  O        1.0830410    -1.2590340     0.2697030
  O       -3.0460190    -0.6564700     0.3579990
  O       -1.7208190     1.1319200     0.8547670
  N        0.1334480     0.3363350    -1.0591540
  C        2.3767950     0.7348440    -0.1800510
  C        1.1456507    -0.1627036    -0.2625886
  C       -1.1373928    -0.3329560    -0.9904370
  C        3.4883670     0.0910310     0.6318210
  C       -1.9580260     0.1406600     0.1881420
  H        2.7160870     0.9611190    -1.1975940
  H        2.0743670     1.6930220     0.2624750
  H       -0.9793980    -1.4015010    -0.9274340
  H       -1.7176060    -0.1322810    -1.9133280
  H        0.1138710     1.3396710    -1.2046940
  H        3.7876720    -0.8582410     0.1862610
  H        4.3593370     0.7487140     0.6762100
  H        3.1503700    -0.1123850     1.6481590
  H       -3.5474700    -0.2792990     1.1088070
units angstrom
no_reorient  #important for SAPT in psi4, default
symmetry c1  #important for SAPT in psi4, default
}

set PROPERTIES_ORIGIN ["COM"]
properties('MP2/aug-cc-pvtz', properties = ['dipole'])
--------------------------------------------------------------------------

    Molecular point group: c1
  Charge       = 0
  Multiplicity = 1
  Basis Set: AUG-CC-PVTZ
    Blend: AUG-CC-PVTZ
  Basis Set: (AUG-CC-PVTZ AUX)
    Blend: AUG-CC-PVTZ-JKFIT

    Orbital Energies [Eh]
    ---------------------

    Doubly Occupied:

       1A    -20.625542     2A    -20.563118     3A    -20.530177
       4A    -15.592327     5A    -11.399041     6A    -11.355111
       7A    -11.290867     8A    -11.243478     9A    -11.215906
      10A     -1.468698    11A     -1.390904    12A     -1.368962
      13A     -1.243013    14A     -1.061321    15A     -1.005853
      16A     -0.887856    17A     -0.823972    18A     -0.787132
      19A     -0.716281    20A     -0.713428    21A     -0.697500
      22A     -0.652504    23A     -0.645889    24A     -0.636099
      25A     -0.605130    26A     -0.600327    27A     -0.561027
      28A     -0.541982    29A     -0.524441    30A     -0.517315
      31A     -0.495476    32A     -0.492025    33A     -0.469948
      34A     -0.433542    35A     -0.411016

  @DF-RHF Final Energy:  -473.84019207291624

   => Energetics <=

    Nuclear Repulsion Energy =            458.2198443695813808
    One-Electron Energy =               -1556.9856577263656163
    Two-Electron Energy =                 624.9256212838680540
    Total Energy =                       -473.8401920729162384
  Basis Set: (AUG-CC-PVTZ AUX)
    Blend: AUG-CC-PVTZ-RI
    Molecular point group: c1

    Geometry (in Angstrom), charge = 0, multiplicity = 1:

       Center              X                  Y                   Z               Mass
    ------------   -----------------  -----------------  -----------------  -----------------
         O            1.083296335526    -1.257515715798     0.268547780117    15.994914619570
         O           -3.045763664474    -0.654951715798     0.356843780117    15.994914619570
         O           -1.720563664474     1.133438284202     0.853611780117    15.994914619570
         N            0.133703335526     0.337853284202    -1.060309219883    14.003074004430
         C            2.377050335526     0.736362284202    -0.181206219883    12.000000000000
         C            1.145906035526    -0.161185315798    -0.263743819883    12.000000000000
         C           -1.137137464474    -0.331437715798    -0.991592219883    12.000000000000
         C            3.488622335526     0.092549284202     0.630665780117    12.000000000000
         C           -1.957770664474     0.142178284202     0.186986780117    12.000000000000
         H            2.716342335526     0.962637284202    -1.198749219883     1.007825032230
         H            2.074622335526     1.694540284202     0.261319780117     1.007825032230
         H           -0.979142664474    -1.399982715798    -0.928589219883     1.007825032230
         H           -1.717350664474    -0.130762715798    -1.914483219883     1.007825032230
         H            0.114126335526     1.341189284202    -1.205849219883     1.007825032230
         H            3.787927335526    -0.856722715798     0.185105780117     1.007825032230
         H            4.359592335526     0.750232284202     0.675054780117     1.007825032230
         H            3.150625335526    -0.110866715798     1.647003780117     1.007825032230
         H           -3.547214664474    -0.277780715798     1.107651780117     1.007825032230

  Basis Set: AUG-CC-PVTZ
    Blend: AUG-CC-PVTZ
  Basis Set: (AUG-CC-PVTZ AUX)
    Blend: AUG-CC-PVTZ-JKFIT
	 Reference Energy          =    -473.8401920729162384 [Eh]
	 Singles Energy            =      -0.0000000000000000 [Eh]
	 Same-Spin Energy          =      -0.4664941588691499 [Eh]
	 Opposite-Spin Energy      =      -1.4572466320952215 [Eh]
	 Correlation Energy        =      -1.9237407909643713 [Eh]
	 Total Energy              =    -475.7639328638805978 [Eh]

	 ================> DF-SCS-MP2 Energies <==================
	-----------------------------------------------------------
	 SCS Same-Spin Scale       =       0.3333333333333333 [-]
	 SCS Opposite-Spin Scale   =       1.2000000000000000 [-]
	 SCS Same-Spin Energy      =      -0.1554980529563833 [Eh]
	 SCS Opposite-Spin Energy  =      -1.7486959585142658 [Eh]
	 SCS Correlation Energy    =      -1.9041940114706490 [Eh]
	 SCS Total Energy          =    -475.7443860843868606 [Eh]
	-----------------------------------------------------------

  Dipole Moment: [D]
     X:    -0.9727      Y:     1.8257      Z:    -1.7271     Total:     2.6948

*** Psi4 exiting successfully. Buy a developer a beer!
