                               Psi4 1.4a3.dev225

  ==> Input File <==

--------------------------------------------------------------------------
#psi4
#
memory 32 gb

molecule  {
0 1
  O        0.8764270    -0.2428500     1.2911470
  O       -3.1675390     0.0980960     0.5443480
  O       -1.5839830     1.3406500    -0.5070920
  N        0.0834400    -0.8734940    -0.7544630
  C        2.2681300     0.2178930    -0.6380450
  C        1.0330250    -0.3000120     0.0721840
  C       -1.2394860    -1.0499030    -0.2084880
  C        3.4385850     0.4137260     0.3159750
  C       -1.9785770     0.2694000    -0.0851210
  H        2.5310470    -0.4685700    -1.4513520
  H        1.9929790     1.1708880    -1.1091590
  H       -1.1549390    -1.4972460     0.7835340
  H       -1.8230450    -1.7308360    -0.8360530
  H        0.1282230    -0.6025030    -1.7308050
  H        3.7379630    -0.5375510     0.7615240
  H        4.2975370     0.8343390    -0.2133880
  H        3.1581410     1.0869690     1.1269820
  H       -3.5897341     1.0032878     0.5845044
units angstrom
no_reorient  #important for SAPT in psi4, default
symmetry c1  #important for SAPT in psi4, default
}

set PROPERTIES_ORIGIN ["COM"]
properties('MP2/aug-cc-pvtz', properties = ['dipole'])
--------------------------------------------------------------------------

    Molecular point group: c1
  Charge       = 0
  Multiplicity = 1
  Basis Set: AUG-CC-PVTZ
    Blend: AUG-CC-PVTZ
  Basis Set: (AUG-CC-PVTZ AUX)
    Blend: AUG-CC-PVTZ-JKFIT

    Orbital Energies [Eh]
    ---------------------

    Doubly Occupied:

       1A    -20.625824     2A    -20.560498     3A    -20.527552
       4A    -15.593364     5A    -11.397310     6A    -11.355155
       7A    -11.291887     8A    -11.243681     9A    -11.217395
      10A     -1.466365    11A     -1.383557    12A     -1.364919
      13A     -1.240963    14A     -1.062043    15A     -1.004198
      16A     -0.888284    17A     -0.821848    18A     -0.784146
      19A     -0.714118    20A     -0.710127    21A     -0.697936
      22A     -0.652550    23A     -0.645809    24A     -0.629771
      25A     -0.603238    26A     -0.598290    27A     -0.558625
      28A     -0.544077    29A     -0.523817    30A     -0.515036
      31A     -0.494812    32A     -0.489195    33A     -0.468570
      34A     -0.432477    35A     -0.410993

  @DF-RHF Final Energy:  -473.83824083699676

   => Energetics <=

    Nuclear Repulsion Energy =            460.3473935855365085
    One-Electron Energy =               -1561.3344077536501118
    Two-Electron Energy =                 627.1487733311167858
    Total Energy =                       -473.8382408369967607
  Basis Set: (AUG-CC-PVTZ AUX)
    Blend: AUG-CC-PVTZ-RI
    Molecular point group: c1

    Geometry (in Angstrom), charge = 0, multiplicity = 1:

       Center              X                  Y                   Z               Mass
    ------------   -----------------  -----------------  -----------------  -----------------
         O            0.946643867381    -0.248670915827     1.275425518753    15.994914619570
         O           -3.097322132619     0.092275084173     0.528626518753    15.994914619570
         O           -1.513766132619     1.334829084173    -0.522813481247    15.994914619570
         N            0.153656867381    -0.879314915827    -0.770184481247    14.003074004430
         C            2.338346867381     0.212072084173    -0.653766481247    12.000000000000
         C            1.103241867381    -0.305832915827     0.056462518753    12.000000000000
         C           -1.169269132619    -1.055723915827    -0.224209481247    12.000000000000
         C            3.508801867381     0.407905084173     0.300253518753    12.000000000000
         C           -1.908360132619     0.263579084173    -0.100842481247    12.000000000000
         H            2.601263867381    -0.474390915827    -1.467073481247     1.007825032230
         H            2.063195867381     1.165067084173    -1.124880481247     1.007825032230
         H           -1.084722132619    -1.503066915827     0.767812518753     1.007825032230
         H           -1.752828132619    -1.736656915827    -0.851774481247     1.007825032230
         H            0.198439867381    -0.608323915827    -1.746526481247     1.007825032230
         H            3.808179867381    -0.543371915827     0.745802518753     1.007825032230
         H            4.367753867381     0.828518084173    -0.229109481247     1.007825032230
         H            3.228357867381     1.081148084173     1.111260518753     1.007825032230
         H           -3.519517232619     0.997466884173     0.568782918753     1.007825032230

  Basis Set: AUG-CC-PVTZ
    Blend: AUG-CC-PVTZ
  Basis Set: (AUG-CC-PVTZ AUX)
    Blend: AUG-CC-PVTZ-JKFIT
	 Reference Energy          =    -473.8382408369967607 [Eh]
	 Singles Energy            =      -0.0000000000000000 [Eh]
	 Same-Spin Energy          =      -0.4670760992871550 [Eh]
	 Opposite-Spin Energy      =      -1.4585752074978706 [Eh]
	 Correlation Energy        =      -1.9256513067850256 [Eh]
	 Total Energy              =    -475.7638921437817885 [Eh]

	 ================> DF-SCS-MP2 Energies <==================
	-----------------------------------------------------------
	 SCS Same-Spin Scale       =       0.3333333333333333 [-]
	 SCS Opposite-Spin Scale   =       1.2000000000000000 [-]
	 SCS Same-Spin Energy      =      -0.1556920330957183 [Eh]
	 SCS Opposite-Spin Energy  =      -1.7502902489974448 [Eh]
	 SCS Correlation Energy    =      -1.9059822820931631 [Eh]
	 SCS Total Energy          =    -475.7442231190899520 [Eh]
	-----------------------------------------------------------

  Dipole Moment: [D]
     X:    -0.9195      Y:    -0.7640      Z:    -2.6594     Total:     2.9157

*** Psi4 exiting successfully. Buy a developer a beer!
