                               Psi4 1.3.2 release

  ==> Input File <==

--------------------------------------------------------------------------
#psi4
#
memory 32 gb

molecule  {
0 1
  O        1.0830410    -1.2590340     0.2697030
  O       -3.0460190    -0.6564700     0.3579990
  O       -1.7208190     1.1319200     0.8547670
  N        0.1334480     0.3363350    -1.0591540
  C        2.3767950     0.7348440    -0.1800510
  C        1.1530800    -0.1541890    -0.2667860
  C       -1.1420340    -0.3248900    -0.9988550
  C        3.4883670     0.0910310     0.6318210
  C       -1.9580260     0.1406600     0.1881420
  H        2.7160870     0.9611190    -1.1975940
  H        2.0743670     1.6930220     0.2624750
  H       -0.9793980    -1.4015010    -0.9274340
  H       -1.7176060    -0.1322810    -1.9133280
  H        0.1138710     1.3396710    -1.2046940
  H        3.7876720    -0.8582410     0.1862610
  H        4.3593370     0.7487140     0.6762100
  H        3.1503700    -0.1123850     1.6481590
  H       -3.5474700    -0.2792990     1.1088070
units angstrom
no_reorient  #important for SAPT in psi4, default
symmetry c1  #important for SAPT in psi4, default
}

set PROPERTIES_ORIGIN ["COM"]
properties('MP2/aug-cc-pvtz', properties = ['dipole'])
--------------------------------------------------------------------------

    Molecular point group: c1
  Charge       = 0
  Multiplicity = 1
  Basis Set: AUG-CC-PVTZ
    Blend: AUG-CC-PVTZ
  Basis Set: (AUG-CC-PVTZ AUX)
    Blend: AUG-CC-PVTZ-JKFIT

    Orbital Energies [Eh]
    ---------------------

    Doubly Occupied:

       1A    -20.625516     2A    -20.562955     3A    -20.528782
       4A    -15.592848     5A    -11.398996     6A    -11.356106
       7A    -11.290930     8A    -11.244236     9A    -11.216487
      10A     -1.468554    11A     -1.384891    12A     -1.368618
      13A     -1.241889    14A     -1.063495    15A     -1.006140
      16A     -0.889688    17A     -0.824688    18A     -0.785695
      19A     -0.716140    20A     -0.713038    21A     -0.698323
      22A     -0.653116    23A     -0.644305    24A     -0.637015
      25A     -0.604287    26A     -0.599625    27A     -0.559603
      28A     -0.540509    29A     -0.525287    30A     -0.517435
      31A     -0.495511    32A     -0.491745    33A     -0.469304
      34A     -0.434051    35A     -0.410196

  @DF-RHF Final Energy:  -473.83972643239719

   => Energetics <=

    Nuclear Repulsion Energy =            458.0302430568655154
    One-Electron Energy =               -1556.6199332896574106
    Two-Electron Energy =                 624.7499638003946529
    Total Energy =                       -473.8397264323971285
  Basis Set: (AUG-CC-PVTZ AUX)
    Blend: AUG-CC-PVTZ-RI
    Molecular point group: c1

    Geometry (in Angstrom), charge = 0, multiplicity = 1:

       Center              X                  Y                   Z               Mass
    ------------   -----------------  -----------------  -----------------  -----------------
         O            1.083041050553    -1.259033874406     0.269702875717    15.994914619570
         O           -3.046018949447    -0.656469874406     0.357998875717    15.994914619570
         O           -1.720818949447     1.131920125594     0.854766875717    15.994914619570
         N            0.133448050553     0.336335125594    -1.059154124283    14.003074004430
         C            2.376795050553     0.734844125594    -0.180051124283    12.000000000000
         C            1.153080050553    -0.154188874406    -0.266786124283    12.000000000000
         C           -1.142033949447    -0.324889874406    -0.998855124283    12.000000000000
         C            3.488367050553     0.091031125594     0.631820875717    12.000000000000
         C           -1.958025949447     0.140660125594     0.188141875717    12.000000000000
         H            2.716087050553     0.961119125594    -1.197594124283     1.007825032230
         H            2.074367050553     1.693022125594     0.262474875717     1.007825032230
         H           -0.979397949447    -1.401500874406    -0.927434124283     1.007825032230
         H           -1.717605949447    -0.132280874406    -1.913328124283     1.007825032230
         H            0.113871050553     1.339671125594    -1.204694124283     1.007825032230
         H            3.787672050553    -0.858240874406     0.186260875717     1.007825032230
         H            4.359337050553     0.748714125594     0.676209875717     1.007825032230
         H            3.150370050553    -0.112384874406     1.648158875717     1.007825032230
         H           -3.547469949447    -0.279298874406     1.108806875717     1.007825032230

  Basis Set: AUG-CC-PVTZ
    Blend: AUG-CC-PVTZ
  Basis Set: (AUG-CC-PVTZ AUX)
    Blend: AUG-CC-PVTZ-JKFIT
	 Reference Energy          =    -473.8397264323971854 [Eh]
	 Singles Energy            =      -0.0000000000000000 [Eh]
	 Same-Spin Energy          =      -0.4667380460747673 [Eh]
	 Opposite-Spin Energy      =      -1.4577269679200635 [Eh]
	 Correlation Energy        =      -1.9244650139948307 [Eh]
	 Total Energy              =    -475.7641914463920330 [Eh]

	 ================> DF-SCS-MP2 Energies <==================
	-----------------------------------------------------------
	 SCS Same-Spin Scale       =       0.3333333333333333 [-]
	 SCS Opposite-Spin Scale   =       1.2000000000000000 [-]
	 SCS Same-Spin Energy      =      -0.1555793486915891 [Eh]
	 SCS Opposite-Spin Energy  =      -1.7492723615040762 [Eh]
	 SCS Correlation Energy    =      -1.9048517101956652 [Eh]
	 SCS Total Energy          =    -475.7445781425928431 [Eh]
	-----------------------------------------------------------

  Dipole Moment: [D]
     X:    -0.9502      Y:     1.8766      Z:    -1.7464     Total:     2.7339

*** Psi4 exiting successfully. Buy a developer a beer!
