                               Psi4 1.3.2 release

  ==> Input File <==

--------------------------------------------------------------------------
#psi4
#
memory 32 gb

molecule  {
0 1
  O        1.0830410    -1.2590340     0.2697030
  O       -3.0460190    -0.6564700     0.3579990
  O       -1.7208190     1.1319200     0.8547670
  N        0.1334480     0.3363350    -1.0591540
  C        2.3767950     0.7348440    -0.1800510
  C        1.1530800    -0.1541890    -0.2667860
  C       -1.1420340    -0.3248900    -0.9988550
  C        3.4883670     0.0910310     0.6318210
  C       -2.0380602     0.0820221     0.2006369
  H        2.7160870     0.9611190    -1.1975940
  H        2.0743670     1.6930220     0.2624750
  H       -0.9793980    -1.4015010    -0.9274340
  H       -1.7176060    -0.1322810    -1.9133280
  H        0.1138710     1.3396710    -1.2046940
  H        3.7876720    -0.8582410     0.1862610
  H        4.3593370     0.7487140     0.6762100
  H        3.1503700    -0.1123850     1.6481590
  H       -3.5474700    -0.2792990     1.1088070
units angstrom
no_reorient  #important for SAPT in psi4, default
symmetry c1  #important for SAPT in psi4, default
}

set PROPERTIES_ORIGIN ["COM"]
properties('MP2/aug-cc-pvtz', properties = ['dipole'])
--------------------------------------------------------------------------

    Molecular point group: c1
  Charge       = 0
  Multiplicity = 1
  Basis Set: AUG-CC-PVTZ
    Blend: AUG-CC-PVTZ
  Basis Set: (AUG-CC-PVTZ AUX)
    Blend: AUG-CC-PVTZ-JKFIT

    Orbital Energies [Eh]
    ---------------------

    Doubly Occupied:

       1A    -20.654004     2A    -20.545527     3A    -20.525774
       4A    -15.590246     5A    -11.400810     6A    -11.353184
       7A    -11.289094     8A    -11.241684     9A    -11.214485
      10A     -1.517740    11A     -1.381517    12A     -1.338429
      13A     -1.235716    14A     -1.059831    15A     -1.001468
      16A     -0.896421    17A     -0.848489    18A     -0.782876
      19A     -0.733560    20A     -0.710321    21A     -0.696280
      22A     -0.668444    23A     -0.649706    24A     -0.635120
      25A     -0.601525    26A     -0.586709    27A     -0.560235
      28A     -0.533683    29A     -0.523105    30A     -0.515193
      31A     -0.491560    32A     -0.470931    33A     -0.454448
      34A     -0.431476    35A     -0.405629

  @DF-RHF Final Energy:  -473.82539590491507

   => Energetics <=

    Nuclear Repulsion Energy =            457.5488396884115900
    One-Electron Energy =               -1555.6580267036210898
    Two-Electron Energy =                 624.2837911102944872
    Total Energy =                       -473.8253959049150126
  Basis Set: (AUG-CC-PVTZ AUX)
    Blend: AUG-CC-PVTZ-RI
    Molecular point group: c1

    Geometry (in Angstrom), charge = 0, multiplicity = 1:

       Center              X                  Y                   Z               Mass
    ------------   -----------------  -----------------  -----------------  -----------------
         O            1.090369169540    -1.253664850809     0.268558813379    15.994914619570
         O           -3.038690830460    -0.651100850809     0.356854813379    15.994914619570
         O           -1.713490830460     1.137289149191     0.853622813379    15.994914619570
         N            0.140776169540     0.341704149191    -1.060298186621    14.003074004430
         C            2.384123169540     0.740213149191    -0.181195186621    12.000000000000
         C            1.160408169540    -0.148819850809    -0.267930186621    12.000000000000
         C           -1.134705830460    -0.319520850809    -0.999999186621    12.000000000000
         C            3.495695169540     0.096400149191     0.630676813379    12.000000000000
         C           -2.030732030460     0.087391249191     0.199492713379    12.000000000000
         H            2.723415169540     0.966488149191    -1.198738186621     1.007825032230
         H            2.081695169540     1.698391149191     0.261330813379     1.007825032230
         H           -0.972069830460    -1.396131850809    -0.928578186621     1.007825032230
         H           -1.710277830460    -0.126911850809    -1.914472186621     1.007825032230
         H            0.121199169540     1.345040149191    -1.205838186621     1.007825032230
         H            3.795000169540    -0.852871850809     0.185116813379     1.007825032230
         H            4.366665169540     0.754083149191     0.675065813379     1.007825032230
         H            3.157698169540    -0.107015850809     1.647014813379     1.007825032230
         H           -3.540141830460    -0.273929850809     1.107662813379     1.007825032230

  Basis Set: AUG-CC-PVTZ
    Blend: AUG-CC-PVTZ
  Basis Set: (AUG-CC-PVTZ AUX)
    Blend: AUG-CC-PVTZ-JKFIT
	 Reference Energy          =    -473.8253959049150694 [Eh]
	 Singles Energy            =      -0.0000000000000000 [Eh]
	 Same-Spin Energy          =      -0.4673157339766206 [Eh]
	 Opposite-Spin Energy      =      -1.4581934476822151 [Eh]
	 Correlation Energy        =      -1.9255091816588359 [Eh]
	 Total Energy              =    -475.7509050865738800 [Eh]

	 ================> DF-SCS-MP2 Energies <==================
	-----------------------------------------------------------
	 SCS Same-Spin Scale       =       0.3333333333333333 [-]
	 SCS Opposite-Spin Scale   =       1.2000000000000000 [-]
	 SCS Same-Spin Energy      =      -0.1557719113255402 [Eh]
	 SCS Opposite-Spin Energy  =      -1.7498321372186580 [Eh]
	 SCS Correlation Energy    =      -1.9056040485441983 [Eh]
	 SCS Total Energy          =    -475.7309999534592748 [Eh]
	-----------------------------------------------------------

  Dipole Moment: [D]
     X:    -1.6132      Y:     1.3647      Z:    -1.6780     Total:     2.6982

*** Psi4 exiting successfully. Buy a developer a beer!
