                               Psi4 1.3.2 release

  ==> Input File <==

--------------------------------------------------------------------------
#psi4
#
memory 32 gb

molecule  {
0 1
  O        1.0830410    -1.2590340     0.2697030
  O       -3.0460190    -0.6564700     0.3579990
  O       -1.7208190     1.1319200     0.8547670
  N        0.1334480     0.3363350    -1.0591540
  C        2.3767950     0.7348440    -0.1800510
  C        1.0054510    -0.0831677    -0.3815102
  C       -1.1420340    -0.3248900    -0.9988550
  C        3.4883670     0.0910310     0.6318210
  C       -1.9580260     0.1406600     0.1881420
  H        2.7160870     0.9611190    -1.1975940
  H        2.0743670     1.6930220     0.2624750
  H       -0.9793980    -1.4015010    -0.9274340
  H       -1.7176060    -0.1322810    -1.9133280
  H        0.1138710     1.3396710    -1.2046940
  H        3.7876720    -0.8582410     0.1862610
  H        4.3593370     0.7487140     0.6762100
  H        3.1503700    -0.1123850     1.6481590
  H       -3.5474700    -0.2792990     1.1088070
units angstrom
no_reorient  #important for SAPT in psi4, default
symmetry c1  #important for SAPT in psi4, default
}

set PROPERTIES_ORIGIN ["COM"]
properties('MP2/aug-cc-pvtz', properties = ['dipole'])
--------------------------------------------------------------------------

    Molecular point group: c1
  Charge       = 0
  Multiplicity = 1
  Basis Set: AUG-CC-PVTZ
    Blend: AUG-CC-PVTZ
  Basis Set: (AUG-CC-PVTZ AUX)
    Blend: AUG-CC-PVTZ-JKFIT

    Orbital Energies [Eh]
    ---------------------

    Doubly Occupied:

       1A    -20.635336     2A    -20.574557     3A    -20.491031
       4A    -15.625745     5A    -11.413934     6A    -11.343180
       7A    -11.310099     8A    -11.243246     9A    -11.208509
      10A     -1.479398    11A     -1.390497    12A     -1.375135
      13A     -1.245057    14A     -1.065002    15A     -1.020818
      16A     -0.888706    17A     -0.846797    18A     -0.829698
      19A     -0.730672    20A     -0.729168    21A     -0.700069
      22A     -0.658936    23A     -0.645650    24A     -0.636171
      25A     -0.609125    26A     -0.579945    27A     -0.559614
      28A     -0.551375    29A     -0.521360    30A     -0.503434
      31A     -0.488888    32A     -0.485617    33A     -0.474953
      34A     -0.400041    35A     -0.391874

  @DF-RHF Final Energy:  -473.77249280688233

   => Energetics <=

    Nuclear Repulsion Energy =            459.0740518658099631
    One-Electron Energy =               -1558.3858199340425017
    Two-Electron Energy =                 625.5392752613502125
    Total Energy =                       -473.7724928068823829
  Basis Set: (AUG-CC-PVTZ AUX)
    Blend: AUG-CC-PVTZ-RI
    Molecular point group: c1

    Geometry (in Angstrom), charge = 0, multiplicity = 1:

       Center              X                  Y                   Z               Mass
    ------------   -----------------  -----------------  -----------------  -----------------
         O            1.096558307899    -1.265536751138     0.280207292432    15.994914619570
         O           -3.032501692101    -0.662972751138     0.368503292432    15.994914619570
         O           -1.707301692101     1.125417248862     0.865271292432    15.994914619570
         N            0.146965307899     0.329832248862    -1.048649707568    14.003074004430
         C            2.390312307899     0.728341248862    -0.169546707568    12.000000000000
         C            1.018968307899    -0.089670451138    -0.371005907568    12.000000000000
         C           -1.128516692101    -0.331392751138    -0.988350707568    12.000000000000
         C            3.501884307899     0.084528248862     0.642325292432    12.000000000000
         C           -1.944508692101     0.134157248862     0.198646292432    12.000000000000
         H            2.729604307899     0.954616248862    -1.187089707568     1.007825032230
         H            2.087884307899     1.686519248862     0.272979292432     1.007825032230
         H           -0.965880692101    -1.408003751138    -0.916929707568     1.007825032230
         H           -1.704088692101    -0.138783751138    -1.902823707568     1.007825032230
         H            0.127388307899     1.333168248862    -1.194189707568     1.007825032230
         H            3.801189307899    -0.864743751138     0.196765292432     1.007825032230
         H            4.372854307899     0.742211248862     0.686714292432     1.007825032230
         H            3.163887307899    -0.118887751138     1.658663292432     1.007825032230
         H           -3.533952692101    -0.285801751138     1.119311292432     1.007825032230

  Basis Set: AUG-CC-PVTZ
    Blend: AUG-CC-PVTZ
  Basis Set: (AUG-CC-PVTZ AUX)
    Blend: AUG-CC-PVTZ-JKFIT
	 Reference Energy          =    -473.7724928068823260 [Eh]
	 Singles Energy            =      -0.0000000000000000 [Eh]
	 Same-Spin Energy          =      -0.4688736526577356 [Eh]
	 Opposite-Spin Energy      =      -1.4616019658583419 [Eh]
	 Correlation Energy        =      -1.9304756185160774 [Eh]
	 Total Energy              =    -475.7029684253984101 [Eh]

	 ================> DF-SCS-MP2 Energies <==================
	-----------------------------------------------------------
	 SCS Same-Spin Scale       =       0.3333333333333333 [-]
	 SCS Opposite-Spin Scale   =       1.2000000000000000 [-]
	 SCS Same-Spin Energy      =      -0.1562912175525785 [Eh]
	 SCS Opposite-Spin Energy  =      -1.7539223590300101 [Eh]
	 SCS Correlation Energy    =      -1.9102135765825887 [Eh]
	 SCS Total Energy          =    -475.6827063834649039 [Eh]
	-----------------------------------------------------------

  Dipole Moment: [D]
     X:    -2.2279      Y:     2.5236      Z:    -2.5566     Total:     4.2271

*** Psi4 exiting successfully. Buy a developer a beer!
