                               Psi4 1.3.2 release

  ==> Input File <==

--------------------------------------------------------------------------
#psi4
#
memory 32 gb

molecule  {
0 1
  O        1.0830410    -1.2590340     0.2697030
  O       -3.0460190    -0.6564700     0.3579990
  O       -1.7208190     1.1319200     0.8547670
  N        0.1212644     0.3617208    -1.0176052
  C        2.3767950     0.7348440    -0.1800510
  C        1.1530800    -0.1541890    -0.2667860
  C       -1.1420340    -0.3248900    -0.9988550
  C        3.4883670     0.0910310     0.6318210
  C       -1.9184242     0.1729837     0.2015123
  H        2.7160870     0.9611190    -1.1975940
  H        2.0743670     1.6930220     0.2624750
  H       -0.9793980    -1.4015010    -0.9274340
  H       -1.7176060    -0.1322810    -1.9133280
  H        0.1138710     1.3396710    -1.2046940
  H        3.7876720    -0.8582410     0.1862610
  H        4.3593370     0.7487140     0.6762100
  H        3.1503700    -0.1123850     1.6481590
  H       -3.5474700    -0.2792990     1.1088070
units angstrom
no_reorient  #important for SAPT in psi4, default
symmetry c1  #important for SAPT in psi4, default
}

set PROPERTIES_ORIGIN ["COM"]
properties('MP2/aug-cc-pvtz', properties = ['dipole'])
--------------------------------------------------------------------------

    Molecular point group: c1
  Charge       = 0
  Multiplicity = 1
  Basis Set: AUG-CC-PVTZ
    Blend: AUG-CC-PVTZ
  Basis Set: (AUG-CC-PVTZ AUX)
    Blend: AUG-CC-PVTZ-JKFIT

    Orbital Energies [Eh]
    ---------------------

    Doubly Occupied:

       1A    -20.609778     2A    -20.571877     3A    -20.528176
       4A    -15.591554     5A    -11.395166     6A    -11.356384
       7A    -11.292195     8A    -11.244600     9A    -11.216860
      10A     -1.468549    11A     -1.384844    12A     -1.372773
      13A     -1.246081    14A     -1.064310    15A     -1.005690
      16A     -0.887609    17A     -0.812830    18A     -0.792728
      19A     -0.718784    20A     -0.710327    21A     -0.699510
      22A     -0.651776    23A     -0.642544    24A     -0.637214
      25A     -0.608519    26A     -0.601301    27A     -0.559435
      28A     -0.542355    29A     -0.525586    30A     -0.517988
      31A     -0.502981    32A     -0.494912    33A     -0.471928
      34A     -0.433080    35A     -0.408846

  @DF-RHF Final Energy:  -473.83696236101156

   => Energetics <=

    Nuclear Repulsion Energy =            458.8820287328036898
    One-Electron Energy =               -1558.2998012024006584
    Two-Electron Energy =                 625.5808101085854105
    Total Energy =                       -473.8369623610115013
  Basis Set: (AUG-CC-PVTZ AUX)
    Blend: AUG-CC-PVTZ-RI
    Molecular point group: c1

    Geometry (in Angstrom), charge = 0, multiplicity = 1:

       Center              X                  Y                   Z               Mass
    ------------   -----------------  -----------------  -----------------  -----------------
         O            1.080716788147    -1.264705884179     0.264039328706    15.994914619570
         O           -3.048343211853    -0.662141884179     0.352335328706    15.994914619570
         O           -1.723143211853     1.126248115821     0.849103328706    15.994914619570
         N            0.118940188147     0.356048915821    -1.023268871294    14.003074004430
         C            2.374470788147     0.729172115821    -0.185714671294    12.000000000000
         C            1.150755788147    -0.159860884179    -0.272449671294    12.000000000000
         C           -1.144358211853    -0.330561884179    -1.004518671294    12.000000000000
         C            3.486042788147     0.085359115821     0.626157328706    12.000000000000
         C           -1.920748411853     0.167311815821     0.195848628706    12.000000000000
         H            2.713762788147     0.955447115821    -1.203257671294     1.007825032230
         H            2.072042788147     1.687350115821     0.256811328706     1.007825032230
         H           -0.981722211853    -1.407172884179    -0.933097671294     1.007825032230
         H           -1.719930211853    -0.137952884179    -1.918991671294     1.007825032230
         H            0.111546788147     1.333999115821    -1.210357671294     1.007825032230
         H            3.785347788147    -0.863912884179     0.180597328706     1.007825032230
         H            4.357012788147     0.743042115821     0.670546328706     1.007825032230
         H            3.148045788147    -0.118056884179     1.642495328706     1.007825032230
         H           -3.549794211853    -0.284970884179     1.103143328706     1.007825032230

  Basis Set: AUG-CC-PVTZ
    Blend: AUG-CC-PVTZ
  Basis Set: (AUG-CC-PVTZ AUX)
    Blend: AUG-CC-PVTZ-JKFIT
	 Reference Energy          =    -473.8369623610115582 [Eh]
	 Singles Energy            =      -0.0000000000000000 [Eh]
	 Same-Spin Energy          =      -0.4663360755230377 [Eh]
	 Opposite-Spin Energy      =      -1.4569413427395042 [Eh]
	 Correlation Energy        =      -1.9232774182625418 [Eh]
	 Total Energy              =    -475.7602397792741158 [Eh]

	 ================> DF-SCS-MP2 Energies <==================
	-----------------------------------------------------------
	 SCS Same-Spin Scale       =       0.3333333333333333 [-]
	 SCS Opposite-Spin Scale   =       1.2000000000000000 [-]
	 SCS Same-Spin Energy      =      -0.1554453585076792 [Eh]
	 SCS Opposite-Spin Energy  =      -1.7483296112874049 [Eh]
	 SCS Correlation Energy    =      -1.9037749697950841 [Eh]
	 SCS Total Energy          =    -475.7407373308066667 [Eh]
	-----------------------------------------------------------

  Dipole Moment: [D]
     X:    -0.6443      Y:     2.1847      Z:    -1.8453     Total:     2.9314

*** Psi4 exiting successfully. Buy a developer a beer!
