                               Psi4 1.3.2 release

  ==> Input File <==

--------------------------------------------------------------------------
#psi4
#
memory 32 gb

molecule  {
0 1
  O        1.0830410    -1.2590340     0.2697030
  O       -3.0460190    -0.6564700     0.3579990
  O       -1.7208190     1.1319200     0.8547670
  N        0.1400931     0.3460981    -1.0615694
  C        2.3709428     0.7435826    -0.1880629
  C        1.1530800    -0.1541890    -0.2667860
  C       -1.1420340    -0.3248900    -0.9988550
  C        3.4883670     0.0910310     0.6318210
  C       -1.9580260     0.1406600     0.1881420
  H        2.7160870     0.9611190    -1.1975940
  H        2.0743670     1.6930220     0.2624750
  H       -0.9793980    -1.4015010    -0.9274340
  H       -1.7176060    -0.1322810    -1.9133280
  H        0.1138710     1.3396710    -1.2046940
  H        3.7876720    -0.8582410     0.1862610
  H        4.3593370     0.7487140     0.6762100
  H        3.1503700    -0.1123850     1.6481590
  H       -3.5474700    -0.2792990     1.1088070
units angstrom
no_reorient  #important for SAPT in psi4, default
symmetry c1  #important for SAPT in psi4, default
}

set PROPERTIES_ORIGIN ["COM"]
properties('MP2/aug-cc-pvtz', properties = ['dipole'])
--------------------------------------------------------------------------

    Molecular point group: c1
  Charge       = 0
  Multiplicity = 1
  Basis Set: AUG-CC-PVTZ
    Blend: AUG-CC-PVTZ
  Basis Set: (AUG-CC-PVTZ AUX)
    Blend: AUG-CC-PVTZ-JKFIT

    Orbital Energies [Eh]
    ---------------------

    Doubly Occupied:

       1A    -20.625770     2A    -20.563103     3A    -20.529603
       4A    -15.592404     5A    -11.399414     6A    -11.356320
       7A    -11.291619     8A    -11.242962     9A    -11.216643
      10A     -1.468765    11A     -1.384788    12A     -1.368805
      13A     -1.241210    14A     -1.062021    15A     -1.005701
      16A     -0.889430    17A     -0.824350    18A     -0.788315
      19A     -0.716243    20A     -0.712668    21A     -0.698075
      22A     -0.651917    23A     -0.644588    24A     -0.637646
      25A     -0.604210    26A     -0.599277    27A     -0.561016
      28A     -0.540364    29A     -0.522394    30A     -0.515776
      31A     -0.497334    32A     -0.492316    33A     -0.469354
      34A     -0.434392    35A     -0.411058

  @DF-RHF Final Energy:  -473.83956420971464

   => Energetics <=

    Nuclear Repulsion Energy =            457.8251886452513304
    One-Electron Energy =               -1556.2098061651743137
    Two-Electron Energy =                 624.5450533102084592
    Total Energy =                       -473.8395642097145810
  Basis Set: (AUG-CC-PVTZ AUX)
    Blend: AUG-CC-PVTZ-RI
    Molecular point group: c1

    Geometry (in Angstrom), charge = 0, multiplicity = 1:

       Center              X                  Y                   Z               Mass
    ------------   -----------------  -----------------  -----------------  -----------------
         O            1.082866888085    -1.260877151150     0.270694540352    15.994914619570
         O           -3.046193111915    -0.658313151150     0.358990540352    15.994914619570
         O           -1.720993111915     1.130076848850     0.855758540352    15.994914619570
         N            0.139918988085     0.344254948850    -1.060577859648    14.003074004430
         C            2.370768688085     0.741739448850    -0.187071359648    12.000000000000
         C            1.152905888085    -0.156032151150    -0.265794459648    12.000000000000
         C           -1.142208111915    -0.326733151150    -0.997863459648    12.000000000000
         C            3.488192888085     0.089187848850     0.632812540352    12.000000000000
         C           -1.958200111915     0.138816848850     0.189133540352    12.000000000000
         H            2.715912888085     0.959275848850    -1.196602459648     1.007825032230
         H            2.074192888085     1.691178848850     0.263466540352     1.007825032230
         H           -0.979572111915    -1.403344151150    -0.926442459648     1.007825032230
         H           -1.717780111915    -0.134124151150    -1.912336459648     1.007825032230
         H            0.113696888085     1.337827848850    -1.203702459648     1.007825032230
         H            3.787497888085    -0.860084151150     0.187252540352     1.007825032230
         H            4.359162888085     0.746870848850     0.677201540352     1.007825032230
         H            3.150195888085    -0.114228151150     1.649150540352     1.007825032230
         H           -3.547644111915    -0.281142151150     1.109798540352     1.007825032230

  Basis Set: AUG-CC-PVTZ
    Blend: AUG-CC-PVTZ
  Basis Set: (AUG-CC-PVTZ AUX)
    Blend: AUG-CC-PVTZ-JKFIT
	 Reference Energy          =    -473.8395642097146379 [Eh]
	 Singles Energy            =      -0.0000000000000000 [Eh]
	 Same-Spin Energy          =      -0.4666026197826996 [Eh]
	 Opposite-Spin Energy      =      -1.4576654298292242 [Eh]
	 Correlation Energy        =      -1.9242680496119238 [Eh]
	 Total Energy              =    -475.7638322593265343 [Eh]

	 ================> DF-SCS-MP2 Energies <==================
	-----------------------------------------------------------
	 SCS Same-Spin Scale       =       0.3333333333333333 [-]
	 SCS Opposite-Spin Scale   =       1.2000000000000000 [-]
	 SCS Same-Spin Energy      =      -0.1555342065942332 [Eh]
	 SCS Opposite-Spin Energy  =      -1.7491985157950689 [Eh]
	 SCS Correlation Energy    =      -1.9047327223893020 [Eh]
	 SCS Total Energy          =    -475.7442969321039641 [Eh]
	-----------------------------------------------------------

  Dipole Moment: [D]
     X:    -0.9822      Y:     1.8616      Z:    -1.7447     Total:     2.7339

*** Psi4 exiting successfully. Buy a developer a beer!
