                               Psi4 1.4a3.dev225

  ==> Input File <==

--------------------------------------------------------------------------
#psi4
#
memory 32 gb

molecule  {
0 1
  O        0.8764270    -0.2428500     1.2911470
  O       -3.1675390     0.0980960     0.5443480
  O       -1.5839830     1.3406500    -0.5070920
  N        0.0834400    -0.8734940    -0.7544630
  C        2.2681300     0.2178930    -0.6380450
  C        1.0330250    -0.3000120     0.0721840
  C       -1.2853575    -1.0560198    -0.1895567
  C        3.4385850     0.4137260     0.3159750
  C       -1.9785770     0.2694000    -0.0851210
  H        2.5310470    -0.4685700    -1.4513520
  H        1.9929790     1.1708880    -1.1091590
  H       -1.1549390    -1.4972460     0.7835340
  H       -1.8230450    -1.7308360    -0.8360530
  H        0.1282230    -0.6025030    -1.7308050
  H        3.7379630    -0.5375510     0.7615240
  H        4.2975370     0.8343390    -0.2133880
  H        3.1581410     1.0869690     1.1269820
  H       -3.5812870     0.9851770     0.5837010
units angstrom
no_reorient  #important for SAPT in psi4, default
symmetry c1  #important for SAPT in psi4, default
}

set PROPERTIES_ORIGIN ["COM"]
properties('MP2/aug-cc-pvtz', properties = ['dipole'])
--------------------------------------------------------------------------

    Molecular point group: c1
  Charge       = 0
  Multiplicity = 1
  Basis Set: AUG-CC-PVTZ
    Blend: AUG-CC-PVTZ
  Basis Set: (AUG-CC-PVTZ AUX)
    Blend: AUG-CC-PVTZ-JKFIT

    Orbital Energies [Eh]
    ---------------------

    Doubly Occupied:

       1A    -20.624959     2A    -20.563381     3A    -20.525614
       4A    -15.591985     5A    -11.399837     6A    -11.353412
       7A    -11.292839     8A    -11.242572     9A    -11.216584
      10A     -1.470955    11A     -1.381041    12A     -1.368152
      13A     -1.229922    14A     -1.061337    15A     -1.010736
      16A     -0.887189    17A     -0.825275    18A     -0.780156
      19A     -0.716925    20A     -0.710530    21A     -0.698850
      22A     -0.650641    23A     -0.644334    24A     -0.627041
      25A     -0.604663    26A     -0.596285    27A     -0.566592
      28A     -0.543843    29A     -0.522100    30A     -0.514050
      31A     -0.495163    32A     -0.489932    33A     -0.471427
      34A     -0.430375    35A     -0.410859

  @DF-RHF Final Energy:  -473.83695959748570

   => Energetics <=

    Nuclear Repulsion Energy =            459.9783955770896569
    One-Electron Energy =               -1560.5915961800594687
    Two-Electron Energy =                 626.7762410054840529
    Total Energy =                       -473.8369595974857020
  Basis Set: (AUG-CC-PVTZ AUX)
    Blend: AUG-CC-PVTZ-RI
    Molecular point group: c1

    Geometry (in Angstrom), charge = 0, multiplicity = 1:

       Center              X                  Y                   Z               Mass
    ------------   -----------------  -----------------  -----------------  -----------------
         O            0.950779012093    -0.247971577004     1.273698302609    15.994914619570
         O           -3.093186987907     0.092974422996     0.526899302609    15.994914619570
         O           -1.509630987907     1.335528422996    -0.524540697391    15.994914619570
         N            0.157792012093    -0.878615577004    -0.771911697391    14.003074004430
         C            2.342482012093     0.212771422996    -0.655493697391    12.000000000000
         C            1.107377012093    -0.305133577004     0.054735302609    12.000000000000
         C           -1.211005487907    -1.061141377004    -0.207005397391    12.000000000000
         C            3.512937012093     0.408604422996     0.298526302609    12.000000000000
         C           -1.904224987907     0.264278422996    -0.102569697391    12.000000000000
         H            2.605399012093    -0.473691577004    -1.468800697391     1.007825032230
         H            2.067331012093     1.165766422996    -1.126607697391     1.007825032230
         H           -1.080586987907    -1.502367577004     0.766085302609     1.007825032230
         H           -1.748692987907    -1.735957577004    -0.853501697391     1.007825032230
         H            0.202575012093    -0.607624577004    -1.748253697391     1.007825032230
         H            3.812315012093    -0.542672577004     0.744075302609     1.007825032230
         H            4.371889012093     0.829217422996    -0.230836697391     1.007825032230
         H            3.232493012093     1.081847422996     1.109533302609     1.007825032230
         H           -3.506934987907     0.980055422996     0.566252302609     1.007825032230

  Basis Set: AUG-CC-PVTZ
    Blend: AUG-CC-PVTZ
  Basis Set: (AUG-CC-PVTZ AUX)
    Blend: AUG-CC-PVTZ-JKFIT
	 Reference Energy          =    -473.8369595974857020 [Eh]
	 Singles Energy            =      -0.0000000000000000 [Eh]
	 Same-Spin Energy          =      -0.4667806928095237 [Eh]
	 Opposite-Spin Energy      =      -1.4584521342413899 [Eh]
	 Correlation Energy        =      -1.9252328270509136 [Eh]
	 Total Energy              =    -475.7621924245366358 [Eh]

	 ================> DF-SCS-MP2 Energies <==================
	-----------------------------------------------------------
	 SCS Same-Spin Scale       =       0.3333333333333333 [-]
	 SCS Opposite-Spin Scale   =       1.2000000000000000 [-]
	 SCS Same-Spin Energy      =      -0.1555935642698412 [Eh]
	 SCS Opposite-Spin Energy  =      -1.7501425610896677 [Eh]
	 SCS Correlation Energy    =      -1.9057361253595089 [Eh]
	 SCS Total Energy          =    -475.7426957228452125 [Eh]
	-----------------------------------------------------------

  Dipole Moment: [D]
     X:    -1.0420      Y:    -0.7796      Z:    -2.6555     Total:     2.9572

*** Psi4 exiting successfully. Buy a developer a beer!
