                               Psi4 1.4a3.dev225

  ==> Input File <==

--------------------------------------------------------------------------
#psi4
#
memory 32 gb

molecule  {
0 1
  O        0.8764270    -0.2428500     1.2911470
  O       -3.1675390     0.0980960     0.5443480
  O       -1.5839830     1.3406500    -0.5070920
  N        0.0834400    -0.8734940    -0.7544630
  C        2.2681300     0.2178930    -0.6380450
  C        1.0393892    -0.3023351     0.0226451
  C       -1.2394860    -1.0499030    -0.2084880
  C        3.4385850     0.4137260     0.3159750
  C       -1.9785770     0.2694000    -0.0851210
  H        2.5310470    -0.4685700    -1.4513520
  H        1.9929790     1.1708880    -1.1091590
  H       -1.1549390    -1.4972460     0.7835340
  H       -1.8230450    -1.7308360    -0.8360530
  H        0.1282230    -0.6025030    -1.7308050
  H        3.7379630    -0.5375510     0.7615240
  H        4.2975370     0.8343390    -0.2133880
  H        3.1581410     1.0869690     1.1269820
  H       -3.5812870     0.9851770     0.5837010
units angstrom
no_reorient  #important for SAPT in psi4, default
symmetry c1  #important for SAPT in psi4, default
}

set PROPERTIES_ORIGIN ["COM"]
properties('MP2/aug-cc-pvtz', properties = ['dipole'])
--------------------------------------------------------------------------

    Molecular point group: c1
  Charge       = 0
  Multiplicity = 1
  Basis Set: AUG-CC-PVTZ
    Blend: AUG-CC-PVTZ
  Basis Set: (AUG-CC-PVTZ AUX)
    Blend: AUG-CC-PVTZ-JKFIT

    Orbital Energies [Eh]
    ---------------------

    Doubly Occupied:

       1A    -20.625615     2A    -20.561840     3A    -20.517958
       4A    -15.600461     5A    -11.399449     6A    -11.357094
       7A    -11.295326     8A    -11.245533     9A    -11.218384
      10A     -1.470115    11A     -1.370230    12A     -1.355084
      13A     -1.241973    14A     -1.067832    15A     -1.010273
      16A     -0.894604    17A     -0.828772    18A     -0.787374
      19A     -0.716980    20A     -0.712462    21A     -0.697210
      22A     -0.654581    23A     -0.647113    24A     -0.632185
      25A     -0.603473    26A     -0.588626    27A     -0.558091
      28A     -0.542231    29A     -0.523706    30A     -0.512345
      31A     -0.494659    32A     -0.489284    33A     -0.467635
      34A     -0.428140    35A     -0.408188

  @DF-RHF Final Energy:  -473.83191163091715

   => Energetics <=

    Nuclear Repulsion Energy =            460.2367891679078298
    One-Electron Energy =               -1561.0877489941624390
    Two-Electron Energy =                 627.0190481953375183
    Total Energy =                       -473.8319116309171477
  Basis Set: (AUG-CC-PVTZ AUX)
    Blend: AUG-CC-PVTZ-RI
    Molecular point group: c1

    Geometry (in Angstrom), charge = 0, multiplicity = 1:

       Center              X                  Y                   Z               Mass
    ------------   -----------------  -----------------  -----------------  -----------------
         O            0.945996188938    -0.248318937070     1.279967594645    15.994914619570
         O           -3.097969811062     0.092627062930     0.533168594645    15.994914619570
         O           -1.514413811062     1.335181062930    -0.518271405355    15.994914619570
         N            0.153009188938    -0.878962937070    -0.765642405355    14.003074004430
         C            2.337699188938     0.212424062930    -0.649224405355    12.000000000000
         C            1.108958388938    -0.307804037070     0.011465694645    12.000000000000
         C           -1.169916811062    -1.055371937070    -0.219667405355    12.000000000000
         C            3.508154188938     0.408257062930     0.304795594645    12.000000000000
         C           -1.909007811062     0.263931062930    -0.096300405355    12.000000000000
         H            2.600616188938    -0.474038937070    -1.462531405355     1.007825032230
         H            2.062548188938     1.165419062930    -1.120338405355     1.007825032230
         H           -1.085369811062    -1.502714937070     0.772354594645     1.007825032230
         H           -1.753475811062    -1.736304937070    -0.847232405355     1.007825032230
         H            0.197792188938    -0.607971937070    -1.741984405355     1.007825032230
         H            3.807532188938    -0.543019937070     0.750344594645     1.007825032230
         H            4.367106188938     0.828870062930    -0.224567405355     1.007825032230
         H            3.227710188938     1.081500062930     1.115802594645     1.007825032230
         H           -3.511717811062     0.979708062930     0.572521594645     1.007825032230

  Basis Set: AUG-CC-PVTZ
    Blend: AUG-CC-PVTZ
  Basis Set: (AUG-CC-PVTZ AUX)
    Blend: AUG-CC-PVTZ-JKFIT
	 Reference Energy          =    -473.8319116309171477 [Eh]
	 Singles Energy            =      -0.0000000000000000 [Eh]
	 Same-Spin Energy          =      -0.4680121893663522 [Eh]
	 Opposite-Spin Energy      =      -1.4602087833647781 [Eh]
	 Correlation Energy        =      -1.9282209727311304 [Eh]
	 Total Energy              =    -475.7601326036482874 [Eh]

	 ================> DF-SCS-MP2 Energies <==================
	-----------------------------------------------------------
	 SCS Same-Spin Scale       =       0.3333333333333333 [-]
	 SCS Opposite-Spin Scale   =       1.2000000000000000 [-]
	 SCS Same-Spin Energy      =      -0.1560040631221174 [Eh]
	 SCS Opposite-Spin Energy  =      -1.7522505400377337 [Eh]
	 SCS Correlation Energy    =      -1.9082546031598511 [Eh]
	 SCS Total Energy          =    -475.7401662340769803 [Eh]
	-----------------------------------------------------------

  Dipole Moment: [D]
     X:    -0.9727      Y:    -0.8264      Z:    -2.9429     Total:     3.2078

*** Psi4 exiting successfully. Buy a developer a beer!
