                               Psi4 1.3.2 release

  ==> Input File <==

--------------------------------------------------------------------------
#psi4
#
memory 32 gb

molecule  {
0 1
  O        1.0830410    -1.2590340     0.2697030
  O       -3.0460190    -0.6564700     0.3579990
  O       -1.7208190     1.1319200     0.8547670
  N        0.1334480     0.3363350    -1.0591540
  C        2.3767950     0.7348440    -0.1800510
  C        1.0792655    -0.1186784    -0.3241481
  C       -1.1420340    -0.3248900    -0.9988550
  C        3.4883670     0.0910310     0.6318210
  C       -1.9580260     0.1406600     0.1881420
  H        2.7160870     0.9611190    -1.1975940
  H        2.0743670     1.6930220     0.2624750
  H       -0.9793980    -1.4015010    -0.9274340
  H       -1.7176060    -0.1322810    -1.9133280
  H        0.1138710     1.3396710    -1.2046940
  H        3.7876720    -0.8582410     0.1862610
  H        4.3593370     0.7487140     0.6762100
  H        3.1503700    -0.1123850     1.6481590
  H       -3.5474700    -0.2792990     1.1088070
units angstrom
no_reorient  #important for SAPT in psi4, default
symmetry c1  #important for SAPT in psi4, default
}

set PROPERTIES_ORIGIN ["COM"]
properties('MP2/aug-cc-pvtz', properties = ['dipole'])
--------------------------------------------------------------------------

    Molecular point group: c1
  Charge       = 0
  Multiplicity = 1
  Basis Set: AUG-CC-PVTZ
    Blend: AUG-CC-PVTZ
  Basis Set: (AUG-CC-PVTZ AUX)
    Blend: AUG-CC-PVTZ-JKFIT

    Orbital Energies [Eh]
    ---------------------

    Doubly Occupied:

       1A    -20.630409     2A    -20.568743     3A    -20.510401
       4A    -15.610230     5A    -11.406383     6A    -11.351288
       7A    -11.300473     8A    -11.243135     9A    -11.212309
      10A     -1.473904    11A     -1.376884    12A     -1.361569
      13A     -1.260349    14A     -1.058419    15A     -1.018089
      16A     -0.887164    17A     -0.834206    18A     -0.809995
      19A     -0.722739    20A     -0.719443    21A     -0.694740
      22A     -0.654936    23A     -0.650113    24A     -0.633461
      25A     -0.607684    26A     -0.581210    27A     -0.566332
      28A     -0.541939    29A     -0.523861    30A     -0.505536
      31A     -0.498133    32A     -0.490308    33A     -0.471640
      34A     -0.416421    35A     -0.409742

  @DF-RHF Final Energy:  -473.82334903702690

   => Energetics <=

    Nuclear Repulsion Energy =            458.4346398786474310
    One-Electron Energy =               -1557.3115987544240397
    Two-Electron Energy =                 625.0536098387497077
    Total Energy =                       -473.8233490370269010
  Basis Set: (AUG-CC-PVTZ AUX)
    Blend: AUG-CC-PVTZ-RI
    Molecular point group: c1

    Geometry (in Angstrom), charge = 0, multiplicity = 1:

       Center              X                  Y                   Z               Mass
    ------------   -----------------  -----------------  -----------------  -----------------
         O            1.089799679226    -1.262285308194     0.274955084074    15.994914619570
         O           -3.039260320774    -0.659721308194     0.363251084074    15.994914619570
         O           -1.714060320774     1.128668691806     0.860019084074    15.994914619570
         N            0.140206679226     0.333083691806    -1.053901915926    14.003074004430
         C            2.383553679226     0.731592691806    -0.174798915926    12.000000000000
         C            1.086024179226    -0.121929708194    -0.318896015926    12.000000000000
         C           -1.135275320774    -0.328141308194    -0.993602915926    12.000000000000
         C            3.495125679226     0.087779691806     0.637073084074    12.000000000000
         C           -1.951267320774     0.137408691806     0.193394084074    12.000000000000
         H            2.722845679226     0.957867691806    -1.192341915926     1.007825032230
         H            2.081125679226     1.689770691806     0.267727084074     1.007825032230
         H           -0.972639320774    -1.404752308194    -0.922181915926     1.007825032230
         H           -1.710847320774    -0.135532308194    -1.908075915926     1.007825032230
         H            0.120629679226     1.336419691806    -1.199441915926     1.007825032230
         H            3.794430679226    -0.861492308194     0.191513084074     1.007825032230
         H            4.366095679226     0.745462691806     0.681462084074     1.007825032230
         H            3.157128679226    -0.115636308194     1.653411084074     1.007825032230
         H           -3.540711320774    -0.282550308194     1.114059084074     1.007825032230

  Basis Set: AUG-CC-PVTZ
    Blend: AUG-CC-PVTZ
  Basis Set: (AUG-CC-PVTZ AUX)
    Blend: AUG-CC-PVTZ-JKFIT
	 Reference Energy          =    -473.8233490370269010 [Eh]
	 Singles Energy            =      -0.0000000000000000 [Eh]
	 Same-Spin Energy          =      -0.4677316393148687 [Eh]
	 Opposite-Spin Energy      =      -1.4595036564116364 [Eh]
	 Correlation Energy        =      -1.9272352957265051 [Eh]
	 Total Energy              =    -475.7505843327534194 [Eh]

	 ================> DF-SCS-MP2 Energies <==================
	-----------------------------------------------------------
	 SCS Same-Spin Scale       =       0.3333333333333333 [-]
	 SCS Opposite-Spin Scale   =       1.2000000000000000 [-]
	 SCS Same-Spin Energy      =      -0.1559105464382896 [Eh]
	 SCS Opposite-Spin Energy  =      -1.7514043876939636 [Eh]
	 SCS Correlation Energy    =      -1.9073149341322531 [Eh]
	 SCS Total Energy          =    -475.7306639711591743 [Eh]
	-----------------------------------------------------------

  Dipole Moment: [D]
     X:    -1.6210      Y:     2.1833      Z:    -2.1586     Total:     3.4719

*** Psi4 exiting successfully. Buy a developer a beer!
