                               Psi4 1.3.2 release

  ==> Input File <==

--------------------------------------------------------------------------
#psi4
#
memory 32 gb

molecule  {
0 1
  O        1.0830410    -1.2590340     0.2697030
  O       -3.0460190    -0.6564700     0.3579990
  O       -1.7208190     1.1319200     0.8547670
  N        0.1334480     0.3363350    -1.0591540
  C        2.3767950     0.7348440    -0.1800510
  C        1.1530800    -0.1541890    -0.2667860
  C       -1.1420340    -0.3248900    -0.9988550
  C        3.4883670     0.0910310     0.6318210
  C       -1.9962443     0.1555748     0.1548434
  H        2.7160870     0.9611190    -1.1975940
  H        2.0743670     1.6930220     0.2624750
  H       -0.9793980    -1.4015010    -0.9274340
  H       -1.7457295    -0.1177348    -1.8917607
  H        0.1138710     1.3396710    -1.2046940
  H        3.7876720    -0.8582410     0.1862610
  H        4.3593370     0.7487140     0.6762100
  H        3.1503700    -0.1123850     1.6481590
  H       -3.5474700    -0.2792990     1.1088070
units angstrom
no_reorient  #important for SAPT in psi4, default
symmetry c1  #important for SAPT in psi4, default
}

set PROPERTIES_ORIGIN ["COM"]
properties('MP2/aug-cc-pvtz', properties = ['dipole'])
--------------------------------------------------------------------------

    Molecular point group: c1
  Charge       = 0
  Multiplicity = 1
  Basis Set: AUG-CC-PVTZ
    Blend: AUG-CC-PVTZ
  Basis Set: (AUG-CC-PVTZ AUX)
    Blend: AUG-CC-PVTZ-JKFIT

    Orbital Energies [Eh]
    ---------------------

    Doubly Occupied:

       1A    -20.630446     2A    -20.559221     3A    -20.528222
       4A    -15.593235     5A    -11.399333     6A    -11.355921
       7A    -11.291278     8A    -11.243934     9A    -11.216174
      10A     -1.473096    11A     -1.384332    12A     -1.362558
      13A     -1.241200    14A     -1.063261    15A     -1.007667
      16A     -0.890593    17A     -0.828231    18A     -0.785764
      19A     -0.716541    20A     -0.713908    21A     -0.696749
      22A     -0.655323    23A     -0.645722    24A     -0.637035
      25A     -0.603448    26A     -0.597067    27A     -0.561815
      28A     -0.538885    29A     -0.525368    30A     -0.517102
      31A     -0.494262    32A     -0.487531    33A     -0.466663
      34A     -0.433731    35A     -0.409556

  @DF-RHF Final Energy:  -473.83787578467428

   => Energetics <=

    Nuclear Repulsion Energy =            457.7654489541662883
    One-Electron Energy =               -1556.0963065978019131
    Two-Electron Energy =                 624.4929818589614570
    Total Energy =                       -473.8378757846742246
  Basis Set: (AUG-CC-PVTZ AUX)
    Blend: AUG-CC-PVTZ-RI
    Molecular point group: c1

    Geometry (in Angstrom), charge = 0, multiplicity = 1:

       Center              X                  Y                   Z               Mass
    ------------   -----------------  -----------------  -----------------  -----------------
         O            1.086756674657    -1.260511367311     0.272585923178    15.994914619570
         O           -3.042303325343    -0.657947367311     0.360881923178    15.994914619570
         O           -1.717103325343     1.130442632689     0.857649923178    15.994914619570
         N            0.137163674657     0.334857632689    -1.056271076822    14.003074004430
         C            2.380510674657     0.733366632689    -0.177168076822    12.000000000000
         C            1.156795674657    -0.155666367311    -0.263903076822    12.000000000000
         C           -1.138318325343    -0.326367367311    -0.995972076822    12.000000000000
         C            3.492082674657     0.089553632689     0.634703923178    12.000000000000
         C           -1.992528625343     0.154097432689     0.157726323178    12.000000000000
         H            2.719802674657     0.959641632689    -1.194711076822     1.007825032230
         H            2.078082674657     1.691544632689     0.265357923178     1.007825032230
         H           -0.975682325343    -1.402978367311    -0.924551076822     1.007825032230
         H           -1.742013825343    -0.119212167311    -1.888877776822     1.007825032230
         H            0.117586674657     1.338193632689    -1.201811076822     1.007825032230
         H            3.791387674657    -0.859718367311     0.189143923178     1.007825032230
         H            4.363052674657     0.747236632689     0.679092923178     1.007825032230
         H            3.154085674657    -0.113862367311     1.651041923178     1.007825032230
         H           -3.543754325343    -0.280776367311     1.111689923178     1.007825032230

  Basis Set: AUG-CC-PVTZ
    Blend: AUG-CC-PVTZ
  Basis Set: (AUG-CC-PVTZ AUX)
    Blend: AUG-CC-PVTZ-JKFIT
	 Reference Energy          =    -473.8378757846742815 [Eh]
	 Singles Energy            =      -0.0000000000000000 [Eh]
	 Same-Spin Energy          =      -0.4669287343875790 [Eh]
	 Opposite-Spin Energy      =      -1.4578941979940194 [Eh]
	 Correlation Energy        =      -1.9248229323815984 [Eh]
	 Total Energy              =    -475.7626987170558550 [Eh]

	 ================> DF-SCS-MP2 Energies <==================
	-----------------------------------------------------------
	 SCS Same-Spin Scale       =       0.3333333333333333 [-]
	 SCS Opposite-Spin Scale   =       1.2000000000000000 [-]
	 SCS Same-Spin Energy      =      -0.1556429114625263 [Eh]
	 SCS Opposite-Spin Energy  =      -1.7494730375928234 [Eh]
	 SCS Correlation Energy    =      -1.9051159490553498 [Eh]
	 SCS Total Energy          =    -475.7429917337296388 [Eh]
	-----------------------------------------------------------

  Dipole Moment: [D]
     X:    -1.0780      Y:     1.8046      Z:    -1.7721     Total:     2.7494

*** Psi4 exiting successfully. Buy a developer a beer!
