                               Psi4 1.3.2 release

  ==> Input File <==

--------------------------------------------------------------------------
#psi4
#
memory 32 gb

molecule  {
0 1
  O        1.0830410    -1.2590340     0.2697030
  O       -3.0460190    -0.6564700     0.3579990
  O       -1.7208190     1.1319200     0.8547670
  N        0.1334480     0.3363350    -1.0591540
  C        2.3767950     0.7348440    -0.1800510
  C        1.1547355    -0.1535007    -0.2931674
  C       -1.1420340    -0.3248900    -0.9988550
  C        3.4883670     0.0910310     0.6318210
  C       -1.9580260     0.1406600     0.1881420
  H        2.7017225     0.9505679    -1.2045502
  H        2.0743670     1.6930220     0.2624750
  H       -0.9793980    -1.4015010    -0.9274340
  H       -1.7176060    -0.1322810    -1.9133280
  H        0.1138710     1.3396710    -1.2046940
  H        3.7876720    -0.8582410     0.1862610
  H        4.3593370     0.7487140     0.6762100
  H        3.1503700    -0.1123850     1.6481590
  H       -3.5474700    -0.2792990     1.1088070
units angstrom
no_reorient  #important for SAPT in psi4, default
symmetry c1  #important for SAPT in psi4, default
}

set PROPERTIES_ORIGIN ["COM"]
properties('MP2/aug-cc-pvtz', properties = ['dipole'])
--------------------------------------------------------------------------

    Molecular point group: c1
  Charge       = 0
  Multiplicity = 1
  Basis Set: AUG-CC-PVTZ
    Blend: AUG-CC-PVTZ
  Basis Set: (AUG-CC-PVTZ AUX)
    Blend: AUG-CC-PVTZ-JKFIT

    Orbital Energies [Eh]
    ---------------------

    Doubly Occupied:

       1A    -20.625996     2A    -20.563443     3A    -20.525348
       4A    -15.595455     5A    -11.399813     6A    -11.355833
       7A    -11.292319     8A    -11.244483     9A    -11.216376
      10A     -1.469045    11A     -1.378125    12A     -1.368347
      13A     -1.244613    14A     -1.063631    15A     -1.008257
      16A     -0.890487    17A     -0.826119    18A     -0.788778
      19A     -0.716733    20A     -0.712966    21A     -0.697378
      22A     -0.653748    23A     -0.644309    24A     -0.637378
      25A     -0.603989    26A     -0.596639    27A     -0.560471
      28A     -0.539322    29A     -0.525598    30A     -0.516353
      31A     -0.495396    32A     -0.491965    33A     -0.469196
      34A     -0.431862    35A     -0.409862

  @DF-RHF Final Energy:  -473.83854602398219

   => Energetics <=

    Nuclear Repulsion Energy =            457.9783871512941573
    One-Electron Energy =               -1556.5146045258979939
    Two-Electron Energy =                 624.6976713506217038
    Total Energy =                       -473.8385460239821896
  Basis Set: (AUG-CC-PVTZ AUX)
    Blend: AUG-CC-PVTZ-RI
    Molecular point group: c1

    Geometry (in Angstrom), charge = 0, multiplicity = 1:

       Center              X                  Y                   Z               Mass
    ------------   -----------------  -----------------  -----------------  -----------------
         O            1.082999930688    -1.259015759843     0.272171911046    15.994914619570
         O           -3.046060069312    -0.656451759843     0.360467911046    15.994914619570
         O           -1.720860069312     1.131938240157     0.857235911046    15.994914619570
         N            0.133406930688     0.336353240157    -1.056685088954    14.003074004430
         C            2.376753930688     0.734862240157    -0.177582088954    12.000000000000
         C            1.154694430688    -0.153482459843    -0.290698488954    12.000000000000
         C           -1.142075069312    -0.324871759843    -0.996386088954    12.000000000000
         C            3.488325930688     0.091049240157     0.634289911046    12.000000000000
         C           -1.958067069312     0.140678240157     0.190610911046    12.000000000000
         H            2.701681430688     0.950586140157    -1.202081288954     1.007825032230
         H            2.074325930688     1.693040240157     0.264943911046     1.007825032230
         H           -0.979439069312    -1.401482759843    -0.924965088954     1.007825032230
         H           -1.717647069312    -0.132262759843    -1.910859088954     1.007825032230
         H            0.113829930688     1.339689240157    -1.202225088954     1.007825032230
         H            3.787630930688    -0.858222759843     0.188729911046     1.007825032230
         H            4.359295930688     0.748732240157     0.678678911046     1.007825032230
         H            3.150328930688    -0.112366759843     1.650627911046     1.007825032230
         H           -3.547511069312    -0.279280759843     1.111275911046     1.007825032230

  Basis Set: AUG-CC-PVTZ
    Blend: AUG-CC-PVTZ
  Basis Set: (AUG-CC-PVTZ AUX)
    Blend: AUG-CC-PVTZ-JKFIT
	 Reference Energy          =    -473.8385460239821896 [Eh]
	 Singles Energy            =      -0.0000000000000000 [Eh]
	 Same-Spin Energy          =      -0.4669720847394652 [Eh]
	 Opposite-Spin Energy      =      -1.4581398493057485 [Eh]
	 Correlation Energy        =      -1.9251119340452136 [Eh]
	 Total Energy              =    -475.7636579580274088 [Eh]

	 ================> DF-SCS-MP2 Energies <==================
	-----------------------------------------------------------
	 SCS Same-Spin Scale       =       0.3333333333333333 [-]
	 SCS Opposite-Spin Scale   =       1.2000000000000000 [-]
	 SCS Same-Spin Energy      =      -0.1556573615798217 [Eh]
	 SCS Opposite-Spin Energy  =      -1.7497678191668982 [Eh]
	 SCS Correlation Energy    =      -1.9054251807467200 [Eh]
	 SCS Total Energy          =    -475.7439712047288936 [Eh]
	-----------------------------------------------------------

  Dipole Moment: [D]
     X:    -1.0213      Y:     1.9345      Z:    -1.8194     Total:     2.8453

*** Psi4 exiting successfully. Buy a developer a beer!
