                               Psi4 1.4a3.dev225

  ==> Input File <==

--------------------------------------------------------------------------
#psi4
#
memory 32 gb

molecule  {
0 1
  O        0.8764270    -0.2428500     1.2911470
  O       -3.1675390     0.0980960     0.5443480
  O       -1.5839830     1.3406500    -0.5070920
  N        0.0834400    -0.8734940    -0.7544630
  C        2.2681300     0.2178930    -0.6380450
  C        1.0330250    -0.3000120     0.0721840
  C       -1.2394860    -1.0499030    -0.2084880
  C        3.4385850     0.4137260     0.3159750
  C       -1.9785770     0.2694000    -0.0851210
  H        2.5310470    -0.4685700    -1.4513520
  H        1.9929790     1.1708880    -1.1091590
  H       -1.1549390    -1.4972460     0.7835340
  H       -1.8123820    -1.7183938    -0.8245860
  H        0.1282230    -0.6025030    -1.7308050
  H        3.7379630    -0.5375510     0.7615240
  H        4.2975370     0.8343390    -0.2133880
  H        3.1581410     1.0869690     1.1269820
  H       -3.5812870     0.9851770     0.5837010
units angstrom
no_reorient  #important for SAPT in psi4, default
symmetry c1  #important for SAPT in psi4, default
}

set PROPERTIES_ORIGIN ["COM"]
properties('MP2/aug-cc-pvtz', properties = ['dipole'])
--------------------------------------------------------------------------

    Molecular point group: c1
  Charge       = 0
  Multiplicity = 1
  Basis Set: AUG-CC-PVTZ
    Blend: AUG-CC-PVTZ
  Basis Set: (AUG-CC-PVTZ AUX)
    Blend: AUG-CC-PVTZ-JKFIT

    Orbital Energies [Eh]
    ---------------------

    Doubly Occupied:

       1A    -20.624700     2A    -20.560851     3A    -20.527548
       4A    -15.593303     5A    -11.397587     6A    -11.355123
       7A    -11.289718     8A    -11.243677     9A    -11.217395
      10A     -1.469169    11A     -1.383687    12A     -1.366709
      13A     -1.241146    14A     -1.062380    15A     -1.006110
      16A     -0.888955    17A     -0.825332    18A     -0.784333
      19A     -0.715962    20A     -0.710844    21A     -0.699517
      22A     -0.653364    23A     -0.646443    24A     -0.630337
      25A     -0.604092    26A     -0.599346    27A     -0.560411
      28A     -0.544283    29A     -0.524022    30A     -0.515083
      31A     -0.495023    32A     -0.489617    33A     -0.468903
      34A     -0.432482    35A     -0.411136

  @DF-RHF Final Energy:  -473.83990718012257

   => Energetics <=

    Nuclear Repulsion Energy =            460.5768946216235236
    One-Electron Energy =               -1561.7564302055034204
    Two-Electron Energy =                 627.3396284037572741
    Total Energy =                       -473.8399071801226228
  Basis Set: (AUG-CC-PVTZ AUX)
    Blend: AUG-CC-PVTZ-RI
    Molecular point group: c1

    Geometry (in Angstrom), charge = 0, multiplicity = 1:

       Center              X                  Y                   Z               Mass
    ------------   -----------------  -----------------  -----------------  -----------------
         O            0.946496912587    -0.248627324849     1.275343516715    15.994914619570
         O           -3.097469087413     0.092318675151     0.528544516715    15.994914619570
         O           -1.513913087413     1.334872675151    -0.522895483285    15.994914619570
         N            0.153509912587    -0.879271324849    -0.770266483285    14.003074004430
         C            2.338199912587     0.212115675151    -0.653848483285    12.000000000000
         C            1.103094912587    -0.305789324849     0.056380516715    12.000000000000
         C           -1.169416087413    -1.055680324849    -0.224291483285    12.000000000000
         C            3.508654912587     0.407948675151     0.300171516715    12.000000000000
         C           -1.908507087413     0.263622675151    -0.100924483285    12.000000000000
         H            2.601116912587    -0.474347324849    -1.467155483285     1.007825032230
         H            2.063048912587     1.165110675151    -1.124962483285     1.007825032230
         H           -1.084869087413    -1.503023324849     0.767730516715     1.007825032230
         H           -1.742312087413    -1.724171124849    -0.840389483285     1.007825032230
         H            0.198292912587    -0.608280324849    -1.746608483285     1.007825032230
         H            3.808032912587    -0.543328324849     0.745720516715     1.007825032230
         H            4.367606912587     0.828561675151    -0.229191483285     1.007825032230
         H            3.228210912587     1.081191675151     1.111178516715     1.007825032230
         H           -3.511217087413     0.979399675151     0.567897516715     1.007825032230

  Basis Set: AUG-CC-PVTZ
    Blend: AUG-CC-PVTZ
  Basis Set: (AUG-CC-PVTZ AUX)
    Blend: AUG-CC-PVTZ-JKFIT
	 Reference Energy          =    -473.8399071801225659 [Eh]
	 Singles Energy            =      -0.0000000000000000 [Eh]
	 Same-Spin Energy          =      -0.4668061717817038 [Eh]
	 Opposite-Spin Energy      =      -1.4578514374147733 [Eh]
	 Correlation Energy        =      -1.9246576091964771 [Eh]
	 Total Energy              =    -475.7645647893190244 [Eh]

	 ================> DF-SCS-MP2 Energies <==================
	-----------------------------------------------------------
	 SCS Same-Spin Scale       =       0.3333333333333333 [-]
	 SCS Opposite-Spin Scale   =       1.2000000000000000 [-]
	 SCS Same-Spin Energy      =      -0.1556020572605679 [Eh]
	 SCS Opposite-Spin Energy  =      -1.7494217248977280 [Eh]
	 SCS Correlation Energy    =      -1.9050237821582958 [Eh]
	 SCS Total Energy          =    -475.7449309622808755 [Eh]
	-----------------------------------------------------------

  Dipole Moment: [D]
     X:    -0.9091      Y:    -0.7851      Z:    -2.6638     Total:     2.9221

*** Psi4 exiting successfully. Buy a developer a beer!
