                               Psi4 1.3.2 release

  ==> Input File <==

--------------------------------------------------------------------------
#psi4
#
memory 32 gb

molecule  {
0 1
  O        1.0830410    -1.2590340     0.2697030
  O       -3.0460190    -0.6564700     0.3579990
  O       -1.7208190     1.1319200     0.8547670
  N        0.1441536     0.3179240    -1.0137050
  C        2.3767950     0.7348440    -0.1800510
  C        1.1530800    -0.1541890    -0.2667860
  C       -1.1420340    -0.3248900    -0.9988550
  C        3.4883670     0.0910310     0.6318210
  C       -1.9580260     0.1406600     0.1881420
  H        2.7160870     0.9611190    -1.1975940
  H        2.0743670     1.6930220     0.2624750
  H       -0.9793980    -1.4015010    -0.9274340
  H       -1.7460255    -0.1537055    -1.8991507
  H        0.1138710     1.3396710    -1.2046940
  H        3.7876720    -0.8582410     0.1862610
  H        4.3593370     0.7487140     0.6762100
  H        3.1503700    -0.1123850     1.6481590
  H       -3.5474700    -0.2792990     1.1088070
units angstrom
no_reorient  #important for SAPT in psi4, default
symmetry c1  #important for SAPT in psi4, default
}

set PROPERTIES_ORIGIN ["COM"]
properties('MP2/aug-cc-pvtz', properties = ['dipole'])
--------------------------------------------------------------------------

    Molecular point group: c1
  Charge       = 0
  Multiplicity = 1
  Basis Set: AUG-CC-PVTZ
    Blend: AUG-CC-PVTZ
  Basis Set: (AUG-CC-PVTZ AUX)
    Blend: AUG-CC-PVTZ-JKFIT

    Orbital Energies [Eh]
    ---------------------

    Doubly Occupied:

       1A    -20.625845     2A    -20.563216     3A    -20.520517
       4A    -15.596425     5A    -11.399440     6A    -11.350287
       7A    -11.293208     8A    -11.243010     9A    -11.215275
      10A     -1.469000    11A     -1.384708    12A     -1.368801
      13A     -1.245538    14A     -1.063760    15A     -1.010491
      16A     -0.888772    17A     -0.826866    18A     -0.786259
      19A     -0.717115    20A     -0.713220    21A     -0.698666
      22A     -0.657918    23A     -0.643785    24A     -0.637555
      25A     -0.603693    26A     -0.596943    27A     -0.556404
      28A     -0.541815    29A     -0.525043    30A     -0.516054
      31A     -0.495191    32A     -0.491633    33A     -0.468936
      34A     -0.429973    35A     -0.408776

  @DF-RHF Final Energy:  -473.83770587944520

   => Energetics <=

    Nuclear Repulsion Energy =            458.9874391260683524
    One-Electron Energy =               -1558.5420139726979869
    Two-Electron Energy =                 625.7168689671846096
    Total Energy =                       -473.8377058794451386
  Basis Set: (AUG-CC-PVTZ AUX)
    Blend: AUG-CC-PVTZ-RI
    Molecular point group: c1

    Geometry (in Angstrom), charge = 0, multiplicity = 1:

       Center              X                  Y                   Z               Mass
    ------------   -----------------  -----------------  -----------------  -----------------
         O            1.082115741144    -1.256901976891     0.264737801162    15.994914619570
         O           -3.046944258856    -0.654337976891     0.353033801162    15.994914619570
         O           -1.721744258856     1.134052023109     0.849801801162    15.994914619570
         N            0.143228341144     0.320056023109    -1.018670198838    14.003074004430
         C            2.375869741144     0.736976023109    -0.185016198838    12.000000000000
         C            1.152154741144    -0.152056976891    -0.271751198838    12.000000000000
         C           -1.142959258856    -0.322757976891    -1.003820198838    12.000000000000
         C            3.487441741144     0.093163023109     0.626855801162    12.000000000000
         C           -1.958951258856     0.142792023109     0.183176801162    12.000000000000
         H            2.715161741144     0.963251023109    -1.202559198838     1.007825032230
         H            2.073441741144     1.695154023109     0.257509801162     1.007825032230
         H           -0.980323258856    -1.399368976891    -0.932399198838     1.007825032230
         H           -1.746950758856    -0.151573476891    -1.904115898838     1.007825032230
         H            0.112945741144     1.341803023109    -1.209659198838     1.007825032230
         H            3.786746741144    -0.856108976891     0.181295801162     1.007825032230
         H            4.358411741144     0.750846023109     0.671244801162     1.007825032230
         H            3.149444741144    -0.110252976891     1.643193801162     1.007825032230
         H           -3.548395258856    -0.277166976891     1.103841801162     1.007825032230

  Basis Set: AUG-CC-PVTZ
    Blend: AUG-CC-PVTZ
  Basis Set: (AUG-CC-PVTZ AUX)
    Blend: AUG-CC-PVTZ-JKFIT
	 Reference Energy          =    -473.8377058794451955 [Eh]
	 Singles Energy            =      -0.0000000000000000 [Eh]
	 Same-Spin Energy          =      -0.4669345364004127 [Eh]
	 Opposite-Spin Energy      =      -1.4575349059005305 [Eh]
	 Correlation Energy        =      -1.9244694423009432 [Eh]
	 Total Energy              =    -475.7621753217461560 [Eh]

	 ================> DF-SCS-MP2 Energies <==================
	-----------------------------------------------------------
	 SCS Same-Spin Scale       =       0.3333333333333333 [-]
	 SCS Opposite-Spin Scale   =       1.2000000000000000 [-]
	 SCS Same-Spin Energy      =      -0.1556448454668042 [Eh]
	 SCS Opposite-Spin Energy  =      -1.7490418870806366 [Eh]
	 SCS Correlation Energy    =      -1.9046867325474408 [Eh]
	 SCS Total Energy          =    -475.7423926119926136 [Eh]
	-----------------------------------------------------------

  Dipole Moment: [D]
     X:    -1.1106      Y:     1.9703      Z:    -1.9302     Total:     2.9734

*** Psi4 exiting successfully. Buy a developer a beer!
