                               Psi4 1.3.2 release

  ==> Input File <==

--------------------------------------------------------------------------
#psi4
#
memory 32 gb

molecule  {
0 1
  O        1.0830410    -1.2590340     0.2697030
  O       -3.0460190    -0.6564700     0.3579990
  O       -1.7208190     1.1319200     0.8547670
  N        0.1334480     0.3363350    -1.0591540
  C        2.3767950     0.7348440    -0.1800510
  C        1.1530800    -0.1541890    -0.2667860
  C       -1.1420340    -0.3248900    -0.9988550
  C        3.4883670     0.0910310     0.6318210
  C       -1.9188135     0.1251780     0.2199945
  H        2.7160870     0.9611190    -1.1975940
  H        2.0743670     1.6930220     0.2624750
  H       -0.9793980    -1.4015010    -0.9274340
  H       -1.6887812    -0.1470618    -1.9337811
  H        0.1138710     1.3396710    -1.2046940
  H        3.7876720    -0.8582410     0.1862610
  H        4.3593370     0.7487140     0.6762100
  H        3.1503700    -0.1123850     1.6481590
  H       -3.5474700    -0.2792990     1.1088070
units angstrom
no_reorient  #important for SAPT in psi4, default
symmetry c1  #important for SAPT in psi4, default
}

set PROPERTIES_ORIGIN ["COM"]
properties('MP2/aug-cc-pvtz', properties = ['dipole'])
--------------------------------------------------------------------------

    Molecular point group: c1
  Charge       = 0
  Multiplicity = 1
  Basis Set: AUG-CC-PVTZ
    Blend: AUG-CC-PVTZ
  Basis Set: (AUG-CC-PVTZ AUX)
    Blend: AUG-CC-PVTZ-JKFIT

    Orbital Energies [Eh]
    ---------------------

    Doubly Occupied:

       1A    -20.620252     2A    -20.567066     3A    -20.529495
       4A    -15.592605     5A    -11.399547     6A    -11.356409
       7A    -11.291060     8A    -11.244618     9A    -11.216865
      10A     -1.465054    11A     -1.385451    12A     -1.371161
      13A     -1.242734    14A     -1.063866    15A     -1.004963
      16A     -0.888954    17A     -0.821309    18A     -0.785682
      19A     -0.716801    20A     -0.711398    21A     -0.699443
      22A     -0.651154    23A     -0.642845    24A     -0.636687
      25A     -0.606202    26A     -0.600215    27A     -0.557265
      28A     -0.541941    29A     -0.525199    30A     -0.517837
      31A     -0.497565    32A     -0.493694    33A     -0.471215
      34A     -0.434475    35A     -0.410816

  @DF-RHF Final Energy:  -473.83701424433355

   => Energetics <=

    Nuclear Repulsion Energy =            458.2340698237191532
    One-Electron Energy =               -1557.0184815936884206
    Two-Electron Energy =                 624.9473975256356653
    Total Energy =                       -473.8370142443335453
  Basis Set: (AUG-CC-PVTZ AUX)
    Blend: AUG-CC-PVTZ-RI
    Molecular point group: c1

    Geometry (in Angstrom), charge = 0, multiplicity = 1:

       Center              X                  Y                   Z               Mass
    ------------   -----------------  -----------------  -----------------  -----------------
         O            1.079229002238    -1.257502643287     0.266943668473    15.994914619570
         O           -3.049830997762    -0.654938643287     0.355239668473    15.994914619570
         O           -1.724630997762     1.133451356713     0.852007668473    15.994914619570
         N            0.129636002238     0.337866356713    -1.061913331527    14.003074004430
         C            2.372983002238     0.736375356713    -0.182810331527    12.000000000000
         C            1.149268002238    -0.152657643287    -0.269545331527    12.000000000000
         C           -1.145845997762    -0.323358643287    -1.001614331527    12.000000000000
         C            3.484555002238     0.092562356713     0.629061668473    12.000000000000
         C           -1.922625497762     0.126709356713     0.217235168473    12.000000000000
         H            2.712275002238     0.962650356713    -1.200353331527     1.007825032230
         H            2.070555002238     1.694553356713     0.259715668473     1.007825032230
         H           -0.983209997762    -1.399969643287    -0.930193331527     1.007825032230
         H           -1.692593197762    -0.145530443287    -1.936540431527     1.007825032230
         H            0.110059002238     1.341202356713    -1.207453331527     1.007825032230
         H            3.783860002238    -0.856709643287     0.183501668473     1.007825032230
         H            4.355525002238     0.750245356713     0.673450668473     1.007825032230
         H            3.146558002238    -0.110853643287     1.645399668473     1.007825032230
         H           -3.551281997762    -0.277767643287     1.106047668473     1.007825032230

  Basis Set: AUG-CC-PVTZ
    Blend: AUG-CC-PVTZ
  Basis Set: (AUG-CC-PVTZ AUX)
    Blend: AUG-CC-PVTZ-JKFIT
	 Reference Energy          =    -473.8370142443335453 [Eh]
	 Singles Energy            =      -0.0000000000000000 [Eh]
	 Same-Spin Energy          =      -0.4667940218213021 [Eh]
	 Opposite-Spin Energy      =      -1.4581417172687146 [Eh]
	 Correlation Energy        =      -1.9249357390900168 [Eh]
	 Total Energy              =    -475.7619499834235626 [Eh]

	 ================> DF-SCS-MP2 Energies <==================
	-----------------------------------------------------------
	 SCS Same-Spin Scale       =       0.3333333333333333 [-]
	 SCS Opposite-Spin Scale   =       1.2000000000000000 [-]
	 SCS Same-Spin Energy      =      -0.1555980072737674 [Eh]
	 SCS Opposite-Spin Energy  =      -1.7497700607224573 [Eh]
	 SCS Correlation Energy    =      -1.9053680679962248 [Eh]
	 SCS Total Energy          =    -475.7423823123297666 [Eh]
	-----------------------------------------------------------

  Dipole Moment: [D]
     X:    -0.8044      Y:     1.9502      Z:    -1.7233     Total:     2.7240

*** Psi4 exiting successfully. Buy a developer a beer!
