                               Psi4 1.3.2 release

  ==> Input File <==

--------------------------------------------------------------------------
#psi4
#
memory 32 gb

molecule  {
0 1
  O        1.0233681    -1.2648031     0.2461657
  O       -3.0460190    -0.6564700     0.3579990
  O       -1.7208190     1.1319200     0.8547670
  N        0.1334480     0.3363350    -1.0591540
  C        2.3385552     0.7882759    -0.2244832
  C        1.1530800    -0.1541890    -0.2667860
  C       -1.1420340    -0.3248900    -0.9988550
  C        3.4883670     0.0910310     0.6318210
  C       -1.9580260     0.1406600     0.1881420
  H        2.7160870     0.9611190    -1.1975940
  H        2.0743670     1.6930220     0.2624750
  H       -0.9793980    -1.4015010    -0.9274340
  H       -1.7176060    -0.1322810    -1.9133280
  H        0.1138710     1.3396710    -1.2046940
  H        3.7876720    -0.8582410     0.1862610
  H        4.3593370     0.7487140     0.6762100
  H        3.1503700    -0.1123850     1.6481590
  H       -3.5474700    -0.2792990     1.1088070
units angstrom
no_reorient  #important for SAPT in psi4, default
symmetry c1  #important for SAPT in psi4, default
}

set PROPERTIES_ORIGIN ["COM"]
properties('MP2/aug-cc-pvtz', properties = ['dipole'])
--------------------------------------------------------------------------

    Molecular point group: c1
  Charge       = 0
  Multiplicity = 1
  Basis Set: AUG-CC-PVTZ
    Blend: AUG-CC-PVTZ
  Basis Set: (AUG-CC-PVTZ AUX)
    Blend: AUG-CC-PVTZ-JKFIT

    Orbital Energies [Eh]
    ---------------------

    Doubly Occupied:

       1A    -20.624080     2A    -20.561340     3A    -20.530147
       4A    -15.588217     5A    -11.397318     6A    -11.357250
       7A    -11.287447     8A    -11.244394     9A    -11.221920
      10A     -1.467048    11A     -1.386559    12A     -1.367163
      13A     -1.237935    14A     -1.060826    15A     -1.000765
      16A     -0.890791    17A     -0.825118    18A     -0.784374
      19A     -0.715242    20A     -0.713669    21A     -0.698363
      22A     -0.652406    23A     -0.644893    24A     -0.642515
      25A     -0.603571    26A     -0.598087    27A     -0.556096
      28A     -0.540219    29A     -0.525745    30A     -0.510345
      31A     -0.499991    32A     -0.491092    33A     -0.467823
      34A     -0.436374    35A     -0.407728

  @DF-RHF Final Energy:  -473.83264757724368

   => Energetics <=

    Nuclear Repulsion Energy =            458.0893660970132828
    One-Electron Energy =               -1556.7703229753851701
    Two-Electron Energy =                 624.8483093011283245
    Total Energy =                       -473.8326475772436197
  Basis Set: (AUG-CC-PVTZ AUX)
    Blend: AUG-CC-PVTZ-RI
    Molecular point group: c1

    Geometry (in Angstrom), charge = 0, multiplicity = 1:

       Center              X                  Y                   Z               Mass
    ------------   -----------------  -----------------  -----------------  -----------------
         O            1.034152215001    -1.268991238531     0.253106485971    15.994914619570
         O           -3.035234884999    -0.660658138531     0.364939785971    15.994914619570
         O           -1.710034884999     1.127731861469     0.861707785971    15.994914619570
         N            0.144232115001     0.332146861469    -1.052213214029    14.003074004430
         C            2.349339315001     0.784087761469    -0.217542414029    12.000000000000
         C            1.163864115001    -0.158377138531    -0.259845214029    12.000000000000
         C           -1.131249884999    -0.329078138531    -0.991914214029    12.000000000000
         C            3.499151115001     0.086842861469     0.638761785971    12.000000000000
         C           -1.947241884999     0.136471861469     0.195082785971    12.000000000000
         H            2.726871115001     0.956930861469    -1.190653214029     1.007825032230
         H            2.085151115001     1.688833861469     0.269415785971     1.007825032230
         H           -0.968613884999    -1.405689138531    -0.920493214029     1.007825032230
         H           -1.706821884999    -0.136469138531    -1.906387214029     1.007825032230
         H            0.124655115001     1.335482861469    -1.197753214029     1.007825032230
         H            3.798456115001    -0.862429138531     0.193201785971     1.007825032230
         H            4.370121115001     0.744525861469     0.683150785971     1.007825032230
         H            3.161154115001    -0.116573138531     1.655099785971     1.007825032230
         H           -3.536685884999    -0.283487138531     1.115747785971     1.007825032230

  Basis Set: AUG-CC-PVTZ
    Blend: AUG-CC-PVTZ
  Basis Set: (AUG-CC-PVTZ AUX)
    Blend: AUG-CC-PVTZ-JKFIT
	 Reference Energy          =    -473.8326475772436766 [Eh]
	 Singles Energy            =      -0.0000000000000000 [Eh]
	 Same-Spin Energy          =      -0.4667317721585106 [Eh]
	 Opposite-Spin Energy      =      -1.4581502990365856 [Eh]
	 Correlation Energy        =      -1.9248820711950962 [Eh]
	 Total Energy              =    -475.7575296484387763 [Eh]

	 ================> DF-SCS-MP2 Energies <==================
	-----------------------------------------------------------
	 SCS Same-Spin Scale       =       0.3333333333333333 [-]
	 SCS Opposite-Spin Scale   =       1.2000000000000000 [-]
	 SCS Same-Spin Energy      =      -0.1555772573861702 [Eh]
	 SCS Opposite-Spin Energy  =      -1.7497803588439027 [Eh]
	 SCS Correlation Energy    =      -1.9053576162300729 [Eh]
	 SCS Total Energy          =    -475.7380051934737253 [Eh]
	-----------------------------------------------------------

  Dipole Moment: [D]
     X:    -0.7652      Y:     1.8961      Z:    -1.6987     Total:     2.6583

*** Psi4 exiting successfully. Buy a developer a beer!
