                               Psi4 1.3.2 release

  ==> Input File <==

--------------------------------------------------------------------------
#psi4
#
memory 32 gb

molecule  {
0 1
  O        1.0830410    -1.2590340     0.2697030
  O       -3.0460190    -0.6564700     0.3579990
  O       -1.7208190     1.1319200     0.8547670
  N        0.1334480     0.3363350    -1.0591540
  C        2.3767950     0.7348440    -0.1800510
  C        1.1592586    -0.1633086    -0.2594745
  C       -1.1420340    -0.3248900    -0.9988550
  C        3.4806788     0.0804122     0.6338183
  C       -1.9580260     0.1406600     0.1881420
  H        2.7160870     0.9611190    -1.1975940
  H        2.0743670     1.6930220     0.2624750
  H       -0.9793980    -1.4015010    -0.9274340
  H       -1.7176060    -0.1322810    -1.9133280
  H        0.1138710     1.3396710    -1.2046940
  H        3.7876720    -0.8582410     0.1862610
  H        4.3593370     0.7487140     0.6762100
  H        3.1503700    -0.1123850     1.6481590
  H       -3.5474700    -0.2792990     1.1088070
units angstrom
no_reorient  #important for SAPT in psi4, default
symmetry c1  #important for SAPT in psi4, default
}

set PROPERTIES_ORIGIN ["COM"]
properties('MP2/aug-cc-pvtz', properties = ['dipole'])
--------------------------------------------------------------------------

    Molecular point group: c1
  Charge       = 0
  Multiplicity = 1
  Basis Set: AUG-CC-PVTZ
    Blend: AUG-CC-PVTZ
  Basis Set: (AUG-CC-PVTZ AUX)
    Blend: AUG-CC-PVTZ-JKFIT

    Orbital Energies [Eh]
    ---------------------

    Doubly Occupied:

       1A    -20.624934     2A    -20.562275     3A    -20.531505
       4A    -15.590229     5A    -11.398090     6A    -11.355938
       7A    -11.289620     8A    -11.244220     9A    -11.216790
      10A     -1.467927    11A     -1.391659    12A     -1.368222
      13A     -1.238901    14A     -1.063655    15A     -1.004144
      16A     -0.889128    17A     -0.823352    18A     -0.783292
      19A     -0.715400    20A     -0.712850    21A     -0.698677
      22A     -0.652524    23A     -0.644294    24A     -0.637998
      25A     -0.605061    26A     -0.600585    27A     -0.558832
      28A     -0.542966    29A     -0.522459    30A     -0.518568
      31A     -0.497709    32A     -0.491708    33A     -0.469099
      34A     -0.435281    35A     -0.409588

  @DF-RHF Final Energy:  -473.83996706081882

   => Energetics <=

    Nuclear Repulsion Energy =            458.1237620312650733
    One-Electron Energy =               -1556.8125002420249530
    Two-Electron Energy =                 624.8487711499409443
    Total Energy =                       -473.8399670608188217
  Basis Set: (AUG-CC-PVTZ AUX)
    Blend: AUG-CC-PVTZ-RI
    Molecular point group: c1

    Geometry (in Angstrom), charge = 0, multiplicity = 1:

       Center              X                  Y                   Z               Mass
    ------------   -----------------  -----------------  -----------------  -----------------
         O            1.083179273068    -1.257226580226     0.268850540165    15.994914619570
         O           -3.045880726932    -0.654662580226     0.357146540165    15.994914619570
         O           -1.720680726932     1.133727419774     0.853914540165    15.994914619570
         N            0.133586273068     0.338142419774    -1.060006459835    14.003074004430
         C            2.376933273068     0.736651419774    -0.180903459835    12.000000000000
         C            1.159396873068    -0.161501180226    -0.260326959835    12.000000000000
         C           -1.141895726932    -0.323082580226    -0.999707459835    12.000000000000
         C            3.480817073068     0.082219619774     0.632965840165    12.000000000000
         C           -1.957887726932     0.142467419774     0.187289540165    12.000000000000
         H            2.716225273068     0.962926419774    -1.198446459835     1.007825032230
         H            2.074505273068     1.694829419774     0.261622540165     1.007825032230
         H           -0.979259726932    -1.399693580226    -0.928286459835     1.007825032230
         H           -1.717467726932    -0.130473580226    -1.914180459835     1.007825032230
         H            0.114009273068     1.341478419774    -1.205546459835     1.007825032230
         H            3.787810273068    -0.856433580226     0.185408540165     1.007825032230
         H            4.359475273068     0.750521419774     0.675357540165     1.007825032230
         H            3.150508273068    -0.110577580226     1.647306540165     1.007825032230
         H           -3.547331726932    -0.277491580226     1.107954540165     1.007825032230

  Basis Set: AUG-CC-PVTZ
    Blend: AUG-CC-PVTZ
  Basis Set: (AUG-CC-PVTZ AUX)
    Blend: AUG-CC-PVTZ-JKFIT
	 Reference Energy          =    -473.8399670608188217 [Eh]
	 Singles Energy            =      -0.0000000000000000 [Eh]
	 Same-Spin Energy          =      -0.4665333232529850 [Eh]
	 Opposite-Spin Energy      =      -1.4573517734407408 [Eh]
	 Correlation Energy        =      -1.9238850966937258 [Eh]
	 Total Energy              =    -475.7638521575125310 [Eh]

	 ================> DF-SCS-MP2 Energies <==================
	-----------------------------------------------------------
	 SCS Same-Spin Scale       =       0.3333333333333333 [-]
	 SCS Opposite-Spin Scale   =       1.2000000000000000 [-]
	 SCS Same-Spin Energy      =      -0.1555111077509950 [Eh]
	 SCS Opposite-Spin Energy  =      -1.7488221281288889 [Eh]
	 SCS Correlation Energy    =      -1.9043332358798839 [Eh]
	 SCS Total Energy          =    -475.7443002966987251 [Eh]
	-----------------------------------------------------------

  Dipole Moment: [D]
     X:    -0.8789      Y:     1.8147      Z:    -1.6891     Total:     2.6303

*** Psi4 exiting successfully. Buy a developer a beer!
