                               Psi4 1.3.2 release

  ==> Input File <==

--------------------------------------------------------------------------
#psi4
#
memory 32 gb

molecule  {
0 1
  O        1.1229397    -1.2535042     0.2845814
  O       -3.0460190    -0.6564700     0.3579990
  O       -1.7208190     1.1319200     0.8547670
  N        0.1334480     0.3363350    -1.0591540
  C        2.4004309     0.6978596    -0.1505541
  C        1.1530800    -0.1541890    -0.2667860
  C       -1.1420340    -0.3248900    -0.9988550
  C        3.4883670     0.0910310     0.6318210
  C       -1.9580260     0.1406600     0.1881420
  H        2.7160870     0.9611190    -1.1975940
  H        2.0743670     1.6930220     0.2624750
  H       -0.9793980    -1.4015010    -0.9274340
  H       -1.7176060    -0.1322810    -1.9133280
  H        0.1138710     1.3396710    -1.2046940
  H        3.7876720    -0.8582410     0.1862610
  H        4.3593370     0.7487140     0.6762100
  H        3.1503700    -0.1123850     1.6481590
  H       -3.5474700    -0.2792990     1.1088070
units angstrom
no_reorient  #important for SAPT in psi4, default
symmetry c1  #important for SAPT in psi4, default
}

set PROPERTIES_ORIGIN ["COM"]
properties('MP2/aug-cc-pvtz', properties = ['dipole'])
--------------------------------------------------------------------------

    Molecular point group: c1
  Charge       = 0
  Multiplicity = 1
  Basis Set: AUG-CC-PVTZ
    Blend: AUG-CC-PVTZ
  Basis Set: (AUG-CC-PVTZ AUX)
    Blend: AUG-CC-PVTZ-JKFIT

    Orbital Energies [Eh]
    ---------------------

    Doubly Occupied:

       1A    -20.626477     2A    -20.564031     3A    -20.527824
       4A    -15.595925     5A    -11.400117     6A    -11.355785
       7A    -11.293213     8A    -11.245107     9A    -11.212860
      10A     -1.469562    11A     -1.384270    12A     -1.369593
      13A     -1.244599    14A     -1.066726    15A     -1.009854
      16A     -0.889037    17A     -0.824481    18A     -0.786637
      19A     -0.717117    20A     -0.712655    21A     -0.697677
      22A     -0.655007    23A     -0.644705    24A     -0.633652
      25A     -0.604908    26A     -0.600897    27A     -0.562158
      28A     -0.542637    29A     -0.536887    30A     -0.514542
      31A     -0.494014    32A     -0.482215    33A     -0.469772
      34A     -0.431204    35A     -0.411619

  @DF-RHF Final Energy:  -473.83549652438211

   => Energetics <=

    Nuclear Repulsion Energy =            458.0812395478898793
    One-Electron Energy =               -1556.6779455931350640
    Two-Electron Energy =                 624.7612095208629626
    Total Energy =                       -473.8354965243821653
  Basis Set: (AUG-CC-PVTZ AUX)
    Blend: AUG-CC-PVTZ-RI
    Molecular point group: c1

    Geometry (in Angstrom), charge = 0, multiplicity = 1:

       Center              X                  Y                   Z               Mass
    ------------   -----------------  -----------------  -----------------  -----------------
         O            1.115906182288    -1.250792576734     0.280064646137    15.994914619570
         O           -3.053052517712    -0.653758376734     0.353482246137    15.994914619570
         O           -1.727852517712     1.134631623266     0.850250246137    15.994914619570
         N            0.126414482288     0.339046623266    -1.063670753863    14.003074004430
         C            2.393397382288     0.700571223266    -0.155070853863    12.000000000000
         C            1.146046482288    -0.151477376734    -0.271302753863    12.000000000000
         C           -1.149067517712    -0.322178376734    -1.003371753863    12.000000000000
         C            3.481333482288     0.093742623266     0.627304246137    12.000000000000
         C           -1.965059517712     0.143371623266     0.183625246137    12.000000000000
         H            2.709053482288     0.963830623266    -1.202110753863     1.007825032230
         H            2.067333482288     1.695733623266     0.257958246137     1.007825032230
         H           -0.986431517712    -1.398789376734    -0.931950753863     1.007825032230
         H           -1.724639517712    -0.129569376734    -1.917844753863     1.007825032230
         H            0.106837482288     1.342382623266    -1.209210753863     1.007825032230
         H            3.780638482288    -0.855529376734     0.181744246137     1.007825032230
         H            4.352303482288     0.751425623266     0.671693246137     1.007825032230
         H            3.143336482288    -0.109673376734     1.643642246137     1.007825032230
         H           -3.554503517712    -0.276587376734     1.104290246137     1.007825032230

  Basis Set: AUG-CC-PVTZ
    Blend: AUG-CC-PVTZ
  Basis Set: (AUG-CC-PVTZ AUX)
    Blend: AUG-CC-PVTZ-JKFIT
	 Reference Energy          =    -473.8354965243821084 [Eh]
	 Singles Energy            =      -0.0000000000000000 [Eh]
	 Same-Spin Energy          =      -0.4670704529636575 [Eh]
	 Opposite-Spin Energy      =      -1.4580993386171970 [Eh]
	 Correlation Energy        =      -1.9251697915808546 [Eh]
	 Total Energy              =    -475.7606663159629647 [Eh]

	 ================> DF-SCS-MP2 Energies <==================
	-----------------------------------------------------------
	 SCS Same-Spin Scale       =       0.3333333333333333 [-]
	 SCS Opposite-Spin Scale   =       1.2000000000000000 [-]
	 SCS Same-Spin Energy      =      -0.1556901509878858 [Eh]
	 SCS Opposite-Spin Energy  =      -1.7497192063406364 [Eh]
	 SCS Correlation Energy    =      -1.9054093573285222 [Eh]
	 SCS Total Energy          =    -475.7409058817106029 [Eh]
	-----------------------------------------------------------

  Dipole Moment: [D]
     X:    -1.0683      Y:     1.8483      Z:    -1.7682     Total:     2.7720

*** Psi4 exiting successfully. Buy a developer a beer!
