                               Psi4 1.3.2 release

  ==> Input File <==

--------------------------------------------------------------------------
#psi4
#
memory 32 gb

molecule  {
0 1
  O        1.0830410    -1.2590340     0.2697030
  O       -3.0460190    -0.6564700     0.3579990
  O       -1.7208190     1.1319200     0.8547670
  N        0.1334480     0.3363350    -1.0591540
  C        2.3767950     0.7348440    -0.1800510
  C        1.1073596    -0.2046934    -0.2425178
  C       -1.1127424    -0.3725093    -0.9484383
  C        3.4883670     0.0910310     0.6318210
  C       -1.9580260     0.1406600     0.1881420
  H        2.7160870     0.9611190    -1.1975940
  H        2.0743670     1.6930220     0.2624750
  H       -0.9793980    -1.4015010    -0.9274340
  H       -1.7176060    -0.1322810    -1.9133280
  H        0.1138710     1.3396710    -1.2046940
  H        3.7876720    -0.8582410     0.1862610
  H        4.3593370     0.7487140     0.6762100
  H        3.1503700    -0.1123850     1.6481590
  H       -3.5474700    -0.2792990     1.1088070
units angstrom
no_reorient  #important for SAPT in psi4, default
symmetry c1  #important for SAPT in psi4, default
}

set PROPERTIES_ORIGIN ["COM"]
properties('MP2/aug-cc-pvtz', properties = ['dipole'])
--------------------------------------------------------------------------

    Molecular point group: c1
  Charge       = 0
  Multiplicity = 1
  Basis Set: AUG-CC-PVTZ
    Blend: AUG-CC-PVTZ
  Basis Set: (AUG-CC-PVTZ AUX)
    Blend: AUG-CC-PVTZ-JKFIT

    Orbital Energies [Eh]
    ---------------------

    Doubly Occupied:

       1A    -20.625783     2A    -20.564032     3A    -20.537414
       4A    -15.590546     5A    -11.399804     6A    -11.350850
       7A    -11.291531     8A    -11.238838     9A    -11.212922
      10A     -1.469531    11A     -1.423823    12A     -1.370111
      13A     -1.248428    14A     -1.051161    15A     -1.004594
      16A     -0.878750    17A     -0.821582    18A     -0.794389
      19A     -0.718176    20A     -0.715339    21A     -0.695737
      22A     -0.657855    23A     -0.648348    24A     -0.632897
      25A     -0.612212    26A     -0.603617    27A     -0.564819
      28A     -0.548449    29A     -0.523715    30A     -0.514486
      31A     -0.494705    32A     -0.492799    33A     -0.472737
      34A     -0.428775    35A     -0.411845

  @DF-RHF Final Energy:  -473.82963626186375

   => Energetics <=

    Nuclear Repulsion Energy =            459.1974863059860468
    One-Electron Energy =               -1558.8330445880756088
    Two-Electron Energy =                 625.8059220202256938
    Total Energy =                       -473.8296362618638113
  Basis Set: (AUG-CC-PVTZ AUX)
    Blend: AUG-CC-PVTZ-RI
    Molecular point group: c1

    Geometry (in Angstrom), charge = 0, multiplicity = 1:

       Center              X                  Y                   Z               Mass
    ------------   -----------------  -----------------  -----------------  -----------------
         O            1.084545309997    -1.250049438390     0.262864551179    15.994914619570
         O           -3.044514690003    -0.647485438390     0.351160551179    15.994914619570
         O           -1.719314690003     1.140904561610     0.847928551179    15.994914619570
         N            0.134952309997     0.345319561610    -1.065992448821    14.003074004430
         C            2.378299309997     0.743828561610    -0.186889448821    12.000000000000
         C            1.108863909997    -0.195708838390    -0.249356248821    12.000000000000
         C           -1.111238090003    -0.363524738390    -0.955276748821    12.000000000000
         C            3.489871309997     0.100015561610     0.624982551179    12.000000000000
         C           -1.956521690003     0.149644561610     0.181303551179    12.000000000000
         H            2.717591309997     0.970103561610    -1.204432448821     1.007825032230
         H            2.075871309997     1.702006561610     0.255636551179     1.007825032230
         H           -0.977893690003    -1.392516438390    -0.934272448821     1.007825032230
         H           -1.716101690003    -0.123296438390    -1.920166448821     1.007825032230
         H            0.115375309997     1.348655561610    -1.211532448821     1.007825032230
         H            3.789176309997    -0.849256438390     0.179422551179     1.007825032230
         H            4.360841309997     0.757698561610     0.669371551179     1.007825032230
         H            3.151874309997    -0.103400438390     1.641320551179     1.007825032230
         H           -3.545965690003    -0.270314438390     1.101968551179     1.007825032230

  Basis Set: AUG-CC-PVTZ
    Blend: AUG-CC-PVTZ
  Basis Set: (AUG-CC-PVTZ AUX)
    Blend: AUG-CC-PVTZ-JKFIT
	 Reference Energy          =    -473.8296362618637545 [Eh]
	 Singles Energy            =      -0.0000000000000000 [Eh]
	 Same-Spin Energy          =      -0.4656430331082356 [Eh]
	 Opposite-Spin Energy      =      -1.4556236660437714 [Eh]
	 Correlation Energy        =      -1.9212666991520071 [Eh]
	 Total Energy              =    -475.7509029610157540 [Eh]

	 ================> DF-SCS-MP2 Energies <==================
	-----------------------------------------------------------
	 SCS Same-Spin Scale       =       0.3333333333333333 [-]
	 SCS Opposite-Spin Scale   =       1.2000000000000000 [-]
	 SCS Same-Spin Energy      =      -0.1552143443694119 [Eh]
	 SCS Opposite-Spin Energy  =      -1.7467483992525257 [Eh]
	 SCS Correlation Energy    =      -1.9019627436219375 [Eh]
	 SCS Total Energy          =    -475.7315990054856911 [Eh]
	-----------------------------------------------------------

  Dipole Moment: [D]
     X:    -1.0996      Y:     1.5597      Z:    -1.6268     Total:     2.5077

*** Psi4 exiting successfully. Buy a developer a beer!
