                               Psi4 1.4a3.dev225

  ==> Input File <==

--------------------------------------------------------------------------
#psi4
#
memory 32 gb

molecule  {
0 1
  O        0.8764270    -0.2428500     1.2911470
  O       -3.1675390     0.0980960     0.5443480
  O       -1.5839830     1.3406500    -0.5070920
  N        0.0834400    -0.8734940    -0.7544630
  C        2.2681300     0.2178930    -0.6380450
  C        1.0330250    -0.3000120     0.0721840
  C       -1.2394860    -1.0499030    -0.2084880
  C        3.4385850     0.4137260     0.3159750
  C       -1.9785770     0.2694000    -0.0851210
  H        2.5310470    -0.4685700    -1.4513520
  H        1.9929790     1.1708880    -1.1091590
  H       -1.1549390    -1.4972460     0.7835340
  H       -1.8230450    -1.7308360    -0.8360530
  H        0.1304307    -0.5891437    -1.7789366
  H        3.7379630    -0.5375510     0.7615240
  H        4.2975370     0.8343390    -0.2133880
  H        3.1581410     1.0869690     1.1269820
  H       -3.5812870     0.9851770     0.5837010
units angstrom
no_reorient  #important for SAPT in psi4, default
symmetry c1  #important for SAPT in psi4, default
}

set PROPERTIES_ORIGIN ["COM"]
properties('MP2/aug-cc-pvtz', properties = ['dipole'])
--------------------------------------------------------------------------

    Molecular point group: c1
  Charge       = 0
  Multiplicity = 1
  Basis Set: AUG-CC-PVTZ
    Blend: AUG-CC-PVTZ
  Basis Set: (AUG-CC-PVTZ AUX)
    Blend: AUG-CC-PVTZ-JKFIT

    Orbital Energies [Eh]
    ---------------------

    Doubly Occupied:

       1A    -20.624514     2A    -20.560693     3A    -20.527556
       4A    -15.597885     5A    -11.397503     6A    -11.355125
       7A    -11.291943     8A    -11.243491     9A    -11.217230
      10A     -1.468982    11A     -1.383324    12A     -1.366549
      13A     -1.235863    14A     -1.061889    15A     -1.003523
      16A     -0.888156    17A     -0.824115    18A     -0.774595
      19A     -0.715101    20A     -0.710164    21A     -0.698008
      22A     -0.652489    23A     -0.645223    24A     -0.629841
      25A     -0.603457    26A     -0.597783    27A     -0.556411
      28A     -0.544123    29A     -0.523484    30A     -0.514897
      31A     -0.494847    32A     -0.489426    33A     -0.468683
      34A     -0.432197    35A     -0.410411

  @DF-RHF Final Energy:  -473.83606602903956

   => Energetics <=

    Nuclear Repulsion Energy =            460.1766039567745565
    One-Electron Energy =               -1561.0063812758512540
    Two-Electron Energy =                 626.9937112900370266
    Total Energy =                       -473.8360660290395572
  Basis Set: (AUG-CC-PVTZ AUX)
    Blend: AUG-CC-PVTZ-RI
    Molecular point group: c1

    Geometry (in Angstrom), charge = 0, multiplicity = 1:

       Center              X                  Y                   Z               Mass
    ------------   -----------------  -----------------  -----------------  -----------------
         O            0.946561933014    -0.248634377258     1.275801824102    15.994914619570
         O           -3.097404066986     0.092311622742     0.529002824102    15.994914619570
         O           -1.513848066986     1.334865622742    -0.522437175898    15.994914619570
         N            0.153574933014    -0.879278377258    -0.769808175898    14.003074004430
         C            2.338264933014     0.212108622742    -0.653390175898    12.000000000000
         C            1.103159933014    -0.305796377258     0.056838824102    12.000000000000
         C           -1.169351066986    -1.055687377258    -0.223833175898    12.000000000000
         C            3.508719933014     0.407941622742     0.300629824102    12.000000000000
         C           -1.908442066986     0.263615622742    -0.100466175898    12.000000000000
         H            2.601181933014    -0.474354377258    -1.466697175898     1.007825032230
         H            2.063113933014     1.165103622742    -1.124504175898     1.007825032230
         H           -1.084804066986    -1.503030377258     0.768188824102     1.007825032230
         H           -1.752910066986    -1.736620377258    -0.851398175898     1.007825032230
         H            0.200565633014    -0.594928077258    -1.794281775898     1.007825032230
         H            3.808097933014    -0.543335377258     0.746178824102     1.007825032230
         H            4.367671933014     0.828554622742    -0.228733175898     1.007825032230
         H            3.228275933014     1.081184622742     1.111636824102     1.007825032230
         H           -3.511152066986     0.979392622742     0.568355824102     1.007825032230

  Basis Set: AUG-CC-PVTZ
    Blend: AUG-CC-PVTZ
  Basis Set: (AUG-CC-PVTZ AUX)
    Blend: AUG-CC-PVTZ-JKFIT
	 Reference Energy          =    -473.8360660290395572 [Eh]
	 Singles Energy            =      -0.0000000000000000 [Eh]
	 Same-Spin Energy          =      -0.4671876063633874 [Eh]
	 Opposite-Spin Energy      =      -1.4589039526996728 [Eh]
	 Correlation Energy        =      -1.9260915590630603 [Eh]
	 Total Energy              =    -475.7621575881026388 [Eh]

	 ================> DF-SCS-MP2 Energies <==================
	-----------------------------------------------------------
	 SCS Same-Spin Scale       =       0.3333333333333333 [-]
	 SCS Opposite-Spin Scale   =       1.2000000000000000 [-]
	 SCS Same-Spin Energy      =      -0.1557292021211291 [Eh]
	 SCS Opposite-Spin Energy  =      -1.7506847432396073 [Eh]
	 SCS Correlation Energy    =      -1.9064139453607365 [Eh]
	 SCS Total Energy          =    -475.7424799744002826 [Eh]
	-----------------------------------------------------------

  Dipole Moment: [D]
     X:    -0.9096      Y:    -0.7763      Z:    -2.6999     Total:     2.9529

*** Psi4 exiting successfully. Buy a developer a beer!
