                               Psi4 1.3.2 release

  ==> Input File <==

--------------------------------------------------------------------------
#psi4
#
memory 32 gb

molecule  {
0 1
  O        1.0830410    -1.2590340     0.2697030
  O       -3.0460190    -0.6564700     0.3579990
  O       -1.7208190     1.1319200     0.8547670
  N        0.1334480     0.3363350    -1.0591540
  C        2.3767950     0.7348440    -0.1800510
  C        1.3146210    -0.0368289    -0.2553362
  C       -1.1420340    -0.3248900    -0.9988550
  C        3.4883670     0.0910310     0.6318210
  C       -1.9580260     0.1406600     0.1881420
  H        2.7160870     0.9611190    -1.1975940
  H        2.0743670     1.6930220     0.2624750
  H       -0.9793980    -1.4015010    -0.9274340
  H       -1.7176060    -0.1322810    -1.9133280
  H        0.1138710     1.3396710    -1.2046940
  H        3.7876720    -0.8582410     0.1862610
  H        4.3593370     0.7487140     0.6762100
  H        3.1503700    -0.1123850     1.6481590
  H       -3.5474700    -0.2792990     1.1088070
units angstrom
no_reorient  #important for SAPT in psi4, default
symmetry c1  #important for SAPT in psi4, default
}

set PROPERTIES_ORIGIN ["COM"]
properties('MP2/aug-cc-pvtz', properties = ['dipole'])
--------------------------------------------------------------------------

    Molecular point group: c1
  Charge       = 0
  Multiplicity = 1
  Basis Set: AUG-CC-PVTZ
    Blend: AUG-CC-PVTZ
  Basis Set: (AUG-CC-PVTZ AUX)
    Blend: AUG-CC-PVTZ-JKFIT

    Orbital Energies [Eh]
    ---------------------

    Doubly Occupied:

       1A    -20.620425     2A    -20.556663     3A    -20.522031
       4A    -15.587040     5A    -11.392713     6A    -11.373274
       7A    -11.286127     8A    -11.250825     9A    -11.229891
      10A     -1.462907    11A     -1.363519    12A     -1.322772
      13A     -1.204768    14A     -1.118931    15A     -0.998014
      16A     -0.923371    17A     -0.820871    18A     -0.757889
      19A     -0.717985    20A     -0.709637    21A     -0.698471
      22A     -0.665740    23A     -0.650894    24A     -0.633738
      25A     -0.597457    26A     -0.586980    27A     -0.556308
      28A     -0.538148    29A     -0.533905    30A     -0.511851
      31A     -0.488371    32A     -0.479421    33A     -0.458165
      34A     -0.430085    35A     -0.390920

  @DF-RHF Final Energy:  -473.76695103407832

   => Energetics <=

    Nuclear Repulsion Energy =            456.6305110169972181
    One-Electron Energy =               -1553.9147109539601388
    Two-Electron Energy =                 623.5172489028847167
    Total Energy =                       -473.7669510340782608
  Basis Set: (AUG-CC-PVTZ AUX)
    Blend: AUG-CC-PVTZ-RI
    Molecular point group: c1

    Geometry (in Angstrom), charge = 0, multiplicity = 1:

       Center              X                  Y                   Z               Mass
    ------------   -----------------  -----------------  -----------------  -----------------
         O            1.068249977872    -1.269779640304     0.268654505185    15.994914619570
         O           -3.060810022128    -0.667215640304     0.356950505185    15.994914619570
         O           -1.735610022128     1.121174359696     0.853718505185    15.994914619570
         N            0.118656977872     0.325589359696    -1.060202494815    14.003074004430
         C            2.362003977872     0.724098359696    -0.181099494815    12.000000000000
         C            1.299829977872    -0.047574540304    -0.256384694815    12.000000000000
         C           -1.156825022128    -0.335635640304    -0.999903494815    12.000000000000
         C            3.473575977872     0.080285359696     0.630772505185    12.000000000000
         C           -1.972817022128     0.129914359696     0.187093505185    12.000000000000
         H            2.701295977872     0.950373359696    -1.198642494815     1.007825032230
         H            2.059575977872     1.682276359696     0.261426505185     1.007825032230
         H           -0.994189022128    -1.412246640304    -0.928482494815     1.007825032230
         H           -1.732397022128    -0.143026640304    -1.914376494815     1.007825032230
         H            0.099079977872     1.328925359696    -1.205742494815     1.007825032230
         H            3.772880977872    -0.868986640304     0.185212505185     1.007825032230
         H            4.344545977872     0.737968359696     0.675161505185     1.007825032230
         H            3.135578977872    -0.123130640304     1.647110505185     1.007825032230
         H           -3.562261022128    -0.290044640304     1.107758505185     1.007825032230

  Basis Set: AUG-CC-PVTZ
    Blend: AUG-CC-PVTZ
  Basis Set: (AUG-CC-PVTZ AUX)
    Blend: AUG-CC-PVTZ-JKFIT
	 Reference Energy          =    -473.7669510340783177 [Eh]
	 Singles Energy            =      -0.0000000000000000 [Eh]
	 Same-Spin Energy          =      -0.4722859367903970 [Eh]
	 Opposite-Spin Energy      =      -1.4681128023058081 [Eh]
	 Correlation Energy        =      -1.9403987390962052 [Eh]
	 Total Energy              =    -475.7073497731745420 [Eh]

	 ================> DF-SCS-MP2 Energies <==================
	-----------------------------------------------------------
	 SCS Same-Spin Scale       =       0.3333333333333333 [-]
	 SCS Opposite-Spin Scale   =       1.2000000000000000 [-]
	 SCS Same-Spin Energy      =      -0.1574286455967990 [Eh]
	 SCS Opposite-Spin Energy  =      -1.7617353627669696 [Eh]
	 SCS Correlation Energy    =      -1.9191640083637687 [Eh]
	 SCS Total Energy          =    -475.6861150424421112 [Eh]
	-----------------------------------------------------------

  Dipole Moment: [D]
     X:     0.0466      Y:     2.2924      Z:    -1.5661     Total:     2.7767

*** Psi4 exiting successfully. Buy a developer a beer!
