                               Psi4 1.3.2 release

  ==> Input File <==

--------------------------------------------------------------------------
#psi4
#
memory 32 gb

molecule  {
0 1
  O        1.0830410    -1.2590340     0.2697030
  O       -3.0460190    -0.6564700     0.3579990
  O       -1.7208190     1.1319200     0.8547670
  N        0.1334480     0.3363350    -1.0591540
  C        2.3767950     0.7348440    -0.1800510
  C        1.1530800    -0.1541890    -0.2667860
  C       -1.1181255    -0.3684692    -0.9918962
  C        3.4883670     0.0910310     0.6318210
  C       -1.9580260     0.1406600     0.1881420
  H        2.7160870     0.9611190    -1.1975940
  H        2.0743670     1.6930220     0.2624750
  H       -0.9793980    -1.4015010    -0.9274340
  H       -1.7176060    -0.1322810    -1.9133280
  H        0.1492521     1.3398747    -1.2037454
  H        3.7876720    -0.8582410     0.1862610
  H        4.3593370     0.7487140     0.6762100
  H        3.1503700    -0.1123850     1.6481590
  H       -3.5474700    -0.2792990     1.1088070
units angstrom
no_reorient  #important for SAPT in psi4, default
symmetry c1  #important for SAPT in psi4, default
}

set PROPERTIES_ORIGIN ["COM"]
properties('MP2/aug-cc-pvtz', properties = ['dipole'])
--------------------------------------------------------------------------

    Molecular point group: c1
  Charge       = 0
  Multiplicity = 1
  Basis Set: AUG-CC-PVTZ
    Blend: AUG-CC-PVTZ
  Basis Set: (AUG-CC-PVTZ AUX)
    Blend: AUG-CC-PVTZ-JKFIT

    Orbital Energies [Eh]
    ---------------------

    Doubly Occupied:

       1A    -20.625035     2A    -20.563214     3A    -20.528086
       4A    -15.593014     5A    -11.399402     6A    -11.354727
       7A    -11.292420     8A    -11.244150     9A    -11.216492
      10A     -1.467835    11A     -1.384856    12A     -1.368167
      13A     -1.241797    14A     -1.063382    15A     -1.004532
      16A     -0.888399    17A     -0.825052    18A     -0.786546
      19A     -0.716040    20A     -0.711467    21A     -0.695075
      22A     -0.654261    23A     -0.647661    24A     -0.636568
      25A     -0.603833    26A     -0.599050    27A     -0.567403
      28A     -0.539045    29A     -0.524170    30A     -0.517451
      31A     -0.495459    32A     -0.491950    33A     -0.468455
      34A     -0.432954    35A     -0.408766

  @DF-RHF Final Energy:  -473.83670049750913

   => Energetics <=

    Nuclear Repulsion Energy =            457.9767427930524377
    One-Electron Energy =               -1556.5134551844737416
    Two-Electron Energy =                 624.7000118939122331
    Total Energy =                       -473.8367004975091277
  Basis Set: (AUG-CC-PVTZ AUX)
    Blend: AUG-CC-PVTZ-RI
    Molecular point group: c1

    Geometry (in Angstrom), charge = 0, multiplicity = 1:

       Center              X                  Y                   Z               Mass
    ------------   -----------------  -----------------  -----------------  -----------------
         O            1.080579855053    -1.255045227118     0.269058417033    15.994914619570
         O           -3.048480144947    -0.652481227118     0.357354417033    15.994914619570
         O           -1.723280144947     1.135908772882     0.854122417033    15.994914619570
         N            0.130986855053     0.340323772882    -1.059798582967    14.003074004430
         C            2.374333855053     0.738832772882    -0.180695582967    12.000000000000
         C            1.150618855053    -0.150200227118    -0.267430582967    12.000000000000
         C           -1.120586644947    -0.364480427118    -0.992540782967    12.000000000000
         C            3.485905855053     0.095019772882     0.631176417033    12.000000000000
         C           -1.960487144947     0.144648772882     0.187497417033    12.000000000000
         H            2.713625855053     0.965107772882    -1.198238582967     1.007825032230
         H            2.071905855053     1.697010772882     0.261830417033     1.007825032230
         H           -0.981859144947    -1.397512227118    -0.928078582967     1.007825032230
         H           -1.720067144947    -0.128292227118    -1.913972582967     1.007825032230
         H            0.146790955053     1.343863472882    -1.204389982967     1.007825032230
         H            3.785210855053    -0.854252227118     0.185616417033     1.007825032230
         H            4.356875855053     0.752702772882     0.675565417033     1.007825032230
         H            3.147908855053    -0.108396227118     1.647514417033     1.007825032230
         H           -3.549931144947    -0.275310227118     1.108162417033     1.007825032230

  Basis Set: AUG-CC-PVTZ
    Blend: AUG-CC-PVTZ
  Basis Set: (AUG-CC-PVTZ AUX)
    Blend: AUG-CC-PVTZ-JKFIT
	 Reference Energy          =    -473.8367004975091277 [Eh]
	 Singles Energy            =      -0.0000000000000000 [Eh]
	 Same-Spin Energy          =      -0.4666758211595812 [Eh]
	 Opposite-Spin Energy      =      -1.4576851275721143 [Eh]
	 Correlation Energy        =      -1.9243609487316955 [Eh]
	 Total Energy              =    -475.7610614462408307 [Eh]

	 ================> DF-SCS-MP2 Energies <==================
	-----------------------------------------------------------
	 SCS Same-Spin Scale       =       0.3333333333333333 [-]
	 SCS Opposite-Spin Scale   =       1.2000000000000000 [-]
	 SCS Same-Spin Energy      =      -0.1555586070531937 [Eh]
	 SCS Opposite-Spin Energy  =      -1.7492221530865371 [Eh]
	 SCS Correlation Energy    =      -1.9047807601397309 [Eh]
	 SCS Total Energy          =    -475.7414812576488430 [Eh]
	-----------------------------------------------------------

  Dipole Moment: [D]
     X:    -0.9280      Y:     1.8690      Z:    -1.7471     Total:     2.7215

*** Psi4 exiting successfully. Buy a developer a beer!
