                               Psi4 1.3.2 release

  ==> Input File <==

--------------------------------------------------------------------------
#psi4
#
memory 32 gb

molecule  {
0 1
  O        1.0830410    -1.2590340     0.2697030
  O       -3.0601437    -0.6282315     0.3934191
  O       -1.7565186     1.1247898     0.8767172
  N        0.1334480     0.3363350    -1.0591540
  C        2.3767950     0.7348440    -0.1800510
  C        1.1530800    -0.1541890    -0.2667860
  C       -1.1420340    -0.3248900    -0.9988550
  C        3.4883670     0.0910310     0.6318210
  C       -1.9580260     0.1406600     0.1881420
  H        2.7160870     0.9611190    -1.1975940
  H        2.0743670     1.6930220     0.2624750
  H       -0.9793980    -1.4015010    -0.9274340
  H       -1.7176060    -0.1322810    -1.9133280
  H        0.1138710     1.3396710    -1.2046940
  H        3.7876720    -0.8582410     0.1862610
  H        4.3593370     0.7487140     0.6762100
  H        3.1503700    -0.1123850     1.6481590
  H       -3.5474700    -0.2792990     1.1088070
units angstrom
no_reorient  #important for SAPT in psi4, default
symmetry c1  #important for SAPT in psi4, default
}

set PROPERTIES_ORIGIN ["COM"]
properties('MP2/aug-cc-pvtz', properties = ['dipole'])
--------------------------------------------------------------------------

    Molecular point group: c1
  Charge       = 0
  Multiplicity = 1
  Basis Set: AUG-CC-PVTZ
    Blend: AUG-CC-PVTZ
  Basis Set: (AUG-CC-PVTZ AUX)
    Blend: AUG-CC-PVTZ-JKFIT

    Orbital Energies [Eh]
    ---------------------

    Doubly Occupied:

       1A    -20.615421     2A    -20.560057     3A    -20.530505
       4A    -15.595569     5A    -11.398787     6A    -11.357856
       7A    -11.295482     8A    -11.245441     9A    -11.217354
      10A     -1.472838    11A     -1.386556    12A     -1.365809
      13A     -1.244608    14A     -1.065146    15A     -1.009719
      16A     -0.892566    17A     -0.833069    18A     -0.788254
      19A     -0.717844    20A     -0.713367    21A     -0.698980
      22A     -0.655238    23A     -0.645001    24A     -0.637727
      25A     -0.604442    26A     -0.599255    27A     -0.561868
      28A     -0.541970    29A     -0.526559    30A     -0.518448
      31A     -0.495775    32A     -0.488823    33A     -0.468611
      34A     -0.435858    35A     -0.412817

  @DF-RHF Final Energy:  -473.84065329922436

   => Energetics <=

    Nuclear Repulsion Energy =            457.7371904659665347
    One-Electron Energy =               -1555.9604494563459411
    Two-Electron Energy =                 624.3826056911550495
    Total Energy =                       -473.8406532992244138
  Basis Set: (AUG-CC-PVTZ AUX)
    Blend: AUG-CC-PVTZ-RI
    Molecular point group: c1

    Geometry (in Angstrom), charge = 0, multiplicity = 1:

       Center              X                  Y                   Z               Mass
    ------------   -----------------  -----------------  -----------------  -----------------
         O            1.089121823539    -1.261610022599     0.262701156266    15.994914619570
         O           -3.054062876461    -0.630807522599     0.386417256266    15.994914619570
         O           -1.750437776461     1.122213777401     0.869715356266    15.994914619570
         N            0.139528823539     0.333758977401    -1.066155843734    14.003074004430
         C            2.382875823539     0.732267977401    -0.187052843734    12.000000000000
         C            1.159160823539    -0.156765022599    -0.273787843734    12.000000000000
         C           -1.135953176461    -0.327466022599    -1.005856843734    12.000000000000
         C            3.494447823539     0.088454977401     0.624819156266    12.000000000000
         C           -1.951945176461     0.138083977401     0.181140156266    12.000000000000
         H            2.722167823539     0.958542977401    -1.204595843734     1.007825032230
         H            2.080447823539     1.690445977401     0.255473156266     1.007825032230
         H           -0.973317176461    -1.404077022599    -0.934435843734     1.007825032230
         H           -1.711525176461    -0.134857022599    -1.920329843734     1.007825032230
         H            0.119951823539     1.337094977401    -1.211695843734     1.007825032230
         H            3.793752823539    -0.860817022599     0.179259156266     1.007825032230
         H            4.365417823539     0.746137977401     0.669208156266     1.007825032230
         H            3.156450823539    -0.114961022599     1.641157156266     1.007825032230
         H           -3.541389176461    -0.281875022599     1.101805156266     1.007825032230

  Basis Set: AUG-CC-PVTZ
    Blend: AUG-CC-PVTZ
  Basis Set: (AUG-CC-PVTZ AUX)
    Blend: AUG-CC-PVTZ-JKFIT
	 Reference Energy          =    -473.8406532992243569 [Eh]
	 Singles Energy            =      -0.0000000000000000 [Eh]
	 Same-Spin Energy          =      -0.4657958717925854 [Eh]
	 Opposite-Spin Energy      =      -1.4557530820762388 [Eh]
	 Correlation Energy        =      -1.9215489538688242 [Eh]
	 Total Energy              =    -475.7622022530931645 [Eh]

	 ================> DF-SCS-MP2 Energies <==================
	-----------------------------------------------------------
	 SCS Same-Spin Scale       =       0.3333333333333333 [-]
	 SCS Opposite-Spin Scale   =       1.2000000000000000 [-]
	 SCS Same-Spin Energy      =      -0.1552652905975285 [Eh]
	 SCS Opposite-Spin Energy  =      -1.7469036984914865 [Eh]
	 SCS Correlation Energy    =      -1.9021689890890150 [Eh]
	 SCS Total Energy          =    -475.7428222883133913 [Eh]
	-----------------------------------------------------------

  Dipole Moment: [D]
     X:    -0.7456      Y:     1.8549      Z:    -1.8863     Total:     2.7486

*** Psi4 exiting successfully. Buy a developer a beer!
