                               Psi4 1.3.2 release

  ==> Input File <==

--------------------------------------------------------------------------
#psi4
#
memory 32 gb

molecule  {
0 1
  O        1.0830410    -1.2590340     0.2697030
  O       -3.0460190    -0.6564700     0.3579990
  O       -1.7208190     1.1319200     0.8547670
  N        0.1334480     0.3363350    -1.0591540
  C        2.3767950     0.7348440    -0.1800510
  C        1.1530800    -0.1541890    -0.2667860
  C       -1.1420340    -0.3248900    -0.9988550
  C        3.4883670     0.0910310     0.6318210
  C       -1.9580260     0.1406600     0.1881420
  H        2.7160870     0.9611190    -1.1975940
  H        2.0743670     1.6930220     0.2624750
  H       -0.9793980    -1.4015010    -0.9274340
  H       -1.7176060    -0.1322810    -1.9133280
  H        0.1138710     1.3396710    -1.2046940
  H        3.7876720    -0.8582410     0.1862610
  H        4.3593370     0.7487140     0.6762100
  H        3.1503700    -0.1123850     1.6481590
  H       -3.4449741    -0.3563922     0.9553429
units angstrom
no_reorient  #important for SAPT in psi4, default
symmetry c1  #important for SAPT in psi4, default
}

set PROPERTIES_ORIGIN ["COM"]
properties('MP2/aug-cc-pvtz', properties = ['dipole'])
--------------------------------------------------------------------------

    Molecular point group: c1
  Charge       = 0
  Multiplicity = 1
  Basis Set: AUG-CC-PVTZ
    Blend: AUG-CC-PVTZ
  Basis Set: (AUG-CC-PVTZ AUX)
    Blend: AUG-CC-PVTZ-JKFIT

    Orbital Energies [Eh]
    ---------------------

    Doubly Occupied:

       1A    -20.608627     2A    -20.567231     3A    -20.529779
       4A    -15.593966     5A    -11.403145     6A    -11.357091
       7A    -11.292248     8A    -11.244971     9A    -11.217059
      10A     -1.513870    11A     -1.391792    12A     -1.382895
      13A     -1.243219    14A     -1.065520    15A     -1.017235
      16A     -0.903733    17A     -0.852207    18A     -0.787579
      19A     -0.733060    20A     -0.717712    21A     -0.701025
      22A     -0.657210    23A     -0.650410    24A     -0.639451
      25A     -0.614174    26A     -0.602166    27A     -0.563166
      28A     -0.542600    29A     -0.526217    30A     -0.518086
      31A     -0.499428    32A     -0.494625    33A     -0.472962
      34A     -0.435115    35A     -0.411652

  @DF-RHF Final Energy:  -473.79489052838119

   => Energetics <=

    Nuclear Repulsion Energy =            459.4871653624850865
    One-Electron Energy =               -1559.0616631428379151
    Two-Electron Energy =                 625.7796072519716972
    Total Energy =                       -473.7948905283811882
  Basis Set: (AUG-CC-PVTZ AUX)
    Blend: AUG-CC-PVTZ-RI
    Molecular point group: c1

    Geometry (in Angstrom), charge = 0, multiplicity = 1:

       Center              X                  Y                   Z               Mass
    ------------   -----------------  -----------------  -----------------  -----------------
         O            1.082252867138    -1.258441035261     0.270882999590    15.994914619570
         O           -3.046807132862    -0.655877035261     0.359178999590    15.994914619570
         O           -1.721607132862     1.132512964739     0.855946999590    15.994914619570
         N            0.132659867138     0.336927964739    -1.057974000410    14.003074004430
         C            2.376006867138     0.735436964739    -0.178871000410    12.000000000000
         C            1.152291867138    -0.153596035261    -0.265606000410    12.000000000000
         C           -1.142822132862    -0.324297035261    -0.997675000410    12.000000000000
         C            3.487578867138     0.091623964739     0.633000999590    12.000000000000
         C           -1.958814132862     0.141252964739     0.189321999590    12.000000000000
         H            2.715298867138     0.961711964739    -1.196414000410     1.007825032230
         H            2.073578867138     1.693614964739     0.263654999590     1.007825032230
         H           -0.980186132862    -1.400908035261    -0.926254000410     1.007825032230
         H           -1.718394132862    -0.131688035261    -1.912148000410     1.007825032230
         H            0.113082867138     1.340263964739    -1.203514000410     1.007825032230
         H            3.786883867138    -0.857648035261     0.187440999590     1.007825032230
         H            4.358548867138     0.749306964739     0.677389999590     1.007825032230
         H            3.149581867138    -0.111792035261     1.649338999590     1.007825032230
         H           -3.445762232862    -0.355799235261     0.956522899590     1.007825032230

  Basis Set: AUG-CC-PVTZ
    Blend: AUG-CC-PVTZ
  Basis Set: (AUG-CC-PVTZ AUX)
    Blend: AUG-CC-PVTZ-JKFIT
	 Reference Energy          =    -473.7948905283811882 [Eh]
	 Singles Energy            =      -0.0000000000000000 [Eh]
	 Same-Spin Energy          =      -0.4643167770275571 [Eh]
	 Opposite-Spin Energy      =      -1.4525057762911548 [Eh]
	 Correlation Energy        =      -1.9168225533187120 [Eh]
	 Total Energy              =    -475.7117130816998838 [Eh]

	 ================> DF-SCS-MP2 Energies <==================
	-----------------------------------------------------------
	 SCS Same-Spin Scale       =       0.3333333333333333 [-]
	 SCS Opposite-Spin Scale   =       1.2000000000000000 [-]
	 SCS Same-Spin Energy      =      -0.1547722590091857 [Eh]
	 SCS Opposite-Spin Energy  =      -1.7430069315493857 [Eh]
	 SCS Correlation Energy    =      -1.8977791905585715 [Eh]
	 SCS Total Energy          =    -475.6926697189397828 [Eh]
	-----------------------------------------------------------

  Dipole Moment: [D]
     X:    -0.7535      Y:     1.8521      Z:    -1.9226     Total:     2.7739

*** Psi4 exiting successfully. Buy a developer a beer!
