                               Psi4 1.3.2 release

  ==> Input File <==

--------------------------------------------------------------------------
#psi4
#
memory 32 gb

molecule  {
0 1
  O        1.0830410    -1.2590340     0.2697030
  O       -3.0460190    -0.6564700     0.3579990
  O       -1.7123757     1.1339608     0.8486432
  N        0.1334480     0.3363350    -1.0591540
  C        2.3767950     0.7348440    -0.1800510
  C        1.1530800    -0.1541890    -0.2667860
  C       -1.1339233    -0.3145877    -0.9972465
  C        3.4883670     0.0910310     0.6318210
  C       -1.9580260     0.1406600     0.1881420
  H        2.7160870     0.9611190    -1.1975940
  H        2.0743670     1.6930220     0.2624750
  H       -0.9793980    -1.4015010    -0.9274340
  H       -1.7176060    -0.1322810    -1.9133280
  H        0.1138710     1.3396710    -1.2046940
  H        3.7876720    -0.8582410     0.1862610
  H        4.3593370     0.7487140     0.6762100
  H        3.1503700    -0.1123850     1.6481590
  H       -3.5474700    -0.2792990     1.1088070
units angstrom
no_reorient  #important for SAPT in psi4, default
symmetry c1  #important for SAPT in psi4, default
}

set PROPERTIES_ORIGIN ["COM"]
properties('MP2/aug-cc-pvtz', properties = ['dipole'])
--------------------------------------------------------------------------

    Molecular point group: c1
  Charge       = 0
  Multiplicity = 1
  Basis Set: AUG-CC-PVTZ
    Blend: AUG-CC-PVTZ
  Basis Set: (AUG-CC-PVTZ AUX)
    Blend: AUG-CC-PVTZ-JKFIT

    Orbital Energies [Eh]
    ---------------------

    Doubly Occupied:

       1A    -20.626358     2A    -20.562462     3A    -20.529104
       4A    -15.592798     5A    -11.398522     6A    -11.356386
       7A    -11.290245     8A    -11.244396     9A    -11.216596
      10A     -1.468336    11A     -1.385449    12A     -1.369085
      13A     -1.244415    14A     -1.063630    15A     -1.004927
      16A     -0.890240    17A     -0.824711    18A     -0.786196
      19A     -0.716255    20A     -0.713862    21A     -0.698275
      22A     -0.654777    23A     -0.643936    24A     -0.637160
      25A     -0.604630    26A     -0.600006    27A     -0.556127
      28A     -0.540411    29A     -0.525471    30A     -0.517570
      31A     -0.495564    32A     -0.491737    33A     -0.468749
      34A     -0.434474    35A     -0.410048

  @DF-RHF Final Energy:  -473.83936535298437

   => Energetics <=

    Nuclear Repulsion Energy =            458.2860739363879361
    One-Electron Energy =               -1557.1250613111424173
    Two-Electron Energy =                 624.9996220217700511
    Total Energy =                       -473.8393653529843732
  Basis Set: (AUG-CC-PVTZ AUX)
    Blend: AUG-CC-PVTZ-RI
    Molecular point group: c1

    Geometry (in Angstrom), charge = 0, multiplicity = 1:

       Center              X                  Y                   Z               Mass
    ------------   -----------------  -----------------  -----------------  -----------------
         O            1.081267959010    -1.260226245202     0.270302972714    15.994914619570
         O           -3.047792040990    -0.657662245202     0.358598972714    15.994914619570
         O           -1.714148740990     1.132768554798     0.849243172714    15.994914619570
         N            0.131674959010     0.335142754798    -1.058554027286    14.003074004430
         C            2.375021959010     0.733651754798    -0.179451027286    12.000000000000
         C            1.151306959010    -0.155381245202    -0.266186027286    12.000000000000
         C           -1.135696340990    -0.315779945202    -0.996646527286    12.000000000000
         C            3.486593959010     0.089838754798     0.632420972714    12.000000000000
         C           -1.959799040990     0.139467754798     0.188741972714    12.000000000000
         H            2.714313959010     0.959926754798    -1.196994027286     1.007825032230
         H            2.072593959010     1.691829754798     0.263074972714     1.007825032230
         H           -0.981171040990    -1.402693245202    -0.926834027286     1.007825032230
         H           -1.719379040990    -0.133473245202    -1.912728027286     1.007825032230
         H            0.112097959010     1.338478754798    -1.204094027286     1.007825032230
         H            3.785898959010    -0.859433245202     0.186860972714     1.007825032230
         H            4.357563959010     0.747521754798     0.676809972714     1.007825032230
         H            3.148596959010    -0.113577245202     1.648758972714     1.007825032230
         H           -3.549243040990    -0.280491245202     1.109406972714     1.007825032230

  Basis Set: AUG-CC-PVTZ
    Blend: AUG-CC-PVTZ
  Basis Set: (AUG-CC-PVTZ AUX)
    Blend: AUG-CC-PVTZ-JKFIT
	 Reference Energy          =    -473.8393653529843732 [Eh]
	 Singles Energy            =      -0.0000000000000000 [Eh]
	 Same-Spin Energy          =      -0.4668420945167274 [Eh]
	 Opposite-Spin Energy      =      -1.4577694756732171 [Eh]
	 Correlation Energy        =      -1.9246115701899444 [Eh]
	 Total Energy              =    -475.7639769231743117 [Eh]

	 ================> DF-SCS-MP2 Energies <==================
	-----------------------------------------------------------
	 SCS Same-Spin Scale       =       0.3333333333333333 [-]
	 SCS Opposite-Spin Scale   =       1.2000000000000000 [-]
	 SCS Same-Spin Energy      =      -0.1556140315055758 [Eh]
	 SCS Opposite-Spin Energy  =      -1.7493233708078606 [Eh]
	 SCS Correlation Energy    =      -1.9049374023134364 [Eh]
	 SCS Total Energy          =    -475.7443027552978378 [Eh]
	-----------------------------------------------------------

  Dipole Moment: [D]
     X:    -0.9415      Y:     1.8779      Z:    -1.7266     Total:     2.7192

*** Psi4 exiting successfully. Buy a developer a beer!
