                               Psi4 1.4a3.dev225

  ==> Input File <==

--------------------------------------------------------------------------
#psi4
#
memory 32 gb

molecule  {
0 1
  O        0.8764270    -0.2428500     1.2911470
  O       -3.1675390     0.0980960     0.5443480
  O       -1.5839830     1.3406500    -0.5070920
  N        0.0834400    -0.8734940    -0.7544630
  C        2.2681300     0.2178930    -0.6380450
  C        1.0304793    -0.2990828     0.0919996
  C       -1.2394860    -1.0499030    -0.2084880
  C        3.4385850     0.4137260     0.3159750
  C       -1.9785770     0.2694000    -0.0851210
  H        2.5310470    -0.4685700    -1.4513520
  H        1.9929790     1.1708880    -1.1091590
  H       -1.1549390    -1.4972460     0.7835340
  H       -1.8230450    -1.7308360    -0.8360530
  H        0.1282230    -0.6025030    -1.7308050
  H        3.7379630    -0.5375510     0.7615240
  H        4.2975370     0.8343390    -0.2133880
  H        3.1581410     1.0869690     1.1269820
  H       -3.5812870     0.9851770     0.5837010
units angstrom
no_reorient  #important for SAPT in psi4, default
symmetry c1  #important for SAPT in psi4, default
}

set PROPERTIES_ORIGIN ["COM"]
properties('MP2/aug-cc-pvtz', properties = ['dipole'])
--------------------------------------------------------------------------

    Molecular point group: c1
  Charge       = 0
  Multiplicity = 1
  Basis Set: AUG-CC-PVTZ
    Blend: AUG-CC-PVTZ
  Basis Set: (AUG-CC-PVTZ AUX)
    Blend: AUG-CC-PVTZ-JKFIT

    Orbital Energies [Eh]
    ---------------------

    Doubly Occupied:

       1A    -20.624271     2A    -20.560524     3A    -20.531485
       4A    -15.590623     5A    -11.397017     6A    -11.354393
       7A    -11.290672     8A    -11.242971     9A    -11.217073
      10A     -1.468774    11A     -1.396044    12A     -1.366838
      13A     -1.239397    14A     -1.059955    15A     -1.002873
      16A     -0.886733    17A     -0.822937    18A     -0.783243
      19A     -0.715177    20A     -0.710458    21A     -0.699104
      22A     -0.652834    23A     -0.646351    24A     -0.629823
      25A     -0.607123    26A     -0.599758    27A     -0.558832
      28A     -0.546727    29A     -0.524860    30A     -0.515521
      31A     -0.495417    32A     -0.489766    33A     -0.469260
      34A     -0.433177    35A     -0.411211

  @DF-RHF Final Energy:  -473.84078443988238

   => Energetics <=

    Nuclear Repulsion Energy =            460.5740361922549937
    One-Electron Energy =               -1561.7471927081908234
    Two-Electron Energy =                 627.3323720760533888
    Total Energy =                       -473.8407844398823272
  Basis Set: (AUG-CC-PVTZ AUX)
    Blend: AUG-CC-PVTZ-RI
    Molecular point group: c1

    Geometry (in Angstrom), charge = 0, multiplicity = 1:

       Center              X                  Y                   Z               Mass
    ------------   -----------------  -----------------  -----------------  -----------------
         O            0.946812000271    -0.248616725282     1.273617334028    15.994914619570
         O           -3.097153999729     0.092329274718     0.526818334028    15.994914619570
         O           -1.513597999729     1.334883274718    -0.524621665972    15.994914619570
         N            0.153825000271    -0.879260725282    -0.771992665972    14.003074004430
         C            2.338515000271     0.212126274718    -0.655574665972    12.000000000000
         C            1.100864300271    -0.304849525282     0.074469934028    12.000000000000
         C           -1.169100999729    -1.055669725282    -0.226017665972    12.000000000000
         C            3.508970000271     0.407959274718     0.298445334028    12.000000000000
         C           -1.908191999729     0.263633274718    -0.102650665972    12.000000000000
         H            2.601432000271    -0.474336725282    -1.468881665972     1.007825032230
         H            2.063364000271     1.165121274718    -1.126688665972     1.007825032230
         H           -1.084553999729    -1.503012725282     0.766004334028     1.007825032230
         H           -1.752659999729    -1.736602725282    -0.853582665972     1.007825032230
         H            0.198608000271    -0.608269725282    -1.748334665972     1.007825032230
         H            3.808348000271    -0.543317725282     0.743994334028     1.007825032230
         H            4.367922000271     0.828572274718    -0.230917665972     1.007825032230
         H            3.228526000271     1.081202274718     1.109452334028     1.007825032230
         H           -3.510901999729     0.979410274718     0.566171334028     1.007825032230

  Basis Set: AUG-CC-PVTZ
    Blend: AUG-CC-PVTZ
  Basis Set: (AUG-CC-PVTZ AUX)
    Blend: AUG-CC-PVTZ-JKFIT
	 Reference Energy          =    -473.8407844398823840 [Eh]
	 Singles Energy            =      -0.0000000000000000 [Eh]
	 Same-Spin Energy          =      -0.4663695872178254 [Eh]
	 Opposite-Spin Energy      =      -1.4571299387703844 [Eh]
	 Correlation Energy        =      -1.9234995259882099 [Eh]
	 Total Energy              =    -475.7642839658706180 [Eh]

	 ================> DF-SCS-MP2 Energies <==================
	-----------------------------------------------------------
	 SCS Same-Spin Scale       =       0.3333333333333333 [-]
	 SCS Opposite-Spin Scale   =       1.2000000000000000 [-]
	 SCS Same-Spin Energy      =      -0.1554565290726085 [Eh]
	 SCS Opposite-Spin Energy  =      -1.7485559265244612 [Eh]
	 SCS Correlation Energy    =      -1.9040124555970697 [Eh]
	 SCS Total Energy          =    -475.7447968954794533 [Eh]
	-----------------------------------------------------------

  Dipole Moment: [D]
     X:    -0.8753      Y:    -0.7650      Z:    -2.5455     Total:     2.7984

*** Psi4 exiting successfully. Buy a developer a beer!
