                               Psi4 1.3.2 release

  ==> Input File <==

--------------------------------------------------------------------------
#psi4
#
memory 32 gb

molecule  {
0 1
  O        1.0830410    -1.2590340     0.2697030
  O       -3.0460190    -0.6564700     0.3579990
  O       -1.7208190     1.1319200     0.8547670
  N        0.1334480     0.3363350    -1.0591540
  C        2.3767950     0.7348440    -0.1800510
  C        1.1530800    -0.1541890    -0.2667860
  C       -1.1420340    -0.3248900    -0.9988550
  C        3.4719969     0.0895625     0.6526363
  C       -1.9580260     0.1406600     0.1881420
  H        2.6987909     0.9682527    -1.2015950
  H        2.0743670     1.6930220     0.2624750
  H       -0.9793980    -1.4015010    -0.9274340
  H       -1.7176060    -0.1322810    -1.9133280
  H        0.1138710     1.3396710    -1.2046940
  H        3.7876720    -0.8582410     0.1862610
  H        4.3593370     0.7487140     0.6762100
  H        3.1503700    -0.1123850     1.6481590
  H       -3.5474700    -0.2792990     1.1088070
units angstrom
no_reorient  #important for SAPT in psi4, default
symmetry c1  #important for SAPT in psi4, default
}

set PROPERTIES_ORIGIN ["COM"]
properties('MP2/aug-cc-pvtz', properties = ['dipole'])
--------------------------------------------------------------------------

    Molecular point group: c1
  Charge       = 0
  Multiplicity = 1
  Basis Set: AUG-CC-PVTZ
    Blend: AUG-CC-PVTZ
  Basis Set: (AUG-CC-PVTZ AUX)
    Blend: AUG-CC-PVTZ-JKFIT

    Orbital Energies [Eh]
    ---------------------

    Doubly Occupied:

       1A    -20.625484     2A    -20.562914     3A    -20.528621
       4A    -15.592674     5A    -11.398950     6A    -11.355714
       7A    -11.290850     8A    -11.244402     9A    -11.216882
      10A     -1.468519    11A     -1.384804    12A     -1.368578
      13A     -1.241788    14A     -1.063621    15A     -1.006030
      16A     -0.889982    17A     -0.824769    18A     -0.785633
      19A     -0.716097    20A     -0.713001    21A     -0.698175
      22A     -0.653096    23A     -0.644275    24A     -0.637140
      25A     -0.604594    26A     -0.598737    27A     -0.559675
      28A     -0.541416    29A     -0.524444    30A     -0.518022
      31A     -0.495483    32A     -0.491720    33A     -0.469249
      34A     -0.433791    35A     -0.410070

  @DF-RHF Final Energy:  -473.83885360006525

   => Energetics <=

    Nuclear Repulsion Energy =            458.1558302213211959
    One-Electron Energy =               -1556.8709704241346117
    Two-Electron Energy =                 624.8762866027482232
    Total Energy =                       -473.8388536000652493
  Basis Set: (AUG-CC-PVTZ AUX)
    Blend: AUG-CC-PVTZ-RI
    Molecular point group: c1

    Geometry (in Angstrom), charge = 0, multiplicity = 1:

       Center              X                  Y                   Z               Mass
    ------------   -----------------  -----------------  -----------------  -----------------
         O            1.084672940600    -1.258954272556     0.267827745346    15.994914619570
         O           -3.044387059400    -0.656390272556     0.356123745346    15.994914619570
         O           -1.719187059400     1.131999727444     0.852891745346    15.994914619570
         N            0.135079940600     0.336414727444    -1.061029254654    14.003074004430
         C            2.378426940600     0.734923727444    -0.181926254654    12.000000000000
         C            1.154711940600    -0.154109272556    -0.268661254654    12.000000000000
         C           -1.140402059400    -0.324810272556    -1.000730254654    12.000000000000
         C            3.473628840600     0.089642227444     0.650761045346    12.000000000000
         C           -1.956394059400     0.140739727444     0.186266745346    12.000000000000
         H            2.700422840600     0.968332427444    -1.203470254654     1.007825032230
         H            2.075998940600     1.693101727444     0.260599745346     1.007825032230
         H           -0.977766059400    -1.401421272556    -0.929309254654     1.007825032230
         H           -1.715974059400    -0.132201272556    -1.915203254654     1.007825032230
         H            0.115502940600     1.339750727444    -1.206569254654     1.007825032230
         H            3.789303940600    -0.858161272556     0.184385745346     1.007825032230
         H            4.360968940600     0.748793727444     0.674334745346     1.007825032230
         H            3.152001940600    -0.112305272556     1.646283745346     1.007825032230
         H           -3.545838059400    -0.279219272556     1.106931745346     1.007825032230

  Basis Set: AUG-CC-PVTZ
    Blend: AUG-CC-PVTZ
  Basis Set: (AUG-CC-PVTZ AUX)
    Blend: AUG-CC-PVTZ-JKFIT
	 Reference Energy          =    -473.8388536000652493 [Eh]
	 Singles Energy            =      -0.0000000000000000 [Eh]
	 Same-Spin Energy          =      -0.4667601302878399 [Eh]
	 Opposite-Spin Energy      =      -1.4577492713699058 [Eh]
	 Correlation Energy        =      -1.9245094016577458 [Eh]
	 Total Energy              =    -475.7633630017230075 [Eh]

	 ================> DF-SCS-MP2 Energies <==================
	-----------------------------------------------------------
	 SCS Same-Spin Scale       =       0.3333333333333333 [-]
	 SCS Opposite-Spin Scale   =       1.2000000000000000 [-]
	 SCS Same-Spin Energy      =      -0.1555867100959466 [Eh]
	 SCS Opposite-Spin Energy  =      -1.7492991256438870 [Eh]
	 SCS Correlation Energy    =      -1.9048858357398337 [Eh]
	 SCS Total Energy          =    -475.7437394358050824 [Eh]
	-----------------------------------------------------------

  Dipole Moment: [D]
     X:    -0.9540      Y:     1.8782      Z:    -1.7395     Total:     2.7320

*** Psi4 exiting successfully. Buy a developer a beer!
