                               Psi4 1.4a3.dev225

  ==> Input File <==

--------------------------------------------------------------------------
#psi4
#
memory 32 gb

molecule  {
0 1
  O        0.8764270    -0.2428500     1.2911470
  O       -3.1675390     0.0980960     0.5443480
  O       -1.5839830     1.3406500    -0.5070920
  N        0.0834400    -0.8734940    -0.7544630
  C        2.2681300     0.2178930    -0.6380450
  C        1.0330250    -0.3000120     0.0721840
  C       -1.2394860    -1.0499030    -0.2084880
  C        3.4385850     0.4137260     0.3159750
  C       -1.9850611     0.2517967    -0.0781870
  H        2.5310470    -0.4685700    -1.4513520
  H        1.9929790     1.1708880    -1.1091590
  H       -1.1549390    -1.4972460     0.7835340
  H       -1.8230450    -1.7308360    -0.8360530
  H        0.1282230    -0.6025030    -1.7308050
  H        3.7379630    -0.5375510     0.7615240
  H        4.2975370     0.8343390    -0.2133880
  H        3.1581410     1.0869690     1.1269820
  H       -3.5812870     0.9851770     0.5837010
units angstrom
no_reorient  #important for SAPT in psi4, default
symmetry c1  #important for SAPT in psi4, default
}

set PROPERTIES_ORIGIN ["COM"]
properties('MP2/aug-cc-pvtz', properties = ['dipole'])
--------------------------------------------------------------------------

    Molecular point group: c1
  Charge       = 0
  Multiplicity = 1
  Basis Set: AUG-CC-PVTZ
    Blend: AUG-CC-PVTZ
  Basis Set: (AUG-CC-PVTZ AUX)
    Blend: AUG-CC-PVTZ-JKFIT

    Orbital Energies [Eh]
    ---------------------

    Doubly Occupied:

       1A    -20.628118     2A    -20.557196     3A    -20.527654
       4A    -15.593885     5A    -11.399488     6A    -11.355341
       7A    -11.292721     8A    -11.243615     9A    -11.217322
      10A     -1.470364    11A     -1.383691    12A     -1.357120
      13A     -1.241296    14A     -1.062665    15A     -1.008365
      16A     -0.890213    17A     -0.828081    18A     -0.784937
      19A     -0.714612    20A     -0.711903    21A     -0.698373
      22A     -0.653756    23A     -0.647439    24A     -0.630081
      25A     -0.603048    26A     -0.595873    27A     -0.560355
      28A     -0.544025    29A     -0.523823    30A     -0.514922
      31A     -0.493732    32A     -0.483765    33A     -0.466804
      34A     -0.432904    35A     -0.412015

  @DF-RHF Final Energy:  -473.83776788626670

   => Energetics <=

    Nuclear Repulsion Energy =            460.3798745137563628
    One-Electron Energy =               -1561.3762812609977573
    Two-Electron Energy =                 627.1586388609747473
    Total Energy =                       -473.8377678862667608
  Basis Set: (AUG-CC-PVTZ AUX)
    Blend: AUG-CC-PVTZ-RI
    Molecular point group: c1

    Geometry (in Angstrom), charge = 0, multiplicity = 1:

       Center              X                  Y                   Z               Mass
    ------------   -----------------  -----------------  -----------------  -----------------
         O            0.947172609408    -0.246919846134     1.274796803524    15.994914619570
         O           -3.096793390592     0.094026153866     0.527997803524    15.994914619570
         O           -1.513237390592     1.336580153866    -0.523442196476    15.994914619570
         N            0.154185609408    -0.877563846134    -0.770813196476    14.003074004430
         C            2.338875609408     0.213823153866    -0.654395196476    12.000000000000
         C            1.103770609408    -0.304081846134     0.055833803524    12.000000000000
         C           -1.168740390592    -1.053972846134    -0.224838196476    12.000000000000
         C            3.509330609408     0.409656153866     0.299624803524    12.000000000000
         C           -1.914315490592     0.247726853866    -0.094537196476    12.000000000000
         H            2.601792609408    -0.472639846134    -1.467702196476     1.007825032230
         H            2.063724609408     1.166818153866    -1.125509196476     1.007825032230
         H           -1.084193390592    -1.501315846134     0.767183803524     1.007825032230
         H           -1.752299390592    -1.734905846134    -0.852403196476     1.007825032230
         H            0.198968609408    -0.606572846134    -1.747155196476     1.007825032230
         H            3.808708609408    -0.541620846134     0.745173803524     1.007825032230
         H            4.368282609408     0.830269153866    -0.229738196476     1.007825032230
         H            3.228886609408     1.082899153866     1.110631803524     1.007825032230
         H           -3.510541390592     0.981107153866     0.567350803524     1.007825032230

  Basis Set: AUG-CC-PVTZ
    Blend: AUG-CC-PVTZ
  Basis Set: (AUG-CC-PVTZ AUX)
    Blend: AUG-CC-PVTZ-JKFIT
	 Reference Energy          =    -473.8377678862667040 [Eh]
	 Singles Energy            =      -0.0000000000000000 [Eh]
	 Same-Spin Energy          =      -0.4671829052836040 [Eh]
	 Opposite-Spin Energy      =      -1.4585990771931643 [Eh]
	 Correlation Energy        =      -1.9257819824767681 [Eh]
	 Total Energy              =    -475.7635498687434961 [Eh]

	 ================> DF-SCS-MP2 Energies <==================
	-----------------------------------------------------------
	 SCS Same-Spin Scale       =       0.3333333333333333 [-]
	 SCS Opposite-Spin Scale   =       1.2000000000000000 [-]
	 SCS Same-Spin Energy      =      -0.1557276350945346 [Eh]
	 SCS Opposite-Spin Energy  =      -1.7503188926317972 [Eh]
	 SCS Correlation Energy    =      -1.9060465277263319 [Eh]
	 SCS Total Energy          =    -475.7438144139930500 [Eh]
	-----------------------------------------------------------

  Dipole Moment: [D]
     X:    -0.9698      Y:    -0.8761      Z:    -2.6039     Total:     2.9135

*** Psi4 exiting successfully. Buy a developer a beer!
