                               Psi4 1.3.2 release

  ==> Input File <==

--------------------------------------------------------------------------
#psi4
#
memory 32 gb

molecule  {
0 1
  O        1.0830410    -1.2590340     0.2697030
  O       -3.0460190    -0.6564700     0.3579990
  O       -1.7208190     1.1319200     0.8547670
  N        0.1489195     0.3084233    -0.9909703
  C        2.3767950     0.7348440    -0.1800510
  C        1.1530800    -0.1541890    -0.2667860
  C       -1.1420340    -0.3248900    -0.9988550
  C        3.4883670     0.0910310     0.6318210
  C       -1.9580260     0.1406600     0.1881420
  H        2.7160870     0.9611190    -1.1975940
  H        2.0743670     1.6930220     0.2624750
  H       -0.9793980    -1.4015010    -0.9274340
  H       -1.7599614    -0.1644976    -1.8916496
  H        0.1138710     1.3396710    -1.2046940
  H        3.7876720    -0.8582410     0.1862610
  H        4.3593370     0.7487140     0.6762100
  H        3.1503700    -0.1123850     1.6481590
  H       -3.5474700    -0.2792990     1.1088070
units angstrom
no_reorient  #important for SAPT in psi4, default
symmetry c1  #important for SAPT in psi4, default
}

set PROPERTIES_ORIGIN ["COM"]
properties('MP2/aug-cc-pvtz', properties = ['dipole'])
--------------------------------------------------------------------------

    Molecular point group: c1
  Charge       = 0
  Multiplicity = 1
  Basis Set: AUG-CC-PVTZ
    Blend: AUG-CC-PVTZ
  Basis Set: (AUG-CC-PVTZ AUX)
    Blend: AUG-CC-PVTZ-JKFIT

    Orbital Energies [Eh]
    ---------------------

    Doubly Occupied:

       1A    -20.626037     2A    -20.563376     3A    -20.516298
       4A    -15.598314     5A    -11.399708     6A    -11.347239
       7A    -11.294438     8A    -11.242442     9A    -11.214680
      10A     -1.469257    11A     -1.385087    12A     -1.368928
      13A     -1.247206    14A     -1.064061    15A     -1.012768
      16A     -0.888378    17A     -0.828323    18A     -0.785940
      19A     -0.717700    20A     -0.713475    21A     -0.699078
      22A     -0.660060    23A     -0.643551    24A     -0.637854
      25A     -0.603756    26A     -0.595363    27A     -0.554555
      28A     -0.542644    29A     -0.524594    30A     -0.515225
      31A     -0.495123    32A     -0.491550    33A     -0.468805
      34A     -0.427787    35A     -0.407864

  @DF-RHF Final Energy:  -473.83456356003279

   => Energetics <=

    Nuclear Repulsion Energy =            459.4710271333484570
    One-Electron Energy =               -1559.5082525919785894
    Two-Electron Energy =                 626.2026618985972846
    Total Energy =                       -473.8345635600327341
  Basis Set: (AUG-CC-PVTZ AUX)
    Blend: AUG-CC-PVTZ-RI
    Molecular point group: c1

    Geometry (in Angstrom), charge = 0, multiplicity = 1:

       Center              X                  Y                   Z               Mass
    ------------   -----------------  -----------------  -----------------  -----------------
         O            1.081713688589    -1.255803873099     0.262251002354    15.994914619570
         O           -3.047346311411    -0.653239873099     0.350547002354    15.994914619570
         O           -1.722146311411     1.135150126901     0.847315002354    15.994914619570
         N            0.147592188589     0.311653426901    -0.998422297646    14.003074004430
         C            2.375467688589     0.738074126901    -0.187502997646    12.000000000000
         C            1.151752688589    -0.150958873099    -0.274237997646    12.000000000000
         C           -1.143361311411    -0.321659873099    -1.006306997646    12.000000000000
         C            3.487039688589     0.094261126901     0.624369002354    12.000000000000
         C           -1.959353311411     0.143890126901     0.180690002354    12.000000000000
         H            2.714759688589     0.964349126901    -1.205045997646     1.007825032230
         H            2.073039688589     1.696252126901     0.255023002354     1.007825032230
         H           -0.980725311411    -1.398270873099    -0.934885997646     1.007825032230
         H           -1.761288711411    -0.161267473099    -1.899101597646     1.007825032230
         H            0.112543688589     1.342901126901    -1.212145997646     1.007825032230
         H            3.786344688589    -0.855010873099     0.178809002354     1.007825032230
         H            4.358009688589     0.751944126901     0.668758002354     1.007825032230
         H            3.149042688589    -0.109154873099     1.640707002354     1.007825032230
         H           -3.548797311411    -0.276068873099     1.101355002354     1.007825032230

  Basis Set: AUG-CC-PVTZ
    Blend: AUG-CC-PVTZ
  Basis Set: (AUG-CC-PVTZ AUX)
    Blend: AUG-CC-PVTZ-JKFIT
	 Reference Energy          =    -473.8345635600327910 [Eh]
	 Singles Energy            =      -0.0000000000000000 [Eh]
	 Same-Spin Energy          =      -0.4670815360315015 [Eh]
	 Opposite-Spin Energy      =      -1.4575737990876088 [Eh]
	 Correlation Energy        =      -1.9246553351191102 [Eh]
	 Total Energy              =    -475.7592188951518892 [Eh]

	 ================> DF-SCS-MP2 Energies <==================
	-----------------------------------------------------------
	 SCS Same-Spin Scale       =       0.3333333333333333 [-]
	 SCS Opposite-Spin Scale   =       1.2000000000000000 [-]
	 SCS Same-Spin Energy      =      -0.1556938453438338 [Eh]
	 SCS Opposite-Spin Energy  =      -1.7490885589051304 [Eh]
	 SCS Correlation Energy    =      -1.9047824042489643 [Eh]
	 SCS Total Energy          =    -475.7393459642817675 [Eh]
	-----------------------------------------------------------

  Dipole Moment: [D]
     X:    -1.1885      Y:     2.0158      Z:    -2.0186     Total:     3.0904

*** Psi4 exiting successfully. Buy a developer a beer!
