                               Psi4 1.3.2 release

  ==> Input File <==

--------------------------------------------------------------------------
#psi4
#
memory 32 gb

molecule  {
0 1
  O        1.0930096    -1.2577775     0.2734846
  O       -3.0460190    -0.6564700     0.3579990
  O       -1.7208190     1.1319200     0.8547670
  N        0.1334480     0.3363350    -1.0591540
  C        2.3828449     0.7256977    -0.1726655
  C        1.1530800    -0.1541890    -0.2667860
  C       -1.1420340    -0.3248900    -0.9988550
  C        3.4883670     0.0910310     0.6318210
  C       -1.9580260     0.1406600     0.1881420
  H        2.7160870     0.9611190    -1.1975940
  H        2.0743670     1.6930220     0.2624750
  H       -0.9793980    -1.4015010    -0.9274340
  H       -1.7176060    -0.1322810    -1.9133280
  H        0.1138710     1.3396710    -1.2046940
  H        3.7876720    -0.8582410     0.1862610
  H        4.3593370     0.7487140     0.6762100
  H        3.1503700    -0.1123850     1.6481590
  H       -3.5474700    -0.2792990     1.1088070
units angstrom
no_reorient  #important for SAPT in psi4, default
symmetry c1  #important for SAPT in psi4, default
}

set PROPERTIES_ORIGIN ["COM"]
properties('MP2/aug-cc-pvtz', properties = ['dipole'])
--------------------------------------------------------------------------

    Molecular point group: c1
  Charge       = 0
  Multiplicity = 1
  Basis Set: AUG-CC-PVTZ
    Blend: AUG-CC-PVTZ
  Basis Set: (AUG-CC-PVTZ AUX)
    Blend: AUG-CC-PVTZ-JKFIT

    Orbital Energies [Eh]
    ---------------------

    Doubly Occupied:

       1A    -20.625756     2A    -20.563224     3A    -20.528545
       4A    -15.593618     5A    -11.399277     6A    -11.355991
       7A    -11.291504     8A    -11.244381     9A    -11.215578
      10A     -1.468806    11A     -1.384696    12A     -1.368861
      13A     -1.242561    14A     -1.064176    15A     -1.007067
      16A     -0.889520    17A     -0.824629    18A     -0.785925
      19A     -0.716376    20A     -0.712912    21A     -0.698213
      22A     -0.653547    23A     -0.644373    24A     -0.636055
      25A     -0.604423    26A     -0.599921    27A     -0.560216
      28A     -0.540699    29A     -0.528139    30A     -0.517176
      31A     -0.494146    32A     -0.490424    33A     -0.469501
      34A     -0.433432    35A     -0.410576

  @DF-RHF Final Energy:  -473.83937995474480

   => Energetics <=

    Nuclear Repulsion Energy =            458.0360431429103301
    One-Electron Energy =               -1556.6223589596124839
    Two-Electron Energy =                 624.7469358619573541
    Total Energy =                       -473.8393799547447998
  Basis Set: (AUG-CC-PVTZ AUX)
    Blend: AUG-CC-PVTZ-RI
    Molecular point group: c1

    Geometry (in Angstrom), charge = 0, multiplicity = 1:

       Center              X                  Y                   Z               Mass
    ------------   -----------------  -----------------  -----------------  -----------------
         O            1.091239096483    -1.257093266427     0.272346719208    15.994914619570
         O           -3.047789503517    -0.655785766427     0.356861119208    15.994914619570
         O           -1.722589503517     1.132604233573     0.853629119208    15.994914619570
         N            0.131677496483     0.337019233573    -1.060291880792    14.003074004430
         C            2.381074396483     0.726381933573    -0.173803380792    12.000000000000
         C            1.151309496483    -0.153504766427    -0.267923880792    12.000000000000
         C           -1.143804503517    -0.324205766427    -0.999992880792    12.000000000000
         C            3.486596496483     0.091715233573     0.630683119208    12.000000000000
         C           -1.959796503517     0.141344233573     0.187004119208    12.000000000000
         H            2.714316496483     0.961803233573    -1.198731880792     1.007825032230
         H            2.072596496483     1.693706233573     0.261337119208     1.007825032230
         H           -0.981168503517    -1.400816766427    -0.928571880792     1.007825032230
         H           -1.719376503517    -0.131596766427    -1.914465880792     1.007825032230
         H            0.112100496483     1.340355233573    -1.205831880792     1.007825032230
         H            3.785901496483    -0.857556766427     0.185123119208     1.007825032230
         H            4.357566496483     0.749398233573     0.675072119208     1.007825032230
         H            3.148599496483    -0.111700766427     1.647021119208     1.007825032230
         H           -3.549240503517    -0.278614766427     1.107669119208     1.007825032230

  Basis Set: AUG-CC-PVTZ
    Blend: AUG-CC-PVTZ
  Basis Set: (AUG-CC-PVTZ AUX)
    Blend: AUG-CC-PVTZ-JKFIT
	 Reference Energy          =    -473.8393799547447998 [Eh]
	 Singles Energy            =      -0.0000000000000000 [Eh]
	 Same-Spin Energy          =      -0.4667961845312988 [Eh]
	 Opposite-Spin Energy      =      -1.4577705947351385 [Eh]
	 Correlation Energy        =      -1.9245667792664372 [Eh]
	 Total Energy              =    -475.7639467340112560 [Eh]

	 ================> DF-SCS-MP2 Energies <==================
	-----------------------------------------------------------
	 SCS Same-Spin Scale       =       0.3333333333333333 [-]
	 SCS Opposite-Spin Scale   =       1.2000000000000000 [-]
	 SCS Same-Spin Energy      =      -0.1555987281770996 [Eh]
	 SCS Opposite-Spin Energy  =      -1.7493247136821661 [Eh]
	 SCS Correlation Energy    =      -1.9049234418592658 [Eh]
	 SCS Total Energy          =    -475.7443033966040389 [Eh]
	-----------------------------------------------------------

  Dipole Moment: [D]
     X:    -0.9802      Y:     1.8708      Z:    -1.7527     Total:     2.7445

*** Psi4 exiting successfully. Buy a developer a beer!
