                               Psi4 1.3.2 release

  ==> Input File <==

--------------------------------------------------------------------------
#psi4
#
memory 32 gb

molecule  {
0 1
  O        1.0830410    -1.2590340     0.2697030
  O       -3.0642429    -0.6164890     0.4139869
  O       -1.7208190     1.1319200     0.8547670
  N        0.1334480     0.3363350    -1.0591540
  C        2.3767950     0.7348440    -0.1800510
  C        1.1530800    -0.1541890    -0.2667860
  C       -1.0913963    -0.2656021    -0.9846520
  C        3.4883670     0.0910310     0.6318210
  C       -1.9580260     0.1406600     0.1881420
  H        2.7160870     0.9611190    -1.1975940
  H        2.0743670     1.6930220     0.2624750
  H       -0.9793980    -1.4015010    -0.9274340
  H       -1.7176060    -0.1322810    -1.9133280
  H        0.1138710     1.3396710    -1.2046940
  H        3.7876720    -0.8582410     0.1862610
  H        4.3593370     0.7487140     0.6762100
  H        3.1503700    -0.1123850     1.6481590
  H       -3.5474700    -0.2792990     1.1088070
units angstrom
no_reorient  #important for SAPT in psi4, default
symmetry c1  #important for SAPT in psi4, default
}

set PROPERTIES_ORIGIN ["COM"]
properties('MP2/aug-cc-pvtz', properties = ['dipole'])
--------------------------------------------------------------------------

    Molecular point group: c1
  Charge       = 0
  Multiplicity = 1
  Basis Set: AUG-CC-PVTZ
    Blend: AUG-CC-PVTZ
  Basis Set: (AUG-CC-PVTZ AUX)
    Blend: AUG-CC-PVTZ-JKFIT

    Orbital Energies [Eh]
    ---------------------

    Doubly Occupied:

       1A    -20.615549     2A    -20.555804     3A    -20.533437
       4A    -15.596327     5A    -11.396085     6A    -11.360375
       7A    -11.294657     8A    -11.246990     9A    -11.218424
      10A     -1.474218    11A     -1.391213    12A     -1.367762
      13A     -1.262495    14A     -1.066813    15A     -1.004204
      16A     -0.898335    17A     -0.837384    18A     -0.793753
      19A     -0.726168    20A     -0.713797    21A     -0.698910
      22A     -0.667898    23A     -0.641704    24A     -0.638228
      25A     -0.608298    26A     -0.598743    27A     -0.543680
      28A     -0.541415    29A     -0.525771    30A     -0.519735
      31A     -0.496786    32A     -0.486501    33A     -0.465982
      34A     -0.439301    35A     -0.412444

  @DF-RHF Final Energy:  -473.83136168295175

   => Energetics <=

    Nuclear Repulsion Energy =            459.2183542085801378
    One-Electron Energy =               -1558.8210622034200696
    Two-Electron Energy =                 625.7713463118881236
    Total Energy =                       -473.8313616829517514
  Basis Set: (AUG-CC-PVTZ AUX)
    Blend: AUG-CC-PVTZ-RI
    Molecular point group: c1

    Geometry (in Angstrom), charge = 0, multiplicity = 1:

       Center              X                  Y                   Z               Mass
    ------------   -----------------  -----------------  -----------------  -----------------
         O            1.080628667571    -1.269341867622     0.261569410361    15.994914619570
         O           -3.066655232429    -0.626796867622     0.405853310361    15.994914619570
         O           -1.723231332429     1.121612132378     0.846633410361    15.994914619570
         N            0.131035667571     0.326027132378    -1.067287589639    14.003074004430
         C            2.374382667571     0.724536132378    -0.188184589639    12.000000000000
         C            1.150667667571    -0.164496867622    -0.274919589639    12.000000000000
         C           -1.093808632429    -0.275909967622    -0.992785589639    12.000000000000
         C            3.485954667571     0.080723132378     0.623687410361    12.000000000000
         C           -1.960438332429     0.130352132378     0.180008410361    12.000000000000
         H            2.713674667571     0.950811132378    -1.205727589639     1.007825032230
         H            2.071954667571     1.682714132378     0.254341410361     1.007825032230
         H           -0.981810332429    -1.411808867622    -0.935567589639     1.007825032230
         H           -1.720018332429    -0.142588867622    -1.921461589639     1.007825032230
         H            0.111458667571     1.329363132378    -1.212827589639     1.007825032230
         H            3.785259667571    -0.868548867622     0.178127410361     1.007825032230
         H            4.356924667571     0.738406132378     0.668076410361     1.007825032230
         H            3.147957667571    -0.122692867622     1.640025410361     1.007825032230
         H           -3.549882332429    -0.289606867622     1.100673410361     1.007825032230

  Basis Set: AUG-CC-PVTZ
    Blend: AUG-CC-PVTZ
  Basis Set: (AUG-CC-PVTZ AUX)
    Blend: AUG-CC-PVTZ-JKFIT
	 Reference Energy          =    -473.8313616829517514 [Eh]
	 Singles Energy            =      -0.0000000000000000 [Eh]
	 Same-Spin Energy          =      -0.4661862357261730 [Eh]
	 Opposite-Spin Energy      =      -1.4554729308710741 [Eh]
	 Correlation Energy        =      -1.9216591665972471 [Eh]
	 Total Energy              =    -475.7530208495489887 [Eh]

	 ================> DF-SCS-MP2 Energies <==================
	-----------------------------------------------------------
	 SCS Same-Spin Scale       =       0.3333333333333333 [-]
	 SCS Opposite-Spin Scale   =       1.2000000000000000 [-]
	 SCS Same-Spin Energy      =      -0.1553954119087243 [Eh]
	 SCS Opposite-Spin Energy  =      -1.7465675170452888 [Eh]
	 SCS Correlation Energy    =      -1.9019629289540130 [Eh]
	 SCS Total Energy          =    -475.7333246119057435 [Eh]
	-----------------------------------------------------------

  Dipole Moment: [D]
     X:    -0.5879      Y:     1.8564      Z:    -1.8424     Total:     2.6807

*** Psi4 exiting successfully. Buy a developer a beer!
