                               Psi4 1.3.2 release

  ==> Input File <==

--------------------------------------------------------------------------
#psi4
#
memory 32 gb

molecule  {
0 1
  O        1.0830410    -1.2590340     0.2697030
  O       -3.0460190    -0.6564700     0.3579990
  O       -1.7208190     1.1319200     0.8547670
  N        0.1334480     0.3363350    -1.0591540
  C        2.3767950     0.7348440    -0.1800510
  C        1.1530800    -0.1541890    -0.2667860
  C       -1.1643885    -0.2805052    -1.0058873
  C        3.4883670     0.0910310     0.6318210
  C       -1.9580260     0.1406600     0.1881420
  H        2.7160870     0.9611190    -1.1975940
  H        2.0743670     1.6930220     0.2624750
  H       -0.9793980    -1.4015010    -0.9274340
  H       -1.7176060    -0.1322810    -1.9133280
  H        0.0785138     1.3382449    -1.2054653
  H        3.7876720    -0.8582410     0.1862610
  H        4.3593370     0.7487140     0.6762100
  H        3.1503700    -0.1123850     1.6481590
  H       -3.5474700    -0.2792990     1.1088070
units angstrom
no_reorient  #important for SAPT in psi4, default
symmetry c1  #important for SAPT in psi4, default
}

set PROPERTIES_ORIGIN ["COM"]
properties('MP2/aug-cc-pvtz', properties = ['dipole'])
--------------------------------------------------------------------------

    Molecular point group: c1
  Charge       = 0
  Multiplicity = 1
  Basis Set: AUG-CC-PVTZ
    Blend: AUG-CC-PVTZ
  Basis Set: (AUG-CC-PVTZ AUX)
    Blend: AUG-CC-PVTZ-JKFIT

    Orbital Energies [Eh]
    ---------------------

    Doubly Occupied:

       1A    -20.625960     2A    -20.562645     3A    -20.529649
       4A    -15.592940     5A    -11.398781     6A    -11.357623
       7A    -11.290189     8A    -11.244423     9A    -11.216559
      10A     -1.469224    11A     -1.385135    12A     -1.369074
      13A     -1.242290    14A     -1.063780    15A     -1.008016
      16A     -0.891121    17A     -0.825260    18A     -0.784553
      19A     -0.717230    20A     -0.714248    21A     -0.701549
      22A     -0.656466    23A     -0.639428    24A     -0.637325
      25A     -0.604907    26A     -0.600802    27A     -0.547766
      28A     -0.541912    29A     -0.526152    30A     -0.517506
      31A     -0.495562    32A     -0.491413    33A     -0.469678
      34A     -0.435311    35A     -0.411397

  @DF-RHF Final Energy:  -473.83617291436309

   => Energetics <=

    Nuclear Repulsion Energy =            458.0831397109178624
    One-Electron Energy =               -1556.7068765569074458
    Two-Electron Energy =                 624.7875639316266643
    Total Energy =                       -473.8361729143630328
  Basis Set: (AUG-CC-PVTZ AUX)
    Blend: AUG-CC-PVTZ-RI
    Molecular point group: c1

    Geometry (in Angstrom), charge = 0, multiplicity = 1:

       Center              X                  Y                   Z               Mass
    ------------   -----------------  -----------------  -----------------  -----------------
         O            1.085359774381    -1.263086884182     0.270352700813    15.994914619570
         O           -3.043700225619    -0.660522884182     0.358648700813    15.994914619570
         O           -1.718500225619     1.127867115818     0.855416700813    15.994914619570
         N            0.135766774381     0.332282115818    -1.058504299187    14.003074004430
         C            2.379113774381     0.730791115818    -0.179401299187    12.000000000000
         C            1.155398774381    -0.158241884182    -0.266136299187    12.000000000000
         C           -1.162069725619    -0.284558084182    -1.005237599187    12.000000000000
         C            3.490685774381     0.086978115818     0.632470700813    12.000000000000
         C           -1.955707225619     0.136607115818     0.188791700813    12.000000000000
         H            2.718405774381     0.957066115818    -1.196944299187     1.007825032230
         H            2.076685774381     1.688969115818     0.263124700813     1.007825032230
         H           -0.977079225619    -1.405553884182    -0.926784299187     1.007825032230
         H           -1.715287225619    -0.136333884182    -1.912678299187     1.007825032230
         H            0.080832574381     1.334192015818    -1.204815599187     1.007825032230
         H            3.789990774381    -0.862293884182     0.186910700813     1.007825032230
         H            4.361655774381     0.744661115818     0.676859700813     1.007825032230
         H            3.152688774381    -0.116437884182     1.648808700813     1.007825032230
         H           -3.545151225619    -0.283351884182     1.109456700813     1.007825032230

  Basis Set: AUG-CC-PVTZ
    Blend: AUG-CC-PVTZ
  Basis Set: (AUG-CC-PVTZ AUX)
    Blend: AUG-CC-PVTZ-JKFIT
	 Reference Energy          =    -473.8361729143630896 [Eh]
	 Singles Energy            =      -0.0000000000000000 [Eh]
	 Same-Spin Energy          =      -0.4669772436698226 [Eh]
	 Opposite-Spin Energy      =      -1.4581773450835540 [Eh]
	 Correlation Energy        =      -1.9251545887533767 [Eh]
	 Total Energy              =    -475.7613275031164903 [Eh]

	 ================> DF-SCS-MP2 Energies <==================
	-----------------------------------------------------------
	 SCS Same-Spin Scale       =       0.3333333333333333 [-]
	 SCS Opposite-Spin Scale   =       1.2000000000000000 [-]
	 SCS Same-Spin Energy      =      -0.1556590812232742 [Eh]
	 SCS Opposite-Spin Energy  =      -1.7498128141002647 [Eh]
	 SCS Correlation Energy    =      -1.9054718953235388 [Eh]
	 SCS Total Energy          =    -475.7416448096866475 [Eh]
	-----------------------------------------------------------

  Dipole Moment: [D]
     X:    -0.9611      Y:     1.8860      Z:    -1.7420     Total:     2.7413

*** Psi4 exiting successfully. Buy a developer a beer!
