                               Psi4 1.3.2 release

  ==> Input File <==

--------------------------------------------------------------------------
#psi4
#
memory 32 gb

molecule  {
0 1
  O        1.0249413    -1.2664774     0.2429230
  O       -3.0460190    -0.6564700     0.3579990
  O       -1.7208190     1.1319200     0.8547670
  N        0.0969073     0.2751845    -1.0466885
  C        2.3767950     0.7348440    -0.1800510
  C        1.1530800    -0.1541890    -0.2667860
  C       -1.1420340    -0.3248900    -0.9988550
  C        3.4883670     0.0910310     0.6318210
  C       -1.9580260     0.1406600     0.1881420
  H        2.7160870     0.9611190    -1.1975940
  H        2.0743670     1.6930220     0.2624750
  H       -0.9793980    -1.4015010    -0.9274340
  H       -1.7176060    -0.1322810    -1.9133280
  H        0.1138710     1.3396710    -1.2046940
  H        3.7876720    -0.8582410     0.1862610
  H        4.3593370     0.7487140     0.6762100
  H        3.1503700    -0.1123850     1.6481590
  H       -3.5474700    -0.2792990     1.1088070
units angstrom
no_reorient  #important for SAPT in psi4, default
symmetry c1  #important for SAPT in psi4, default
}

set PROPERTIES_ORIGIN ["COM"]
properties('MP2/aug-cc-pvtz', properties = ['dipole'])
--------------------------------------------------------------------------

    Molecular point group: c1
  Charge       = 0
  Multiplicity = 1
  Basis Set: AUG-CC-PVTZ
    Blend: AUG-CC-PVTZ
  Basis Set: (AUG-CC-PVTZ AUX)
    Blend: AUG-CC-PVTZ-JKFIT

    Orbital Energies [Eh]
    ---------------------

    Doubly Occupied:

       1A    -20.622633     2A    -20.560560     3A    -20.525605
       4A    -15.591094     5A    -11.394876     6A    -11.356483
       7A    -11.283331     8A    -11.251345     9A    -11.221035
      10A     -1.465869    11A     -1.387935    12A     -1.366128
      13A     -1.243485    14A     -1.068808    15A     -1.003181
      16A     -0.892846    17A     -0.828088    18A     -0.769058
      19A     -0.716875    20A     -0.713863    21A     -0.700448
      22A     -0.659610    23A     -0.641584    24A     -0.639145
      25A     -0.604105    26A     -0.599736    27A     -0.545659
      28A     -0.540729    29A     -0.531807    30A     -0.521106
      31A     -0.498470    32A     -0.490089    33A     -0.467941
      34A     -0.434618    35A     -0.402454

  @DF-RHF Final Energy:  -473.82959489969051

   => Energetics <=

    Nuclear Repulsion Energy =            459.2702260578129767
    One-Electron Energy =               -1559.1184483487572834
    Two-Electron Energy =                 626.0186273912537445
    Total Energy =                       -473.8295948996905054
  Basis Set: (AUG-CC-PVTZ AUX)
    Blend: AUG-CC-PVTZ-RI
    Molecular point group: c1

    Geometry (in Angstrom), charge = 0, multiplicity = 1:

       Center              X                  Y                   Z               Mass
    ------------   -----------------  -----------------  -----------------  -----------------
         O            1.035936323723    -1.259035151721     0.244859331512    15.994914619570
         O           -3.035023976277    -0.649027751721     0.359935331512    15.994914619570
         O           -1.709823976277     1.139362248279     0.856703331512    15.994914619570
         N            0.107902323723     0.282626748279    -1.044752168488    14.003074004430
         C            2.387790023723     0.742286248279    -0.178114668488    12.000000000000
         C            1.164075023723    -0.146746751721    -0.264849668488    12.000000000000
         C           -1.131038976277    -0.317447751721    -0.996918668488    12.000000000000
         C            3.499362023723     0.098473248279     0.633757331512    12.000000000000
         C           -1.947030976277     0.148102248279     0.190078331512    12.000000000000
         H            2.727082023723     0.968561248279    -1.195657668488     1.007825032230
         H            2.085362023723     1.700464248279     0.264411331512     1.007825032230
         H           -0.968402976277    -1.394058751721    -0.925497668488     1.007825032230
         H           -1.706610976277    -0.124838751721    -1.911391668488     1.007825032230
         H            0.124866023723     1.347113248279    -1.202757668488     1.007825032230
         H            3.798667023723    -0.850798751721     0.188197331512     1.007825032230
         H            4.370332023723     0.756156248279     0.678146331512     1.007825032230
         H            3.161365023723    -0.104942751721     1.650095331512     1.007825032230
         H           -3.536474976277    -0.271856751721     1.110743331512     1.007825032230

  Basis Set: AUG-CC-PVTZ
    Blend: AUG-CC-PVTZ
  Basis Set: (AUG-CC-PVTZ AUX)
    Blend: AUG-CC-PVTZ-JKFIT
	 Reference Energy          =    -473.8295948996905054 [Eh]
	 Singles Energy            =      -0.0000000000000000 [Eh]
	 Same-Spin Energy          =      -0.4675895066592392 [Eh]
	 Opposite-Spin Energy      =      -1.4587501428131118 [Eh]
	 Correlation Energy        =      -1.9263396494723510 [Eh]
	 Total Energy              =    -475.7559345491628733 [Eh]

	 ================> DF-SCS-MP2 Energies <==================
	-----------------------------------------------------------
	 SCS Same-Spin Scale       =       0.3333333333333333 [-]
	 SCS Opposite-Spin Scale   =       1.2000000000000000 [-]
	 SCS Same-Spin Energy      =      -0.1558631688864131 [Eh]
	 SCS Opposite-Spin Energy  =      -1.7505001713757340 [Eh]
	 SCS Correlation Energy    =      -1.9063633402621472 [Eh]
	 SCS Total Energy          =    -475.7359582399526516 [Eh]
	-----------------------------------------------------------

  Dipole Moment: [D]
     X:    -0.5718      Y:     1.9820      Z:    -1.6962     Total:     2.6706

*** Psi4 exiting successfully. Buy a developer a beer!
