                               Psi4 1.3.2 release

  ==> Input File <==

--------------------------------------------------------------------------
#psi4
#
memory 32 gb

molecule  {
0 1
  O        1.0830410    -1.2590340     0.2697030
  O       -3.0460190    -0.6564700     0.3579990
  O       -1.7208190     1.1319200     0.8547670
  N        0.1145944     0.3741020    -0.9968191
  C        2.3767950     0.7348440    -0.1800510
  C        1.1530800    -0.1541890    -0.2667860
  C       -1.1420340    -0.3248900    -0.9988550
  C        3.4883670     0.0910310     0.6318210
  C       -1.8982655     0.1889205     0.2076500
  H        2.7160870     0.9611190    -1.1975940
  H        2.0743670     1.6930220     0.2624750
  H       -0.9793980    -1.4015010    -0.9274340
  H       -1.7176060    -0.1322810    -1.9133280
  H        0.1138710     1.3396710    -1.2046940
  H        3.7876720    -0.8582410     0.1862610
  H        4.3593370     0.7487140     0.6762100
  H        3.1503700    -0.1123850     1.6481590
  H       -3.5474700    -0.2792990     1.1088070
units angstrom
no_reorient  #important for SAPT in psi4, default
symmetry c1  #important for SAPT in psi4, default
}

set PROPERTIES_ORIGIN ["COM"]
properties('MP2/aug-cc-pvtz', properties = ['dipole'])
--------------------------------------------------------------------------

    Molecular point group: c1
  Charge       = 0
  Multiplicity = 1
  Basis Set: AUG-CC-PVTZ
    Blend: AUG-CC-PVTZ
  Basis Set: (AUG-CC-PVTZ AUX)
    Blend: AUG-CC-PVTZ-JKFIT

    Orbital Energies [Eh]
    ---------------------

    Doubly Occupied:

       1A    -20.601433     2A    -20.576173     3A    -20.528176
       4A    -15.591158     5A    -11.393264     6A    -11.356757
       7A    -11.293054     8A    -11.244931     9A    -11.217152
      10A     -1.476280    11A     -1.385073    12A     -1.367573
      13A     -1.248181    14A     -1.064848    15A     -1.005640
      16A     -0.887018    17A     -0.808024    18A     -0.795502
      19A     -0.720855    20A     -0.710238    21A     -0.700686
      22A     -0.651602    23A     -0.642877    24A     -0.637560
      25A     -0.609455    26A     -0.601751    27A     -0.560021
      28A     -0.543261    29A     -0.525839    30A     -0.518357
      31A     -0.504824    32A     -0.495458    33A     -0.471797
      34A     -0.432893    35A     -0.408152

  @DF-RHF Final Energy:  -473.83185156895354

   => Energetics <=

    Nuclear Repulsion Energy =            459.3178919558899338
    One-Electron Energy =               -1559.1477570760237086
    Two-Electron Energy =                 625.9980135511801791
    Total Energy =                       -473.8318515689535388
  Basis Set: (AUG-CC-PVTZ AUX)
    Blend: AUG-CC-PVTZ-RI
    Molecular point group: c1

    Geometry (in Angstrom), charge = 0, multiplicity = 1:

       Center              X                  Y                   Z               Mass
    ------------   -----------------  -----------------  -----------------  -----------------
         O            1.079583674405    -1.267487979003     0.261256430906    15.994914619570
         O           -3.049476325595    -0.664923979003     0.349552430906    15.994914619570
         O           -1.724276325595     1.123466020997     0.846320430906    15.994914619570
         N            0.111137074405     0.365648020997    -1.005265669094    14.003074004430
         C            2.373337674405     0.726390020997    -0.188497569094    12.000000000000
         C            1.149622674405    -0.162642979003    -0.275232569094    12.000000000000
         C           -1.145491325595    -0.333343979003    -1.007301569094    12.000000000000
         C            3.484909674405     0.082577020997     0.623374430906    12.000000000000
         C           -1.901722825595     0.180466520997     0.199203430906    12.000000000000
         H            2.712629674405     0.952665020997    -1.206040569094     1.007825032230
         H            2.070909674405     1.684568020997     0.254028430906     1.007825032230
         H           -0.982855325595    -1.409954979003    -0.935880569094     1.007825032230
         H           -1.721063325595    -0.140734979003    -1.921774569094     1.007825032230
         H            0.110413674405     1.331217020997    -1.213140569094     1.007825032230
         H            3.784214674405    -0.866694979003     0.177814430906     1.007825032230
         H            4.355879674405     0.740260020997     0.667763430906     1.007825032230
         H            3.146912674405    -0.120838979003     1.639712430906     1.007825032230
         H           -3.550927325595    -0.287752979003     1.100360430906     1.007825032230

  Basis Set: AUG-CC-PVTZ
    Blend: AUG-CC-PVTZ
  Basis Set: (AUG-CC-PVTZ AUX)
    Blend: AUG-CC-PVTZ-JKFIT
	 Reference Energy          =    -473.8318515689535388 [Eh]
	 Singles Energy            =      -0.0000000000000000 [Eh]
	 Same-Spin Energy          =      -0.4662234255752962 [Eh]
	 Opposite-Spin Energy      =      -1.4567449545779985 [Eh]
	 Correlation Energy        =      -1.9229683801532946 [Eh]
	 Total Energy              =    -475.7548199491068317 [Eh]

	 ================> DF-SCS-MP2 Energies <==================
	-----------------------------------------------------------
	 SCS Same-Spin Scale       =       0.3333333333333333 [-]
	 SCS Opposite-Spin Scale   =       1.2000000000000000 [-]
	 SCS Same-Spin Energy      =      -0.1554078085250987 [Eh]
	 SCS Opposite-Spin Energy  =      -1.7480939454935982 [Eh]
	 SCS Correlation Energy    =      -1.9035017540186969 [Eh]
	 SCS Total Energy          =    -475.7353533229722302 [Eh]
	-----------------------------------------------------------

  Dipole Moment: [D]
     X:    -0.4714      Y:     2.3379      Z:    -1.8957     Total:     3.0466

*** Psi4 exiting successfully. Buy a developer a beer!
