                               Psi4 1.3.2 release

  ==> Input File <==

--------------------------------------------------------------------------
#psi4
#
memory 32 gb

molecule  {
0 1
  O        1.1429059    -1.2502366     0.2917698
  O       -3.0460190    -0.6564700     0.3579990
  O       -1.7208190     1.1319200     0.8547670
  N        0.1334480     0.3363350    -1.0591540
  C        2.4116807     0.6789753    -0.1358565
  C        1.1530800    -0.1541890    -0.2667860
  C       -1.1420340    -0.3248900    -0.9988550
  C        3.4883670     0.0910310     0.6318210
  C       -1.9580260     0.1406600     0.1881420
  H        2.7160870     0.9611190    -1.1975940
  H        2.0743670     1.6930220     0.2624750
  H       -0.9793980    -1.4015010    -0.9274340
  H       -1.7176060    -0.1322810    -1.9133280
  H        0.1138710     1.3396710    -1.2046940
  H        3.7876720    -0.8582410     0.1862610
  H        4.3593370     0.7487140     0.6762100
  H        3.1503700    -0.1123850     1.6481590
  H       -3.5474700    -0.2792990     1.1088070
units angstrom
no_reorient  #important for SAPT in psi4, default
symmetry c1  #important for SAPT in psi4, default
}

set PROPERTIES_ORIGIN ["COM"]
properties('MP2/aug-cc-pvtz', properties = ['dipole'])
--------------------------------------------------------------------------

    Molecular point group: c1
  Charge       = 0
  Multiplicity = 1
  Basis Set: AUG-CC-PVTZ
    Blend: AUG-CC-PVTZ
  Basis Set: (AUG-CC-PVTZ AUX)
    Blend: AUG-CC-PVTZ-JKFIT

    Orbital Energies [Eh]
    ---------------------

    Doubly Occupied:

       1A    -20.626959     2A    -20.564567     3A    -20.527339
       4A    -15.597457     5A    -11.400676     6A    -11.355767
       7A    -11.294342     8A    -11.245828     9A    -11.211071
      10A     -1.470067    11A     -1.384126    12A     -1.370084
      13A     -1.245977    14A     -1.068895    15A     -1.011688
      16A     -0.888724    17A     -0.824408    18A     -0.787136
      19A     -0.717626    20A     -0.712605    21A     -0.697150
      22A     -0.656067    23A     -0.645023    24A     -0.632496
      25A     -0.605328    26A     -0.601626    27A     -0.563628
      28A     -0.547368    29A     -0.539320    30A     -0.512377
      31A     -0.494397    32A     -0.476848    33A     -0.468925
      34A     -0.429437    35A     -0.412186

  @DF-RHF Final Energy:  -473.83043325623566

   => Energetics <=

    Nuclear Repulsion Energy =            458.1349602620588257
    One-Electron Energy =               -1556.7557527197420768
    Two-Electron Energy =                 624.7903592014476999
    Total Energy =                       -473.8304332562356649
  Basis Set: (AUG-CC-PVTZ AUX)
    Blend: AUG-CC-PVTZ-RI
    Molecular point group: c1

    Geometry (in Angstrom), charge = 0, multiplicity = 1:

       Center              X                  Y                   Z               Mass
    ------------   -----------------  -----------------  -----------------  -----------------
         O            1.132405562855    -1.246194677985     0.285029996009    15.994914619570
         O           -3.056519337145    -0.652428077985     0.351259196009    15.994914619570
         O           -1.731319337145     1.135961922015     0.848027196009    15.994914619570
         N            0.122947662855     0.340376922015    -1.065893803991    14.003074004430
         C            2.401180362855     0.683017222015    -0.142596303991    12.000000000000
         C            1.142579662855    -0.150147077985    -0.273525803991    12.000000000000
         C           -1.152534337145    -0.320848077985    -1.005594803991    12.000000000000
         C            3.477866662855     0.095072922015     0.625081196009    12.000000000000
         C           -1.968526337145     0.144701922015     0.181402196009    12.000000000000
         H            2.705586662855     0.965160922015    -1.204333803991     1.007825032230
         H            2.063866662855     1.697063922015     0.255735196009     1.007825032230
         H           -0.989898337145    -1.397459077985    -0.934173803991     1.007825032230
         H           -1.728106337145    -0.128239077985    -1.920067803991     1.007825032230
         H            0.103370662855     1.343712922015    -1.211433803991     1.007825032230
         H            3.777171662855    -0.854199077985     0.179521196009     1.007825032230
         H            4.348836662855     0.752755922015     0.669470196009     1.007825032230
         H            3.139869662855    -0.108343077985     1.641419196009     1.007825032230
         H           -3.557970337145    -0.275257077985     1.102067196009     1.007825032230

  Basis Set: AUG-CC-PVTZ
    Blend: AUG-CC-PVTZ
  Basis Set: (AUG-CC-PVTZ AUX)
    Blend: AUG-CC-PVTZ-JKFIT
	 Reference Energy          =    -473.8304332562356649 [Eh]
	 Singles Energy            =      -0.0000000000000000 [Eh]
	 Same-Spin Energy          =      -0.4673376712544259 [Eh]
	 Opposite-Spin Energy      =      -1.4584832741948845 [Eh]
	 Correlation Energy        =      -1.9258209454493105 [Eh]
	 Total Energy              =    -475.7562542016849534 [Eh]

	 ================> DF-SCS-MP2 Energies <==================
	-----------------------------------------------------------
	 SCS Same-Spin Scale       =       0.3333333333333333 [-]
	 SCS Opposite-Spin Scale   =       1.2000000000000000 [-]
	 SCS Same-Spin Energy      =      -0.1557792237514753 [Eh]
	 SCS Opposite-Spin Energy  =      -1.7501799290338613 [Eh]
	 SCS Correlation Energy    =      -1.9059591527853366 [Eh]
	 SCS Total Energy          =    -475.7363924090209935 [Eh]
	-----------------------------------------------------------

  Dipole Moment: [D]
     X:    -1.1256      Y:     1.8289      Z:    -1.7756     Total:     2.7865

*** Psi4 exiting successfully. Buy a developer a beer!
