                               Psi4 1.3.2 release

  ==> Input File <==

--------------------------------------------------------------------------
#psi4
#
memory 32 gb

molecule  {
0 1
  O        1.0830410    -1.2590340     0.2697030
  O       -3.0460190    -0.6564700     0.3579990
  O       -1.7208190     1.1319200     0.8547670
  N        0.1076490     0.2969165    -1.0488909
  C        2.3992675     0.6992192    -0.1480755
  C        1.1530800    -0.1541890    -0.2667860
  C       -1.1420340    -0.3248900    -0.9988550
  C        3.4883670     0.0910310     0.6318210
  C       -1.9580260     0.1406600     0.1881420
  H        2.7160870     0.9611190    -1.1975940
  H        2.0743670     1.6930220     0.2624750
  H       -0.9793980    -1.4015010    -0.9274340
  H       -1.7176060    -0.1322810    -1.9133280
  H        0.1138710     1.3396710    -1.2046940
  H        3.7876720    -0.8582410     0.1862610
  H        4.3593370     0.7487140     0.6762100
  H        3.1503700    -0.1123850     1.6481590
  H       -3.5474700    -0.2792990     1.1088070
units angstrom
no_reorient  #important for SAPT in psi4, default
symmetry c1  #important for SAPT in psi4, default
}

set PROPERTIES_ORIGIN ["COM"]
properties('MP2/aug-cc-pvtz', properties = ['dipole'])
--------------------------------------------------------------------------

    Molecular point group: c1
  Charge       = 0
  Multiplicity = 1
  Basis Set: AUG-CC-PVTZ
    Blend: AUG-CC-PVTZ
  Basis Set: (AUG-CC-PVTZ AUX)
    Blend: AUG-CC-PVTZ-JKFIT

    Orbital Energies [Eh]
    ---------------------

    Doubly Occupied:

       1A    -20.624469     2A    -20.562351     3A    -20.525670
       4A    -15.594692     5A    -11.397262     6A    -11.355772
       7A    -11.288134     8A    -11.249902     9A    -11.215857
      10A     -1.467691    11A     -1.385697    12A     -1.367856
      13A     -1.245779    14A     -1.070340    15A     -1.007810
      16A     -0.891021    17A     -0.826323    18A     -0.775900
      19A     -0.715733    20A     -0.714756    21A     -0.699298
      22A     -0.659371    23A     -0.642565    24A     -0.635127
      25A     -0.604606    26A     -0.600718    27A     -0.553824
      28A     -0.545779    29A     -0.537919    30A     -0.516872
      31A     -0.492543    32A     -0.484594    33A     -0.468834
      34A     -0.432242    35A     -0.406691

  @DF-RHF Final Energy:  -473.83203727730159

   => Energetics <=

    Nuclear Repulsion Energy =            458.8943579201517196
    One-Electron Energy =               -1558.3247924969818996
    Two-Electron Energy =                 625.5983972995284148
    Total Energy =                       -473.8320372773016516
  Basis Set: (AUG-CC-PVTZ AUX)
    Blend: AUG-CC-PVTZ-RI
    Molecular point group: c1

    Geometry (in Angstrom), charge = 0, multiplicity = 1:

       Center              X                  Y                   Z               Mass
    ------------   -----------------  -----------------  -----------------  -----------------
         O            1.083739940635    -1.251560267641     0.265678550835    15.994914619570
         O           -3.045320059365    -0.648996267641     0.353974550835    15.994914619570
         O           -1.720120059365     1.139393732359     0.850742550835    15.994914619570
         N            0.108347940635     0.304390232359    -1.052915349165    14.003074004430
         C            2.399966440635     0.706692932359    -0.152099949165    12.000000000000
         C            1.153778940635    -0.146715267641    -0.270810449165    12.000000000000
         C           -1.141335059365    -0.317416267641    -1.002879449165    12.000000000000
         C            3.489065940635     0.098504732359     0.627796550835    12.000000000000
         C           -1.957327059365     0.148133732359     0.184117550835    12.000000000000
         H            2.716785940635     0.968592732359    -1.201618449165     1.007825032230
         H            2.075065940635     1.700495732359     0.258450550835     1.007825032230
         H           -0.978699059365    -1.394027267641    -0.931458449165     1.007825032230
         H           -1.716907059365    -0.124807267641    -1.917352449165     1.007825032230
         H            0.114569940635     1.347144732359    -1.208718449165     1.007825032230
         H            3.788370940635    -0.850767267641     0.182236550835     1.007825032230
         H            4.360035940635     0.756187732359     0.672185550835     1.007825032230
         H            3.151068940635    -0.104911267641     1.644134550835     1.007825032230
         H           -3.546771059365    -0.271825267641     1.104782550835     1.007825032230

  Basis Set: AUG-CC-PVTZ
    Blend: AUG-CC-PVTZ
  Basis Set: (AUG-CC-PVTZ AUX)
    Blend: AUG-CC-PVTZ-JKFIT
	 Reference Energy          =    -473.8320372773015947 [Eh]
	 Singles Energy            =      -0.0000000000000000 [Eh]
	 Same-Spin Energy          =      -0.4675341538180822 [Eh]
	 Opposite-Spin Energy      =      -1.4585265898448752 [Eh]
	 Correlation Energy        =      -1.9260607436629573 [Eh]
	 Total Energy              =    -475.7580980209645531 [Eh]

	 ================> DF-SCS-MP2 Energies <==================
	-----------------------------------------------------------
	 SCS Same-Spin Scale       =       0.3333333333333333 [-]
	 SCS Opposite-Spin Scale   =       1.2000000000000000 [-]
	 SCS Same-Spin Energy      =      -0.1558447179393607 [Eh]
	 SCS Opposite-Spin Energy  =      -1.7502319078138502 [Eh]
	 SCS Correlation Energy    =      -1.9060766257532109 [Eh]
	 SCS Total Energy          =    -475.7381139030547956 [Eh]
	-----------------------------------------------------------

  Dipole Moment: [D]
     X:    -0.8150      Y:     1.9288      Z:    -1.7477     Total:     2.7274

*** Psi4 exiting successfully. Buy a developer a beer!
