                               Psi4 1.4a3.dev225

  ==> Input File <==

--------------------------------------------------------------------------
#psi4
#
memory 32 gb

molecule  {
0 1
  O        0.8764270    -0.2428500     1.2911470
  O       -3.1675390     0.0980960     0.5443480
  O       -1.5839830     1.3406500    -0.5070920
  N        0.0834400    -0.8734940    -0.7544630
  C        2.2681300     0.2178930    -0.6380450
  C        1.0330250    -0.3000120     0.0721840
  C       -1.2394860    -1.0499030    -0.2084880
  C        3.4385850     0.4137260     0.3159750
  C       -1.9785770     0.2694000    -0.0851210
  H        2.5310470    -0.4685700    -1.4513520
  H        1.9929790     1.1708880    -1.1091590
  H       -1.1549390    -1.4972460     0.7835340
  H       -1.8230450    -1.7308360    -0.8360530
  H        0.1291061    -0.5971593    -1.7500577
  H        3.7379630    -0.5375510     0.7615240
  H        4.2975370     0.8343390    -0.2133880
  H        3.1581410     1.0869690     1.1269820
  H       -3.5812870     0.9851770     0.5837010
units angstrom
no_reorient  #important for SAPT in psi4, default
symmetry c1  #important for SAPT in psi4, default
}

set PROPERTIES_ORIGIN ["COM"]
properties('MP2/aug-cc-pvtz', properties = ['dipole'])
--------------------------------------------------------------------------

    Molecular point group: c1
  Charge       = 0
  Multiplicity = 1
  Basis Set: AUG-CC-PVTZ
    Blend: AUG-CC-PVTZ
  Basis Set: (AUG-CC-PVTZ AUX)
    Blend: AUG-CC-PVTZ-JKFIT

    Orbital Energies [Eh]
    ---------------------

    Doubly Occupied:

       1A    -20.624596     2A    -20.560816     3A    -20.527604
       4A    -15.595279     5A    -11.397625     6A    -11.355194
       7A    -11.291972     8A    -11.243647     9A    -11.217362
      10A     -1.469083    11A     -1.383590    12A     -1.366659
      13A     -1.238890    14A     -1.062071    15A     -1.004371
      16A     -0.888649    17A     -0.824352    18A     -0.780392
      19A     -0.715439    20A     -0.710612    21A     -0.698195
      22A     -0.652753    23A     -0.645932    24A     -0.630042
      25A     -0.603839    26A     -0.598413    27A     -0.557982
      28A     -0.544260    29A     -0.523734    30A     -0.515022
      31A     -0.494962    32A     -0.489546    33A     -0.468829
      34A     -0.432425    35A     -0.410834

  @DF-RHF Final Energy:  -473.83874378867625

   => Energetics <=

    Nuclear Repulsion Energy =            460.3490394773742764
    One-Electron Energy =               -1561.3256209148530615
    Two-Electron Energy =                 627.1378376488024742
    Total Energy =                       -473.8387437886761973
  Basis Set: (AUG-CC-PVTZ AUX)
    Blend: AUG-CC-PVTZ-RI
    Molecular point group: c1

    Geometry (in Angstrom), charge = 0, multiplicity = 1:

       Center              X                  Y                   Z               Mass
    ------------   -----------------  -----------------  -----------------  -----------------
         O            0.946572119058    -0.248572738081     1.275579748194    15.994914619570
         O           -3.097393880942     0.092373261919     0.528780748194    15.994914619570
         O           -1.513837880942     1.334927261919    -0.522659251806    15.994914619570
         N            0.153585119058    -0.879216738081    -0.770030251806    14.003074004430
         C            2.338275119058     0.212170261919    -0.653612251806    12.000000000000
         C            1.103170119058    -0.305734738081     0.056616748194    12.000000000000
         C           -1.169340880942    -1.055625738081    -0.224055251806    12.000000000000
         C            3.508730119058     0.408003261919     0.300407748194    12.000000000000
         C           -1.908431880942     0.263677261919    -0.100688251806    12.000000000000
         H            2.601192119058    -0.474292738081    -1.466919251806     1.007825032230
         H            2.063124119058     1.165165261919    -1.124726251806     1.007825032230
         H           -1.084793880942    -1.502968738081     0.767966748194     1.007825032230
         H           -1.752899880942    -1.736558738081    -0.851620251806     1.007825032230
         H            0.199251219058    -0.602882038081    -1.765624951806     1.007825032230
         H            3.808108119058    -0.543273738081     0.745956748194     1.007825032230
         H            4.367682119058     0.828616261919    -0.228955251806     1.007825032230
         H            3.228286119058     1.081246261919     1.111414748194     1.007825032230
         H           -3.511141880942     0.979454261919     0.568133748194     1.007825032230

  Basis Set: AUG-CC-PVTZ
    Blend: AUG-CC-PVTZ
  Basis Set: (AUG-CC-PVTZ AUX)
    Blend: AUG-CC-PVTZ-JKFIT
	 Reference Energy          =    -473.8387437886762541 [Eh]
	 Singles Energy            =      -0.0000000000000000 [Eh]
	 Same-Spin Energy          =      -0.4669671756670553 [Eh]
	 Opposite-Spin Energy      =      -1.4583389475217308 [Eh]
	 Correlation Energy        =      -1.9253061231887860 [Eh]
	 Total Energy              =    -475.7640499118650155 [Eh]

	 ================> DF-SCS-MP2 Energies <==================
	-----------------------------------------------------------
	 SCS Same-Spin Scale       =       0.3333333333333333 [-]
	 SCS Opposite-Spin Scale   =       1.2000000000000000 [-]
	 SCS Same-Spin Energy      =      -0.1556557252223517 [Eh]
	 SCS Opposite-Spin Energy  =      -1.7500067370260768 [Eh]
	 SCS Correlation Energy    =      -1.9056624622484286 [Eh]
	 SCS Total Energy          =    -475.7444062509246692 [Eh]
	-----------------------------------------------------------

  Dipole Moment: [D]
     X:    -0.9058      Y:    -0.7806      Z:    -2.6784     Total:     2.9332

*** Psi4 exiting successfully. Buy a developer a beer!
