                               Psi4 1.3.2 release

  ==> Input File <==

--------------------------------------------------------------------------
#psi4
#
memory 32 gb

molecule  {
0 1
  O        1.0830410    -1.2590340     0.2697030
  O       -3.0460190    -0.6564700     0.3579990
  O       -1.7208190     1.1319200     0.8547670
  N        0.1488056     0.2967557    -1.1213237
  C        2.3767950     0.7348440    -0.1800510
  C        1.1530800    -0.1541890    -0.2667860
  C       -1.1420340    -0.3248900    -0.9988550
  C        3.4883670     0.0910310     0.6318210
  C       -2.0155499     0.0911235     0.1653805
  H        2.7160870     0.9611190    -1.1975940
  H        2.0743670     1.6930220     0.2624750
  H       -0.9793980    -1.4015010    -0.9274340
  H       -1.7176060    -0.1322810    -1.9133280
  H        0.1138710     1.3396710    -1.2046940
  H        3.7876720    -0.8582410     0.1862610
  H        4.3593370     0.7487140     0.6762100
  H        3.1503700    -0.1123850     1.6481590
  H       -3.5474700    -0.2792990     1.1088070
units angstrom
no_reorient  #important for SAPT in psi4, default
symmetry c1  #important for SAPT in psi4, default
}

set PROPERTIES_ORIGIN ["COM"]
properties('MP2/aug-cc-pvtz', properties = ['dipole'])
--------------------------------------------------------------------------

    Molecular point group: c1
  Charge       = 0
  Multiplicity = 1
  Basis Set: AUG-CC-PVTZ
    Blend: AUG-CC-PVTZ
  Basis Set: (AUG-CC-PVTZ AUX)
    Blend: AUG-CC-PVTZ-JKFIT

    Orbital Energies [Eh]
    ---------------------

    Doubly Occupied:

       1A    -20.647409     2A    -20.548400     3A    -20.530860
       4A    -15.595917     5A    -11.404189     6A    -11.356648
       7A    -11.289975     8A    -11.244268     9A    -11.216333
      10A     -1.499942    11A     -1.384761    12A     -1.335721
      13A     -1.235334    14A     -1.062786    15A     -1.007868
      16A     -0.895937    17A     -0.843874    18A     -0.774411
      19A     -0.724482    20A     -0.716010    21A     -0.697704
      22A     -0.661840    23A     -0.647867    24A     -0.635595
      25A     -0.602616    26A     -0.587143    27A     -0.556829
      28A     -0.537727    29A     -0.524572    30A     -0.516875
      31A     -0.493588    32A     -0.470574    33A     -0.459185
      34A     -0.436748    35A     -0.411869

  @DF-RHF Final Energy:  -473.82495690335003

   => Energetics <=

    Nuclear Repulsion Energy =            456.8156144576175848
    One-Electron Energy =               -1554.1694281637983295
    Two-Electron Energy =                 623.5288568028307736
    Total Energy =                       -473.8249569033499711
  Basis Set: (AUG-CC-PVTZ AUX)
    Blend: AUG-CC-PVTZ-RI
    Molecular point group: c1

    Geometry (in Angstrom), charge = 0, multiplicity = 1:

       Center              X                  Y                   Z               Mass
    ------------   -----------------  -----------------  -----------------  -----------------
         O            1.086667172644    -1.250269298906     0.278429567624    15.994914619570
         O           -3.042392827356    -0.647705298906     0.366725567624    15.994914619570
         O           -1.717192827356     1.140684701094     0.863493567624    15.994914619570
         N            0.152431772644     0.305520401094    -1.112597132376    14.003074004430
         C            2.380421172644     0.743608701094    -0.171324432376    12.000000000000
         C            1.156706172644    -0.145424298906    -0.258059432376    12.000000000000
         C           -1.138407827356    -0.316125298906    -0.990128432376    12.000000000000
         C            3.491993172644     0.099795701094     0.640547567624    12.000000000000
         C           -2.011923727356     0.099888201094     0.174107067624    12.000000000000
         H            2.719713172644     0.969883701094    -1.188867432376     1.007825032230
         H            2.077993172644     1.701786701094     0.271201567624     1.007825032230
         H           -0.975771827356    -1.392736298906    -0.918707432376     1.007825032230
         H           -1.713979827356    -0.123516298906    -1.904601432376     1.007825032230
         H            0.117497172644     1.348435701094    -1.195967432376     1.007825032230
         H            3.791298172644    -0.849476298906     0.194987567624     1.007825032230
         H            4.362963172644     0.757478701094     0.684936567624     1.007825032230
         H            3.153996172644    -0.103620298906     1.656885567624     1.007825032230
         H           -3.543843827356    -0.270534298906     1.117533567624     1.007825032230

  Basis Set: AUG-CC-PVTZ
    Blend: AUG-CC-PVTZ
  Basis Set: (AUG-CC-PVTZ AUX)
    Blend: AUG-CC-PVTZ-JKFIT
	 Reference Energy          =    -473.8249569033500279 [Eh]
	 Singles Energy            =      -0.0000000000000000 [Eh]
	 Same-Spin Energy          =      -0.4677235885575128 [Eh]
	 Opposite-Spin Energy      =      -1.4597747289085499 [Eh]
	 Correlation Energy        =      -1.9274983174660627 [Eh]
	 Total Energy              =    -475.7524552208161026 [Eh]

	 ================> DF-SCS-MP2 Energies <==================
	-----------------------------------------------------------
	 SCS Same-Spin Scale       =       0.3333333333333333 [-]
	 SCS Opposite-Spin Scale   =       1.2000000000000000 [-]
	 SCS Same-Spin Energy      =      -0.1559078628525042 [Eh]
	 SCS Opposite-Spin Energy  =      -1.7517296746902598 [Eh]
	 SCS Correlation Energy    =      -1.9076375375427639 [Eh]
	 SCS Total Energy          =    -475.7325944408927967 [Eh]
	-----------------------------------------------------------

  Dipole Moment: [D]
     X:    -1.3251      Y:     1.4071      Z:    -1.6053     Total:     2.5125

*** Psi4 exiting successfully. Buy a developer a beer!
