                               Psi4 1.3.2 release

  ==> Input File <==

--------------------------------------------------------------------------
#psi4
#
memory 32 gb

molecule  {
0 1
  O        1.0830410    -1.2590340     0.2697030
  O       -3.0426903    -0.6629239     0.3486183
  O       -1.7208190     1.1319200     0.8547670
  N        0.1334480     0.3363350    -1.0591540
  C        2.3767950     0.7348440    -0.1800510
  C        1.1530800    -0.1541890    -0.2667860
  C       -1.1506949    -0.3346516    -1.0009068
  C        3.4883670     0.0910310     0.6318210
  C       -1.9580260     0.1406600     0.1881420
  H        2.7160870     0.9611190    -1.1975940
  H        2.0743670     1.6930220     0.2624750
  H       -0.9793980    -1.4015010    -0.9274340
  H       -1.7176060    -0.1322810    -1.9133280
  H        0.1138710     1.3396710    -1.2046940
  H        3.7876720    -0.8582410     0.1862610
  H        4.3593370     0.7487140     0.6762100
  H        3.1503700    -0.1123850     1.6481590
  H       -3.5474700    -0.2792990     1.1088070
units angstrom
no_reorient  #important for SAPT in psi4, default
symmetry c1  #important for SAPT in psi4, default
}

set PROPERTIES_ORIGIN ["COM"]
properties('MP2/aug-cc-pvtz', properties = ['dipole'])
--------------------------------------------------------------------------

    Molecular point group: c1
  Charge       = 0
  Multiplicity = 1
  Basis Set: AUG-CC-PVTZ
    Blend: AUG-CC-PVTZ
  Basis Set: (AUG-CC-PVTZ AUX)
    Blend: AUG-CC-PVTZ-JKFIT

    Orbital Energies [Eh]
    ---------------------

    Doubly Occupied:

       1A    -20.627093     2A    -20.564165     3A    -20.528037
       4A    -15.592185     5A    -11.399600     6A    -11.355402
       7A    -11.290529     8A    -11.243782     9A    -11.216167
      10A     -1.467858    11A     -1.383938    12A     -1.368884
      13A     -1.238703    14A     -1.062963    15A     -1.006483
      16A     -0.888512    17A     -0.822766    18A     -0.784524
      19A     -0.716300    20A     -0.711528    21A     -0.698248
      22A     -0.651535    23A     -0.643962    24A     -0.636644
      25A     -0.604121    26A     -0.598977    27A     -0.562417
      28A     -0.540235    29A     -0.524721    30A     -0.517049
      31A     -0.495667    32A     -0.492154    33A     -0.469878
      34A     -0.433176    35A     -0.409628

  @DF-RHF Final Energy:  -473.83842307032239

   => Energetics <=

    Nuclear Repulsion Energy =            457.8498955541768396
    One-Electron Energy =               -1556.2809756997369277
    Two-Electron Energy =                 624.5926570752377529
    Total Energy =                       -473.8384230703223921
  Basis Set: (AUG-CC-PVTZ AUX)
    Blend: AUG-CC-PVTZ-RI
    Molecular point group: c1

    Geometry (in Angstrom), charge = 0, multiplicity = 1:

       Center              X                  Y                   Z               Mass
    ------------   -----------------  -----------------  -----------------  -----------------
         O            1.083427813923    -1.257352417565     0.271035604520    15.994914619570
         O           -3.042303486077    -0.661242317565     0.349950904520    15.994914619570
         O           -1.720432186077     1.133601582435     0.856099604520    15.994914619570
         N            0.133834813923     0.338016582435    -1.057821395480    14.003074004430
         C            2.377181813923     0.736525582435    -0.178718395480    12.000000000000
         C            1.153466813923    -0.152507417565    -0.265453395480    12.000000000000
         C           -1.150308086077    -0.332970017565    -0.999574195480    12.000000000000
         C            3.488753813923     0.092712582435     0.633153604520    12.000000000000
         C           -1.957639186077     0.142341582435     0.189474604520    12.000000000000
         H            2.716473813923     0.962800582435    -1.196261395480     1.007825032230
         H            2.074753813923     1.694703582435     0.263807604520     1.007825032230
         H           -0.979011186077    -1.399819417565    -0.926101395480     1.007825032230
         H           -1.717219186077    -0.130599417565    -1.911995395480     1.007825032230
         H            0.114257813923     1.341352582435    -1.203361395480     1.007825032230
         H            3.788058813923    -0.856559417565     0.187593604520     1.007825032230
         H            4.359723813923     0.750395582435     0.677542604520     1.007825032230
         H            3.150756813923    -0.110703417565     1.649491604520     1.007825032230
         H           -3.547083186077    -0.277617417565     1.110139604520     1.007825032230

  Basis Set: AUG-CC-PVTZ
    Blend: AUG-CC-PVTZ
  Basis Set: (AUG-CC-PVTZ AUX)
    Blend: AUG-CC-PVTZ-JKFIT
	 Reference Energy          =    -473.8384230703223921 [Eh]
	 Singles Energy            =      -0.0000000000000000 [Eh]
	 Same-Spin Energy          =      -0.4669040241571563 [Eh]
	 Opposite-Spin Energy      =      -1.4582591284906541 [Eh]
	 Correlation Energy        =      -1.9251631526478103 [Eh]
	 Total Energy              =    -475.7635862229702184 [Eh]

	 ================> DF-SCS-MP2 Energies <==================
	-----------------------------------------------------------
	 SCS Same-Spin Scale       =       0.3333333333333333 [-]
	 SCS Opposite-Spin Scale   =       1.2000000000000000 [-]
	 SCS Same-Spin Energy      =      -0.1556346747190521 [Eh]
	 SCS Opposite-Spin Energy  =      -1.7499109541887850 [Eh]
	 SCS Correlation Energy    =      -1.9055456289078370 [Eh]
	 SCS Total Energy          =    -475.7439686992302086 [Eh]
	-----------------------------------------------------------

  Dipole Moment: [D]
     X:    -1.0081      Y:     1.8800      Z:    -1.7303     Total:     2.7467

*** Psi4 exiting successfully. Buy a developer a beer!
