                               Psi4 1.3.2 release

  ==> Input File <==

--------------------------------------------------------------------------
#psi4
#
memory 32 gb

molecule  {
0 1
  O        1.0830410    -1.2590340     0.2697030
  O       -3.0460190    -0.6564700     0.3579990
  O       -1.7208190     1.1319200     0.8547670
  N        0.1604893     0.3751559    -1.0684517
  C        2.3528316     0.7693856    -0.2121322
  C        1.1530800    -0.1541890    -0.2667860
  C       -1.1420340    -0.3248900    -0.9988550
  C        3.4883670     0.0910310     0.6318210
  C       -1.9580260     0.1406600     0.1881420
  H        2.7160870     0.9611190    -1.1975940
  H        2.0743670     1.6930220     0.2624750
  H       -0.9793980    -1.4015010    -0.9274340
  H       -1.7176060    -0.1322810    -1.9133280
  H        0.1138710     1.3396710    -1.2046940
  H        3.7876720    -0.8582410     0.1862610
  H        4.3593370     0.7487140     0.6762100
  H        3.1503700    -0.1123850     1.6481590
  H       -3.5474700    -0.2792990     1.1088070
units angstrom
no_reorient  #important for SAPT in psi4, default
symmetry c1  #important for SAPT in psi4, default
}

set PROPERTIES_ORIGIN ["COM"]
properties('MP2/aug-cc-pvtz', properties = ['dipole'])
--------------------------------------------------------------------------

    Molecular point group: c1
  Charge       = 0
  Multiplicity = 1
  Basis Set: AUG-CC-PVTZ
    Blend: AUG-CC-PVTZ
  Basis Set: (AUG-CC-PVTZ AUX)
    Blend: AUG-CC-PVTZ-JKFIT

    Orbital Energies [Eh]
    ---------------------

    Doubly Occupied:

       1A    -20.626509     2A    -20.563534     3A    -20.532167
       4A    -15.591132     5A    -11.400623     6A    -11.357267
       7A    -11.293629     8A    -11.239519     9A    -11.217092
      10A     -1.469383    11A     -1.384702    12A     -1.369358
      13A     -1.239894    14A     -1.058097    15A     -1.004377
      16A     -0.888884    17A     -0.823497    18A     -0.796467
      19A     -0.716546    20A     -0.711682    21A     -0.697327
      22A     -0.650307    23A     -0.644545    24A     -0.639609
      25A     -0.603908    26A     -0.597860    27A     -0.564651
      28A     -0.540239    29A     -0.520843    30A     -0.504402
      31A     -0.502096    32A     -0.493053    33A     -0.469456
      34A     -0.435043    35A     -0.413602

  @DF-RHF Final Energy:  -473.83420598509508

   => Energetics <=

    Nuclear Repulsion Energy =            457.2367240236418979
    One-Electron Energy =               -1555.0192651925958671
    Two-Electron Energy =                 623.9483351838588305
    Total Energy =                       -473.8342059850950818
  Basis Set: (AUG-CC-PVTZ AUX)
    Blend: AUG-CC-PVTZ-RI
    Molecular point group: c1

    Geometry (in Angstrom), charge = 0, multiplicity = 1:

       Center              X                  Y                   Z               Mass
    ------------   -----------------  -----------------  -----------------  -----------------
         O            1.082345935749    -1.266344449556     0.273633729426    15.994914619570
         O           -3.046714064251    -0.663780449556     0.361929729426    15.994914619570
         O           -1.721514064251     1.124609550444     0.858697729426    15.994914619570
         N            0.159794235749     0.367845450444    -1.064520970574    14.003074004430
         C            2.352136535749     0.762075150444    -0.208201470574    12.000000000000
         C            1.152384935749    -0.161499449556    -0.262855270574    12.000000000000
         C           -1.142729064251    -0.332200449556    -0.994924270574    12.000000000000
         C            3.487671935749     0.083720550444     0.635751729426    12.000000000000
         C           -1.958721064251     0.133349550444     0.192072729426    12.000000000000
         H            2.715391935749     0.953808550444    -1.193663270574     1.007825032230
         H            2.073671935749     1.685711550444     0.266405729426     1.007825032230
         H           -0.980093064251    -1.408811449556    -0.923503270574     1.007825032230
         H           -1.718301064251    -0.139591449556    -1.909397270574     1.007825032230
         H            0.113175935749     1.332360550444    -1.200763270574     1.007825032230
         H            3.786976935749    -0.865551449556     0.190191729426     1.007825032230
         H            4.358641935749     0.741403550444     0.680140729426     1.007825032230
         H            3.149674935749    -0.119695449556     1.652089729426     1.007825032230
         H           -3.548165064251    -0.286609449556     1.112737729426     1.007825032230

  Basis Set: AUG-CC-PVTZ
    Blend: AUG-CC-PVTZ
  Basis Set: (AUG-CC-PVTZ AUX)
    Blend: AUG-CC-PVTZ-JKFIT
	 Reference Energy          =    -473.8342059850950818 [Eh]
	 Singles Energy            =      -0.0000000000000000 [Eh]
	 Same-Spin Energy          =      -0.4663514206439617 [Eh]
	 Opposite-Spin Energy      =      -1.4578181302816260 [Eh]
	 Correlation Energy        =      -1.9241695509255878 [Eh]
	 Total Energy              =    -475.7583755360206510 [Eh]

	 ================> DF-SCS-MP2 Energies <==================
	-----------------------------------------------------------
	 SCS Same-Spin Scale       =       0.3333333333333333 [-]
	 SCS Opposite-Spin Scale   =       1.2000000000000000 [-]
	 SCS Same-Spin Energy      =      -0.1554504735479872 [Eh]
	 SCS Opposite-Spin Energy  =      -1.7493817563379512 [Eh]
	 SCS Correlation Energy    =      -1.9048322298859386 [Eh]
	 SCS Total Energy          =    -475.7390382149810080 [Eh]
	-----------------------------------------------------------

  Dipole Moment: [D]
     X:    -1.0732      Y:     1.8133      Z:    -1.7365     Total:     2.7304

*** Psi4 exiting successfully. Buy a developer a beer!
