                               Psi4 1.3.2 release

  ==> Input File <==

--------------------------------------------------------------------------
#psi4
#
memory 32 gb

molecule  {
0 1
  O        1.0830410    -1.2590340     0.2697030
  O       -3.0460190    -0.6564700     0.3579990
  O       -1.7208190     1.1319200     0.8547670
  N        0.1334480     0.3363350    -1.0591540
  C        2.3767950     0.7348440    -0.1800510
  C        1.1530800    -0.1541890    -0.2667860
  C       -1.1420340    -0.3248900    -0.9988550
  C        3.4883670     0.0910310     0.6318210
  C       -2.0658343     0.2021681     0.3449672
  H        2.7160870     0.9611190    -1.1975940
  H        2.0743670     1.6930220     0.2624750
  H       -0.9793980    -1.4015010    -0.9274340
  H       -1.7176060    -0.1322810    -1.9133280
  H        0.1138710     1.3396710    -1.2046940
  H        3.7876720    -0.8582410     0.1862610
  H        4.3593370     0.7487140     0.6762100
  H        3.1503700    -0.1123850     1.6481590
  H       -3.5474700    -0.2792990     1.1088070
units angstrom
no_reorient  #important for SAPT in psi4, default
symmetry c1  #important for SAPT in psi4, default
}

set PROPERTIES_ORIGIN ["COM"]
properties('MP2/aug-cc-pvtz', properties = ['dipole'])
--------------------------------------------------------------------------

    Molecular point group: c1
  Charge       = 0
  Multiplicity = 1
  Basis Set: AUG-CC-PVTZ
    Blend: AUG-CC-PVTZ
  Basis Set: (AUG-CC-PVTZ AUX)
    Blend: AUG-CC-PVTZ-JKFIT

    Orbital Energies [Eh]
    ---------------------

    Doubly Occupied:

       1A    -20.645649     2A    -20.577803     3A    -20.520462
       4A    -15.582133     5A    -11.392677     6A    -11.347278
       7A    -11.269241     8A    -11.239197     9A    -11.212925
      10A     -1.522403    11A     -1.444177    12A     -1.375316
      13A     -1.226370    14A     -1.054122    15A     -0.963239
      16A     -0.879720    17A     -0.827350    18A     -0.774599
      19A     -0.748867    20A     -0.720626    21A     -0.695584
      22A     -0.675416    23A     -0.644345    24A     -0.631978
      25A     -0.615925    26A     -0.594162    27A     -0.549358
      28A     -0.537768    29A     -0.534020    30A     -0.518286
      31A     -0.513121    32A     -0.491658    33A     -0.453323
      34A     -0.423729    35A     -0.376699

  @DF-RHF Final Energy:  -473.79860267493120

   => Energetics <=

    Nuclear Repulsion Energy =            457.8143363395038250
    One-Electron Energy =               -1556.0668259505546303
    Two-Electron Energy =                 624.4538869361196021
    Total Energy =                       -473.7986026749312032
  Basis Set: (AUG-CC-PVTZ AUX)
    Blend: AUG-CC-PVTZ-RI
    Molecular point group: c1

    Geometry (in Angstrom), charge = 0, multiplicity = 1:

       Center              X                  Y                   Z               Mass
    ------------   -----------------  -----------------  -----------------  -----------------
         O            1.092912231250    -1.264665700243     0.255343592739    15.994914619570
         O           -3.036147768750    -0.662101700243     0.343639592739    15.994914619570
         O           -1.710947768750     1.126288299757     0.840407592739    15.994914619570
         N            0.143319231250     0.330703299757    -1.073513407261    14.003074004430
         C            2.386666231250     0.729212299757    -0.194410407261    12.000000000000
         C            1.162951231250    -0.159820700243    -0.281145407261    12.000000000000
         C           -1.132162768750    -0.330521700243    -1.013214407261    12.000000000000
         C            3.498238231250     0.085399299757     0.617461592739    12.000000000000
         C           -2.055963068750     0.196536399757     0.330607792739    12.000000000000
         H            2.725958231250     0.955487299757    -1.211953407261     1.007825032230
         H            2.084238231250     1.687390299757     0.248115592739     1.007825032230
         H           -0.969526768750    -1.407132700243    -0.941793407261     1.007825032230
         H           -1.707734768750    -0.137912700243    -1.927687407261     1.007825032230
         H            0.123742231250     1.334039299757    -1.219053407261     1.007825032230
         H            3.797543231250    -0.863872700243     0.171901592739     1.007825032230
         H            4.369208231250     0.743082299757     0.661850592739     1.007825032230
         H            3.160241231250    -0.118016700243     1.633799592739     1.007825032230
         H           -3.537598768750    -0.284930700243     1.094447592739     1.007825032230

  Basis Set: AUG-CC-PVTZ
    Blend: AUG-CC-PVTZ
  Basis Set: (AUG-CC-PVTZ AUX)
    Blend: AUG-CC-PVTZ-JKFIT
	 Reference Energy          =    -473.7986026749312032 [Eh]
	 Singles Energy            =      -0.0000000000000000 [Eh]
	 Same-Spin Energy          =      -0.4659678448789915 [Eh]
	 Opposite-Spin Energy      =      -1.4556622527000613 [Eh]
	 Correlation Energy        =      -1.9216300975790528 [Eh]
	 Total Energy              =    -475.7202327725102577 [Eh]

	 ================> DF-SCS-MP2 Energies <==================
	-----------------------------------------------------------
	 SCS Same-Spin Scale       =       0.3333333333333333 [-]
	 SCS Opposite-Spin Scale   =       1.2000000000000000 [-]
	 SCS Same-Spin Energy      =      -0.1553226149596638 [Eh]
	 SCS Opposite-Spin Energy  =      -1.7467947032400735 [Eh]
	 SCS Correlation Energy    =      -1.9021173181997373 [Eh]
	 SCS Total Energy          =    -475.7007199931309174 [Eh]
	-----------------------------------------------------------

  Dipole Moment: [D]
     X:    -1.7826      Y:     2.2404      Z:    -0.8968     Total:     3.0002

*** Psi4 exiting successfully. Buy a developer a beer!
