                               Psi4 1.3.2 release

  ==> Input File <==

--------------------------------------------------------------------------
#psi4
#
memory 32 gb

molecule  {
0 1
  O        1.0830410    -1.2590340     0.2697030
  O       -3.0322096    -0.6819167     0.3204056
  O       -1.7208190     1.1319200     0.8547670
  N        0.1334480     0.3363350    -1.0591540
  C        2.3767950     0.7348440    -0.1800510
  C        1.1530800    -0.1541890    -0.2667860
  C       -1.1770438    -0.3637162    -1.0065182
  C        3.4883670     0.0910310     0.6318210
  C       -1.9580260     0.1406600     0.1881420
  H        2.7160870     0.9611190    -1.1975940
  H        2.0743670     1.6930220     0.2624750
  H       -0.9793980    -1.4015010    -0.9274340
  H       -1.7176060    -0.1322810    -1.9133280
  H        0.1138710     1.3396710    -1.2046940
  H        3.7876720    -0.8582410     0.1862610
  H        4.3593370     0.7487140     0.6762100
  H        3.1503700    -0.1123850     1.6481590
  H       -3.5474700    -0.2792990     1.1088070
units angstrom
no_reorient  #important for SAPT in psi4, default
symmetry c1  #important for SAPT in psi4, default
}

set PROPERTIES_ORIGIN ["COM"]
properties('MP2/aug-cc-pvtz', properties = ['dipole'])
--------------------------------------------------------------------------

    Molecular point group: c1
  Charge       = 0
  Multiplicity = 1
  Basis Set: AUG-CC-PVTZ
    Blend: AUG-CC-PVTZ
  Basis Set: (AUG-CC-PVTZ AUX)
    Blend: AUG-CC-PVTZ-JKFIT

    Orbital Energies [Eh]
    ---------------------

    Doubly Occupied:

       1A    -20.631705     2A    -20.567834     3A    -20.525832
       4A    -15.590007     5A    -11.401608     6A    -11.353284
       7A    -11.289736     8A    -11.242415     9A    -11.215201
      10A     -1.466196    11A     -1.381213    12A     -1.369901
      13A     -1.229555    14A     -1.061395    15A     -1.007524
      16A     -0.885327    17A     -0.817594    18A     -0.781244
      19A     -0.716825    20A     -0.707575    21A     -0.698036
      22A     -0.651543    23A     -0.639671    24A     -0.634700
      25A     -0.604182    26A     -0.595639    27A     -0.570357
      28A     -0.539240    29A     -0.522519    30A     -0.515881
      31A     -0.497291    32A     -0.492144    33A     -0.471571
      34A     -0.430541    35A     -0.407635

  @DF-RHF Final Energy:  -473.83041868629897

   => Energetics <=

    Nuclear Repulsion Energy =            457.3391984415825391
    One-Electron Energy =               -1555.3133888753418432
    Two-Electron Energy =                 624.1437717474602778
    Total Energy =                       -473.8304186862990264
  Basis Set: (AUG-CC-PVTZ AUX)
    Blend: AUG-CC-PVTZ-RI
    Molecular point group: c1

    Geometry (in Angstrom), charge = 0, multiplicity = 1:

       Center              X                  Y                   Z               Mass
    ------------   -----------------  -----------------  -----------------  -----------------
         O            1.084561271039    -1.252373231223     0.274992597344    15.994914619570
         O           -3.030689328961    -0.675255931223     0.325695197344    15.994914619570
         O           -1.719298728961     1.138580768777     0.860056597344    15.994914619570
         N            0.134968271039     0.342995768777    -1.053864402656    14.003074004430
         C            2.378315271039     0.741504768777    -0.174761402656    12.000000000000
         C            1.154600271039    -0.147528231223    -0.261496402656    12.000000000000
         C           -1.175523528961    -0.357055431223    -1.001228602656    12.000000000000
         C            3.489887271039     0.097691768777     0.637110597344    12.000000000000
         C           -1.956505728961     0.147320768777     0.193431597344    12.000000000000
         H            2.717607271039     0.967779768777    -1.192304402656     1.007825032230
         H            2.075887271039     1.699682768777     0.267764597344     1.007825032230
         H           -0.977877728961    -1.394840231223    -0.922144402656     1.007825032230
         H           -1.716085728961    -0.125620231223    -1.908038402656     1.007825032230
         H            0.115391271039     1.346331768777    -1.199404402656     1.007825032230
         H            3.789192271039    -0.851580231223     0.191550597344     1.007825032230
         H            4.360857271039     0.755374768777     0.681499597344     1.007825032230
         H            3.151890271039    -0.105724231223     1.653448597344     1.007825032230
         H           -3.545949728961    -0.272638231223     1.114096597344     1.007825032230

  Basis Set: AUG-CC-PVTZ
    Blend: AUG-CC-PVTZ
  Basis Set: (AUG-CC-PVTZ AUX)
    Blend: AUG-CC-PVTZ-JKFIT
	 Reference Energy          =    -473.8304186862989695 [Eh]
	 Singles Energy            =      -0.0000000000000000 [Eh]
	 Same-Spin Energy          =      -0.4675266044092375 [Eh]
	 Opposite-Spin Energy      =      -1.4601143838375101 [Eh]
	 Correlation Energy        =      -1.9276409882467476 [Eh]
	 Total Energy              =    -475.7580596745457342 [Eh]

	 ================> DF-SCS-MP2 Energies <==================
	-----------------------------------------------------------
	 SCS Same-Spin Scale       =       0.3333333333333333 [-]
	 SCS Opposite-Spin Scale   =       1.2000000000000000 [-]
	 SCS Same-Spin Energy      =      -0.1558422014697458 [Eh]
	 SCS Opposite-Spin Energy  =      -1.7521372606050121 [Eh]
	 SCS Correlation Energy    =      -1.9079794620747579 [Eh]
	 SCS Total Energy          =    -475.7383981483737330 [Eh]
	-----------------------------------------------------------

  Dipole Moment: [D]
     X:    -1.1783      Y:     1.8898      Z:    -1.6822     Total:     2.7910

*** Psi4 exiting successfully. Buy a developer a beer!
