                               Psi4 1.3.2 release

  ==> Input File <==

--------------------------------------------------------------------------
#psi4
#
memory 32 gb

molecule  {
0 1
  O        1.0830410    -1.2590340     0.2697030
  O       -3.0460190    -0.6564700     0.3579990
  O       -1.7208190     1.1319200     0.8547670
  N        0.1334480     0.3363350    -1.0591540
  C        2.3767950     0.7348440    -0.1800510
  C        1.1820151    -0.1197638    -0.2841758
  C       -1.1596241    -0.2921286    -1.0325665
  C        3.4883670     0.0910310     0.6318210
  C       -1.9580260     0.1406600     0.1881420
  H        2.7160870     0.9611190    -1.1975940
  H        2.0743670     1.6930220     0.2624750
  H       -0.9793980    -1.4015010    -0.9274340
  H       -1.7176060    -0.1322810    -1.9133280
  H        0.1138710     1.3396710    -1.2046940
  H        3.7876720    -0.8582410     0.1862610
  H        4.3593370     0.7487140     0.6762100
  H        3.1503700    -0.1123850     1.6481590
  H       -3.5474700    -0.2792990     1.1088070
units angstrom
no_reorient  #important for SAPT in psi4, default
symmetry c1  #important for SAPT in psi4, default
}

set PROPERTIES_ORIGIN ["COM"]
properties('MP2/aug-cc-pvtz', properties = ['dipole'])
--------------------------------------------------------------------------

    Molecular point group: c1
  Charge       = 0
  Multiplicity = 1
  Basis Set: AUG-CC-PVTZ
    Blend: AUG-CC-PVTZ
  Basis Set: (AUG-CC-PVTZ AUX)
    Blend: AUG-CC-PVTZ-JKFIT

    Orbital Energies [Eh]
    ---------------------

    Doubly Occupied:

       1A    -20.625460     2A    -20.562352     3A    -20.523244
       4A    -15.595409     5A    -11.399146     6A    -11.360371
       7A    -11.291766     8A    -11.246807     9A    -11.218794
      10A     -1.468026    11A     -1.370141    12A     -1.359808
      13A     -1.236937    14A     -1.072650    15A     -1.007446
      16A     -0.897020    17A     -0.828018    18A     -0.780285
      19A     -0.716181    20A     -0.711680    21A     -0.702548
      22A     -0.658005    23A     -0.641395    24A     -0.638080
      25A     -0.603252    26A     -0.595287    27A     -0.550951
      28A     -0.535951    29A     -0.529996    30A     -0.516950
      31A     -0.495300    32A     -0.490216    33A     -0.466340
      34A     -0.433694    35A     -0.405827

  @DF-RHF Final Energy:  -473.82940718797090

   => Energetics <=

    Nuclear Repulsion Energy =            457.2928810857310964
    One-Electron Energy =               -1555.1739053192131905
    Two-Electron Energy =                 624.0516170455111933
    Total Energy =                       -473.8294071879709008
  Basis Set: (AUG-CC-PVTZ AUX)
    Blend: AUG-CC-PVTZ-RI
    Molecular point group: c1

    Geometry (in Angstrom), charge = 0, multiplicity = 1:

       Center              X                  Y                   Z               Mass
    ------------   -----------------  -----------------  -----------------  -----------------
         O            1.082002275756    -1.265185637016     0.274381830548    15.994914619570
         O           -3.047057724244    -0.662621637016     0.362677830548    15.994914619570
         O           -1.721857724244     1.125768362984     0.859445830548    15.994914619570
         N            0.132409275756     0.330183362984    -1.054475169452    14.003074004430
         C            2.375756275756     0.728692362984    -0.175372169452    12.000000000000
         C            1.180976375756    -0.125915437016    -0.279496969452    12.000000000000
         C           -1.160662824244    -0.298280237016    -1.027887669452    12.000000000000
         C            3.487328275756     0.084879362984     0.636499830548    12.000000000000
         C           -1.959064724244     0.134508362984     0.192820830548    12.000000000000
         H            2.715048275756     0.954967362984    -1.192915169452     1.007825032230
         H            2.073328275756     1.686870362984     0.267153830548     1.007825032230
         H           -0.980436724244    -1.407652637016    -0.922755169452     1.007825032230
         H           -1.718644724244    -0.138432637016    -1.908649169452     1.007825032230
         H            0.112832275756     1.333519362984    -1.200015169452     1.007825032230
         H            3.786633275756    -0.864392637016     0.190939830548     1.007825032230
         H            4.358298275756     0.742562362984     0.680888830548     1.007825032230
         H            3.149331275756    -0.118536637016     1.652837830548     1.007825032230
         H           -3.548508724244    -0.285450637016     1.113485830548     1.007825032230

  Basis Set: AUG-CC-PVTZ
    Blend: AUG-CC-PVTZ
  Basis Set: (AUG-CC-PVTZ AUX)
    Blend: AUG-CC-PVTZ-JKFIT
	 Reference Energy          =    -473.8294071879709008 [Eh]
	 Singles Energy            =      -0.0000000000000000 [Eh]
	 Same-Spin Energy          =      -0.4679486774557755 [Eh]
	 Opposite-Spin Energy      =      -1.4601471765433387 [Eh]
	 Correlation Energy        =      -1.9280958539991142 [Eh]
	 Total Energy              =    -475.7575030419700397 [Eh]

	 ================> DF-SCS-MP2 Energies <==================
	-----------------------------------------------------------
	 SCS Same-Spin Scale       =       0.3333333333333333 [-]
	 SCS Opposite-Spin Scale   =       1.2000000000000000 [-]
	 SCS Same-Spin Energy      =      -0.1559828924852585 [Eh]
	 SCS Opposite-Spin Energy  =      -1.7521766118520063 [Eh]
	 SCS Correlation Energy    =      -1.9081595043372648 [Eh]
	 SCS Total Energy          =    -475.7375666923081781 [Eh]
	-----------------------------------------------------------

  Dipole Moment: [D]
     X:    -0.8659      Y:     2.0736      Z:    -1.8203     Total:     2.8919

*** Psi4 exiting successfully. Buy a developer a beer!
