                               Psi4 1.3.2 release

  ==> Input File <==

--------------------------------------------------------------------------
#psi4
#
memory 32 gb

molecule  {
0 1
  O        1.0830410    -1.2590340     0.2697030
  O       -3.0460190    -0.6564700     0.3579990
  O       -1.6871604     1.1396287     0.8299720
  N        0.1334480     0.3363350    -1.0591540
  C        2.3767950     0.7348440    -0.1800510
  C        1.1530800    -0.1541890    -0.2667860
  C       -1.1099700    -0.2834758    -0.9918798
  C        3.4883670     0.0910310     0.6318210
  C       -1.9580260     0.1406600     0.1881420
  H        2.7160870     0.9611190    -1.1975940
  H        2.0743670     1.6930220     0.2624750
  H       -0.9793980    -1.4015010    -0.9274340
  H       -1.7176060    -0.1322810    -1.9133280
  H        0.1138710     1.3396710    -1.2046940
  H        3.7876720    -0.8582410     0.1862610
  H        4.3593370     0.7487140     0.6762100
  H        3.1503700    -0.1123850     1.6481590
  H       -3.5474700    -0.2792990     1.1088070
units angstrom
no_reorient  #important for SAPT in psi4, default
symmetry c1  #important for SAPT in psi4, default
}

set PROPERTIES_ORIGIN ["COM"]
properties('MP2/aug-cc-pvtz', properties = ['dipole'])
--------------------------------------------------------------------------

    Molecular point group: c1
  Charge       = 0
  Multiplicity = 1
  Basis Set: AUG-CC-PVTZ
    Blend: AUG-CC-PVTZ
  Basis Set: (AUG-CC-PVTZ AUX)
    Blend: AUG-CC-PVTZ-JKFIT

    Orbital Energies [Eh]
    ---------------------

    Doubly Occupied:

       1A    -20.628898     2A    -20.560983     3A    -20.530118
       4A    -15.592530     5A    -11.397221     6A    -11.357241
       7A    -11.288520     8A    -11.244890     9A    -11.216928
      10A     -1.467818    11A     -1.387276    12A     -1.370522
      13A     -1.252400    14A     -1.064115    15A     -1.001279
      16A     -0.892000    17A     -0.825098    18A     -0.787788
      19A     -0.716964    20A     -0.716464    21A     -0.698197
      22A     -0.660187    23A     -0.642596    24A     -0.637542
      25A     -0.605961    26A     -0.600788    27A     -0.546212
      28A     -0.539894    29A     -0.525217    30A     -0.517976
      31A     -0.495656    32A     -0.491456    33A     -0.466962
      34A     -0.435749    35A     -0.409225

  @DF-RHF Final Energy:  -473.83536898844164

   => Energetics <=

    Nuclear Repulsion Energy =            459.0768832150653793
    One-Electron Energy =               -1558.6791546812519300
    Two-Electron Energy =                 625.7669024777449067
    Total Energy =                       -473.8353689884415871
  Basis Set: (AUG-CC-PVTZ AUX)
    Blend: AUG-CC-PVTZ-RI
    Molecular point group: c1

    Geometry (in Angstrom), charge = 0, multiplicity = 1:

       Center              X                  Y                   Z               Mass
    ------------   -----------------  -----------------  -----------------  -----------------
         O            1.075997354476    -1.263766658727     0.272090299052    15.994914619570
         O           -3.053062645524    -0.661202658727     0.360386299052    15.994914619570
         O           -1.694204045524     1.134896041273     0.832359299052    15.994914619570
         N            0.126404354476     0.331602341273    -1.056766700948    14.003074004430
         C            2.369751354476     0.730111341273    -0.177663700948    12.000000000000
         C            1.146036354476    -0.158921658727    -0.264398700948    12.000000000000
         C           -1.117013645524    -0.288208458727    -0.989492500948    12.000000000000
         C            3.481323354476     0.086298341273     0.634208299052    12.000000000000
         C           -1.965069645524     0.135927341273     0.190529299052    12.000000000000
         H            2.709043354476     0.956386341273    -1.195206700948     1.007825032230
         H            2.067323354476     1.688289341273     0.264862299052     1.007825032230
         H           -0.986441645524    -1.406233658727    -0.925046700948     1.007825032230
         H           -1.724649645524    -0.137013658727    -1.910940700948     1.007825032230
         H            0.106827354476     1.334938341273    -1.202306700948     1.007825032230
         H            3.780628354476    -0.862973658727     0.188648299052     1.007825032230
         H            4.352293354476     0.743981341273     0.678597299052     1.007825032230
         H            3.143326354476    -0.117117658727     1.650546299052     1.007825032230
         H           -3.554513645524    -0.284031658727     1.111194299052     1.007825032230

  Basis Set: AUG-CC-PVTZ
    Blend: AUG-CC-PVTZ
  Basis Set: (AUG-CC-PVTZ AUX)
    Blend: AUG-CC-PVTZ-JKFIT
	 Reference Energy          =    -473.8353689884416440 [Eh]
	 Singles Energy            =      -0.0000000000000000 [Eh]
	 Same-Spin Energy          =      -0.4672563753247468 [Eh]
	 Opposite-Spin Energy      =      -1.4581010688867364 [Eh]
	 Correlation Energy        =      -1.9253574442114831 [Eh]
	 Total Energy              =    -475.7607264326531435 [Eh]

	 ================> DF-SCS-MP2 Energies <==================
	-----------------------------------------------------------
	 SCS Same-Spin Scale       =       0.3333333333333333 [-]
	 SCS Opposite-Spin Scale   =       1.2000000000000000 [-]
	 SCS Same-Spin Energy      =      -0.1557521251082489 [Eh]
	 SCS Opposite-Spin Energy  =      -1.7497212826640836 [Eh]
	 SCS Correlation Energy    =      -1.9054734077723325 [Eh]
	 SCS Total Energy          =    -475.7408423962139636 [Eh]
	-----------------------------------------------------------

  Dipole Moment: [D]
     X:    -0.9126      Y:     1.8840      Z:    -1.6633     Total:     2.6737

*** Psi4 exiting successfully. Buy a developer a beer!
