                               Psi4 1.4a3.dev225

  ==> Input File <==

--------------------------------------------------------------------------
#psi4
#
memory 32 gb

molecule  {
0 1
  O        0.8764270    -0.2428500     1.2911470
  O       -3.1675390     0.0980960     0.5443480
  O       -1.5839830     1.3406500    -0.5070920
  N        0.0834400    -0.8734940    -0.7544630
  C        2.2681300     0.2178930    -0.6380450
  C        1.0493197    -0.2931793     0.0628140
  C       -1.2394860    -1.0499030    -0.2084880
  C        3.4385850     0.4137260     0.3159750
  C       -1.9785770     0.2694000    -0.0851210
  H        2.5310470    -0.4685700    -1.4513520
  H        1.9929790     1.1708880    -1.1091590
  H       -1.1549390    -1.4972460     0.7835340
  H       -1.8230450    -1.7308360    -0.8360530
  H        0.1282230    -0.6025030    -1.7308050
  H        3.7379630    -0.5375510     0.7615240
  H        4.2975370     0.8343390    -0.2133880
  H        3.1581410     1.0869690     1.1269820
  H       -3.5812870     0.9851770     0.5837010
units angstrom
no_reorient  #important for SAPT in psi4, default
symmetry c1  #important for SAPT in psi4, default
}

set PROPERTIES_ORIGIN ["COM"]
properties('MP2/aug-cc-pvtz', properties = ['dipole'])
--------------------------------------------------------------------------

    Molecular point group: c1
  Charge       = 0
  Multiplicity = 1
  Basis Set: AUG-CC-PVTZ
    Blend: AUG-CC-PVTZ
  Basis Set: (AUG-CC-PVTZ AUX)
    Blend: AUG-CC-PVTZ-JKFIT

    Orbital Energies [Eh]
    ---------------------

    Doubly Occupied:

       1A    -20.624172     2A    -20.560296     3A    -20.526978
       4A    -15.592983     5A    -11.397123     6A    -11.356905
       7A    -11.291565     8A    -11.244857     9A    -11.218704
      10A     -1.468609    11A     -1.377741    12A     -1.365661
      13A     -1.237303    14A     -1.066463    15A     -1.004446
      16A     -0.892249    17A     -0.824431    18A     -0.781249
      19A     -0.715140    20A     -0.710413    21A     -0.698931
      22A     -0.652860    23A     -0.645861    24A     -0.631197
      25A     -0.603175    26A     -0.598027    27A     -0.557605
      28A     -0.543173    29A     -0.524458    30A     -0.515586
      31A     -0.495127    32A     -0.489000    33A     -0.468023
      34A     -0.433922    35A     -0.409576

  @DF-RHF Final Energy:  -473.83805856972987

   => Energetics <=

    Nuclear Repulsion Energy =            460.2991945630682835
    One-Electron Energy =               -1561.2268887013883614
    Two-Electron Energy =                 627.0896355685900971
    Total Energy =                       -473.8380585697299239
  Basis Set: (AUG-CC-PVTZ AUX)
    Blend: AUG-CC-PVTZ-RI
    Molecular point group: c1

    Geometry (in Angstrom), charge = 0, multiplicity = 1:

       Center              X                  Y                   Z               Mass
    ------------   -----------------  -----------------  -----------------  -----------------
         O            0.945086929077    -0.249157263583     1.276289635987    15.994914619570
         O           -3.098879070923     0.091788736417     0.529490635987    15.994914619570
         O           -1.515323070923     1.334342736417    -0.521949364013    15.994914619570
         N            0.152099929077    -0.879801263583    -0.769320364013    14.003074004430
         C            2.336789929077     0.211585736417    -0.652902364013    12.000000000000
         C            1.117979629077    -0.299486563583     0.047956635987    12.000000000000
         C           -1.170826070923    -1.056210263583    -0.223345364013    12.000000000000
         C            3.507244929077     0.407418736417     0.301117635987    12.000000000000
         C           -1.909917070923     0.263092736417    -0.099978364013    12.000000000000
         H            2.599706929077    -0.474877263583    -1.466209364013     1.007825032230
         H            2.061638929077     1.164580736417    -1.124016364013     1.007825032230
         H           -1.086279070923    -1.503553263583     0.768676635987     1.007825032230
         H           -1.754385070923    -1.737143263583    -0.850910364013     1.007825032230
         H            0.196882929077    -0.608810263583    -1.745662364013     1.007825032230
         H            3.806622929077    -0.543858263583     0.746666635987     1.007825032230
         H            4.366196929077     0.828031736417    -0.228245364013     1.007825032230
         H            3.226800929077     1.080661736417     1.112124635987     1.007825032230
         H           -3.512627070923     0.978869736417     0.568843635987     1.007825032230

  Basis Set: AUG-CC-PVTZ
    Blend: AUG-CC-PVTZ
  Basis Set: (AUG-CC-PVTZ AUX)
    Blend: AUG-CC-PVTZ-JKFIT
	 Reference Energy          =    -473.8380585697298670 [Eh]
	 Singles Energy            =      -0.0000000000000000 [Eh]
	 Same-Spin Energy          =      -0.4671740265182607 [Eh]
	 Opposite-Spin Energy      =      -1.4586594568312563 [Eh]
	 Correlation Energy        =      -1.9258334833495170 [Eh]
	 Total Energy              =    -475.7638920530793598 [Eh]

	 ================> DF-SCS-MP2 Energies <==================
	-----------------------------------------------------------
	 SCS Same-Spin Scale       =       0.3333333333333333 [-]
	 SCS Opposite-Spin Scale   =       1.2000000000000000 [-]
	 SCS Same-Spin Energy      =      -0.1557246755060869 [Eh]
	 SCS Opposite-Spin Energy  =      -1.7503913481975075 [Eh]
	 SCS Correlation Energy    =      -1.9061160237035943 [Eh]
	 SCS Total Energy          =    -475.7441745934334563 [Eh]
	-----------------------------------------------------------

  Dipole Moment: [D]
     X:    -0.8069      Y:    -0.7467      Z:    -2.6945     Total:     2.9101

*** Psi4 exiting successfully. Buy a developer a beer!
