                               Psi4 1.3.2 release

  ==> Input File <==

--------------------------------------------------------------------------
#psi4
#
memory 32 gb

molecule  {
0 1
  O        1.0830410    -1.2590340     0.2697030
  O       -3.0460190    -0.6564700     0.3579990
  O       -1.7208190     1.1319200     0.8547670
  N        0.1334480     0.3363350    -1.0591540
  C        2.3767950     0.7348440    -0.1800510
  C        1.1503514    -0.1546286    -0.1875153
  C       -1.1420340    -0.3248900    -0.9988550
  C        3.4883670     0.0910310     0.6318210
  C       -1.9580260     0.1406600     0.1881420
  H        2.7585430     0.9923461    -1.1748747
  H        2.0743670     1.6930220     0.2624750
  H       -0.9793980    -1.4015010    -0.9274340
  H       -1.7176060    -0.1322810    -1.9133280
  H        0.1138710     1.3396710    -1.2046940
  H        3.7876720    -0.8582410     0.1862610
  H        4.3593370     0.7487140     0.6762100
  H        3.1503700    -0.1123850     1.6481590
  H       -3.5474700    -0.2792990     1.1088070
units angstrom
no_reorient  #important for SAPT in psi4, default
symmetry c1  #important for SAPT in psi4, default
}

set PROPERTIES_ORIGIN ["COM"]
properties('MP2/aug-cc-pvtz', properties = ['dipole'])
--------------------------------------------------------------------------

    Molecular point group: c1
  Charge       = 0
  Multiplicity = 1
  Basis Set: AUG-CC-PVTZ
    Blend: AUG-CC-PVTZ
  Basis Set: (AUG-CC-PVTZ AUX)
    Blend: AUG-CC-PVTZ-JKFIT

    Orbital Energies [Eh]
    ---------------------

    Doubly Occupied:

       1A    -20.624066     2A    -20.561473     3A    -20.539156
       4A    -15.585074     5A    -11.396578     6A    -11.357653
       7A    -11.286736     8A    -11.244155     9A    -11.216984
      10A     -1.467074    11A     -1.407878    12A     -1.367625
      13A     -1.231141    14A     -1.063785    15A     -0.999479
      16A     -0.887652    17A     -0.820615    18A     -0.776686
      19A     -0.715330    20A     -0.714183    21A     -0.699907
      22A     -0.650485    23A     -0.646881    24A     -0.636342
      25A     -0.610743    26A     -0.600041    27A     -0.556734
      28A     -0.545340    29A     -0.527233    30A     -0.518154
      31A     -0.495944    32A     -0.490975    33A     -0.469130
      34A     -0.437480    35A     -0.408991

  @DF-RHF Final Energy:  -473.83528106780579

   => Energetics <=

    Nuclear Repulsion Energy =            458.1018515383865406
    One-Electron Energy =               -1556.7588547936150007
    Two-Electron Energy =                 624.8217221874227789
    Total Energy =                       -473.8352810678057949
  Basis Set: (AUG-CC-PVTZ AUX)
    Blend: AUG-CC-PVTZ-RI
    Molecular point group: c1

    Geometry (in Angstrom), charge = 0, multiplicity = 1:

       Center              X                  Y                   Z               Mass
    ------------   -----------------  -----------------  -----------------  -----------------
         O            1.082964405091    -1.259233756934     0.262269955392    15.994914619570
         O           -3.046095594909    -0.656669756934     0.350565955392    15.994914619570
         O           -1.720895594909     1.131720243066     0.847333955392    15.994914619570
         N            0.133371405091     0.336135243066    -1.066587044608    14.003074004430
         C            2.376718405091     0.734644243066    -0.187484044608    12.000000000000
         C            1.150274805091    -0.154828356934    -0.194948344608    12.000000000000
         C           -1.142110594909    -0.325089756934    -1.006288044608    12.000000000000
         C            3.488290405091     0.090831243066     0.624387955392    12.000000000000
         C           -1.958102594909     0.140460243066     0.180708955392    12.000000000000
         H            2.758466405091     0.992146343066    -1.182307744608     1.007825032230
         H            2.074290405091     1.692822243066     0.255041955392     1.007825032230
         H           -0.979474594909    -1.401700756934    -0.934867044608     1.007825032230
         H           -1.717682594909    -0.132480756934    -1.920761044608     1.007825032230
         H            0.113794405091     1.339471243066    -1.212127044608     1.007825032230
         H            3.787595405091    -0.858440756934     0.178827955392     1.007825032230
         H            4.359260405091     0.748514243066     0.668776955392     1.007825032230
         H            3.150293405091    -0.112584756934     1.640725955392     1.007825032230
         H           -3.547546594909    -0.279498756934     1.101373955392     1.007825032230

  Basis Set: AUG-CC-PVTZ
    Blend: AUG-CC-PVTZ
  Basis Set: (AUG-CC-PVTZ AUX)
    Blend: AUG-CC-PVTZ-JKFIT
	 Reference Energy          =    -473.8352810678057949 [Eh]
	 Singles Energy            =      -0.0000000000000000 [Eh]
	 Same-Spin Energy          =      -0.4663378751774358 [Eh]
	 Opposite-Spin Energy      =      -1.4572155390864316 [Eh]
	 Correlation Energy        =      -1.9235534142638675 [Eh]
	 Total Energy              =    -475.7588344820696875 [Eh]

	 ================> DF-SCS-MP2 Energies <==================
	-----------------------------------------------------------
	 SCS Same-Spin Scale       =       0.3333333333333333 [-]
	 SCS Opposite-Spin Scale   =       1.2000000000000000 [-]
	 SCS Same-Spin Energy      =      -0.1554459583924786 [Eh]
	 SCS Opposite-Spin Energy  =      -1.7486586469037180 [Eh]
	 SCS Correlation Energy    =      -1.9041046052961965 [Eh]
	 SCS Total Energy          =    -475.7393856731019923 [Eh]
	-----------------------------------------------------------

  Dipole Moment: [D]
     X:    -0.7292      Y:     1.7066      Z:    -1.5127     Total:     2.3943

*** Psi4 exiting successfully. Buy a developer a beer!
