                               Psi4 1.3.2 release

  ==> Input File <==

--------------------------------------------------------------------------
#psi4
#
memory 32 gb

molecule  {
0 1
  O        1.0830410    -1.2590340     0.2697030
  O       -3.0460190    -0.6564700     0.3579990
  O       -1.7208190     1.1319200     0.8547670
  N        0.1203912     0.3166975    -1.0541424
  C        2.3882194     0.7171643    -0.1640476
  C        1.1530800    -0.1541890    -0.2667860
  C       -1.1420340    -0.3248900    -0.9988550
  C        3.4883670     0.0910310     0.6318210
  C       -1.9580260     0.1406600     0.1881420
  H        2.7160870     0.9611190    -1.1975940
  H        2.0743670     1.6930220     0.2624750
  H       -0.9793980    -1.4015010    -0.9274340
  H       -1.7176060    -0.1322810    -1.9133280
  H        0.1138710     1.3396710    -1.2046940
  H        3.7876720    -0.8582410     0.1862610
  H        4.3593370     0.7487140     0.6762100
  H        3.1503700    -0.1123850     1.6481590
  H       -3.5474700    -0.2792990     1.1088070
units angstrom
no_reorient  #important for SAPT in psi4, default
symmetry c1  #important for SAPT in psi4, default
}

set PROPERTIES_ORIGIN ["COM"]
properties('MP2/aug-cc-pvtz', properties = ['dipole'])
--------------------------------------------------------------------------

    Molecular point group: c1
  Charge       = 0
  Multiplicity = 1
  Basis Set: AUG-CC-PVTZ
    Blend: AUG-CC-PVTZ
  Basis Set: (AUG-CC-PVTZ AUX)
    Blend: AUG-CC-PVTZ-JKFIT

    Orbital Energies [Eh]
    ---------------------

    Doubly Occupied:

       1A    -20.624998     2A    -20.562655     3A    -20.527191
       4A    -15.593757     5A    -11.398141     6A    -11.355834
       7A    -11.289536     8A    -11.246958     9A    -11.216171
      10A     -1.468125    11A     -1.385213    12A     -1.368239
      13A     -1.243602    14A     -1.066719    15A     -1.006998
      16A     -0.890299    17A     -0.825446    18A     -0.780648
      19A     -0.715932    20A     -0.713848    21A     -0.698815
      22A     -0.656056    23A     -0.643502    24A     -0.635925
      25A     -0.604432    26A     -0.600215    27A     -0.556573
      28A     -0.541429    29A     -0.533272    30A     -0.517680
      31A     -0.493321    32A     -0.488946    33A     -0.469148
      34A     -0.433227    35A     -0.408455

  @DF-RHF Final Energy:  -473.83756416373092

   => Energetics <=

    Nuclear Repulsion Energy =            458.4535822006547505
    One-Electron Energy =               -1557.4596768919645911
    Two-Electron Energy =                 625.1685305275790370
    Total Energy =                       -473.8375641637309172
  Basis Set: (AUG-CC-PVTZ AUX)
    Blend: AUG-CC-PVTZ-RI
    Molecular point group: c1

    Geometry (in Angstrom), charge = 0, multiplicity = 1:

       Center              X                  Y                   Z               Mass
    ------------   -----------------  -----------------  -----------------  -----------------
         O            1.083390075045    -1.255316887560     0.267702096526    15.994914619570
         O           -3.045669924955    -0.652752887560     0.355998096526    15.994914619570
         O           -1.720469924955     1.135637112440     0.852766096526    15.994914619570
         N            0.120740275045     0.320414612440    -1.056143303474    14.003074004430
         C            2.388568475045     0.720881412440    -0.166048503474    12.000000000000
         C            1.153429075045    -0.150471887560    -0.268786903474    12.000000000000
         C           -1.141684924955    -0.321172887560    -1.000855903474    12.000000000000
         C            3.488716075045     0.094748112440     0.629820096526    12.000000000000
         C           -1.957676924955     0.144377112440     0.186141096526    12.000000000000
         H            2.716436075045     0.964836112440    -1.199594903474     1.007825032230
         H            2.074716075045     1.696739112440     0.260474096526     1.007825032230
         H           -0.979048924955    -1.397783887560    -0.929434903474     1.007825032230
         H           -1.717256924955    -0.128563887560    -1.915328903474     1.007825032230
         H            0.114220075045     1.343388112440    -1.206694903474     1.007825032230
         H            3.788021075045    -0.854523887560     0.184260096526     1.007825032230
         H            4.359686075045     0.752431112440     0.674209096526     1.007825032230
         H            3.150719075045    -0.108667887560     1.646158096526     1.007825032230
         H           -3.547120924955    -0.275581887560     1.106806096526     1.007825032230

  Basis Set: AUG-CC-PVTZ
    Blend: AUG-CC-PVTZ
  Basis Set: (AUG-CC-PVTZ AUX)
    Blend: AUG-CC-PVTZ-JKFIT
	 Reference Energy          =    -473.8375641637309172 [Eh]
	 Singles Energy            =      -0.0000000000000000 [Eh]
	 Same-Spin Energy          =      -0.4670854811239954 [Eh]
	 Opposite-Spin Energy      =      -1.4580168480523787 [Eh]
	 Correlation Energy        =      -1.9251023291763740 [Eh]
	 Total Energy              =    -475.7626664929072717 [Eh]

	 ================> DF-SCS-MP2 Energies <==================
	-----------------------------------------------------------
	 SCS Same-Spin Scale       =       0.3333333333333333 [-]
	 SCS Opposite-Spin Scale   =       1.2000000000000000 [-]
	 SCS Same-Spin Energy      =      -0.1556951603746651 [Eh]
	 SCS Opposite-Spin Energy  =      -1.7496202176628544 [Eh]
	 SCS Correlation Energy    =      -1.9053153780375194 [Eh]
	 SCS Total Energy          =    -475.7428795417684455 [Eh]
	-----------------------------------------------------------

  Dipole Moment: [D]
     X:    -0.8840      Y:     1.9043      Z:    -1.7483     Total:     2.7321

*** Psi4 exiting successfully. Buy a developer a beer!
