                               Psi4 1.4a3.dev225

  ==> Input File <==

--------------------------------------------------------------------------
#psi4
#
memory 32 gb

molecule  {
0 1
  O        0.8764270    -0.2428500     1.2911470
  O       -3.1675390     0.0980960     0.5443480
  O       -1.5839830     1.3406500    -0.5070920
  N        0.0834400    -0.8734940    -0.7544630
  C        2.2681300     0.2178930    -0.6380450
  C        1.0330250    -0.3000120     0.0721840
  C       -1.2394860    -1.0499030    -0.2084880
  C        3.4385850     0.4137260     0.3159750
  C       -1.9610429     0.2719263    -0.0944040
  H        2.5310470    -0.4685700    -1.4513520
  H        1.9929790     1.1708880    -1.1091590
  H       -1.1549390    -1.4972460     0.7835340
  H       -1.8230450    -1.7308360    -0.8360530
  H        0.1282230    -0.6025030    -1.7308050
  H        3.7379630    -0.5375510     0.7615240
  H        4.2975370     0.8343390    -0.2133880
  H        3.1581410     1.0869690     1.1269820
  H       -3.5812870     0.9851770     0.5837010
units angstrom
no_reorient  #important for SAPT in psi4, default
symmetry c1  #important for SAPT in psi4, default
}

set PROPERTIES_ORIGIN ["COM"]
properties('MP2/aug-cc-pvtz', properties = ['dipole'])
--------------------------------------------------------------------------

    Molecular point group: c1
  Charge       = 0
  Multiplicity = 1
  Basis Set: AUG-CC-PVTZ
    Blend: AUG-CC-PVTZ
  Basis Set: (AUG-CC-PVTZ AUX)
    Blend: AUG-CC-PVTZ-JKFIT

    Orbital Energies [Eh]
    ---------------------

    Doubly Occupied:

       1A    -20.618848     2A    -20.564227     3A    -20.528383
       4A    -15.594055     5A    -11.397352     6A    -11.355934
       7A    -11.292543     8A    -11.244345     9A    -11.217913
      10A     -1.464782    11A     -1.384381    12A     -1.368643
      13A     -1.242431    14A     -1.063045    15A     -1.006172
      16A     -0.888713    17A     -0.820200    18A     -0.784867
      19A     -0.715717    20A     -0.710428    21A     -0.698362
      22A     -0.652712    23A     -0.644263    24A     -0.630261
      25A     -0.605527    26A     -0.599780    27A     -0.558203
      28A     -0.545369    29A     -0.524485    30A     -0.515682
      31A     -0.496686    32A     -0.491890    33A     -0.470804
      34A     -0.433159    35A     -0.411959

  @DF-RHF Final Energy:  -473.83954241359265

   => Energetics <=

    Nuclear Repulsion Energy =            460.5991628884388547
    One-Electron Energy =               -1561.7931669984764085
    Two-Electron Energy =                 627.3544616964447869
    Total Energy =                       -473.8395424135926532
  Basis Set: (AUG-CC-PVTZ AUX)
    Blend: AUG-CC-PVTZ-RI
    Molecular point group: c1

    Geometry (in Angstrom), charge = 0, multiplicity = 1:

       Center              X                  Y                   Z               Mass
    ------------   -----------------  -----------------  -----------------  -----------------
         O            0.944973446707    -0.248762959503     1.276281670063    15.994914619570
         O           -3.098992553293     0.092183040497     0.529482670063    15.994914619570
         O           -1.515436553293     1.334737040497    -0.521957329937    15.994914619570
         N            0.151986446707    -0.879406959503    -0.769328329937    14.003074004430
         C            2.336676446707     0.211980040497    -0.652910329937    12.000000000000
         C            1.101571446707    -0.305924959503     0.057318670063    12.000000000000
         C           -1.170939553293    -1.055815959503    -0.223353329937    12.000000000000
         C            3.507131446707     0.407813040497     0.301109670063    12.000000000000
         C           -1.892496453293     0.266013340497    -0.109269329937    12.000000000000
         H            2.599593446707    -0.474482959503    -1.466217329937     1.007825032230
         H            2.061525446707     1.164975040497    -1.124024329937     1.007825032230
         H           -1.086392553293    -1.503158959503     0.768668670063     1.007825032230
         H           -1.754498553293    -1.736748959503    -0.850918329937     1.007825032230
         H            0.196769446707    -0.608415959503    -1.745670329937     1.007825032230
         H            3.806509446707    -0.543463959503     0.746658670063     1.007825032230
         H            4.366083446707     0.828426040497    -0.228253329937     1.007825032230
         H            3.226687446707     1.081056040497     1.112116670063     1.007825032230
         H           -3.512740553293     0.979264040497     0.568835670063     1.007825032230

  Basis Set: AUG-CC-PVTZ
    Blend: AUG-CC-PVTZ
  Basis Set: (AUG-CC-PVTZ AUX)
    Blend: AUG-CC-PVTZ-JKFIT
	 Reference Energy          =    -473.8395424135926532 [Eh]
	 Singles Energy            =      -0.0000000000000000 [Eh]
	 Same-Spin Energy          =      -0.4667622838406765 [Eh]
	 Opposite-Spin Energy      =      -1.4579964285664855 [Eh]
	 Correlation Energy        =      -1.9247587124071619 [Eh]
	 Total Energy              =    -475.7643011259997934 [Eh]

	 ================> DF-SCS-MP2 Energies <==================
	-----------------------------------------------------------
	 SCS Same-Spin Scale       =       0.3333333333333333 [-]
	 SCS Opposite-Spin Scale   =       1.2000000000000000 [-]
	 SCS Same-Spin Energy      =      -0.1555874279468921 [Eh]
	 SCS Opposite-Spin Energy  =      -1.7495957142797824 [Eh]
	 SCS Correlation Energy    =      -1.9051831422266745 [Eh]
	 SCS Total Energy          =    -475.7447255558193433 [Eh]
	-----------------------------------------------------------

  Dipole Moment: [D]
     X:    -0.7493      Y:    -0.7584      Z:    -2.7417     Total:     2.9417

*** Psi4 exiting successfully. Buy a developer a beer!
