                               Psi4 1.4a3.dev225

  ==> Input File <==

--------------------------------------------------------------------------
#psi4
#
memory 32 gb

molecule  {
0 1
  O        0.8764270    -0.2428500     1.2911470
  O       -3.1675390     0.0980960     0.5443480
  O       -1.5839830     1.3406500    -0.5070920
  N        0.0834400    -0.8734940    -0.7544630
  C        2.2681300     0.2178930    -0.6380450
  C        1.0330250    -0.3000120     0.0721840
  C       -1.2394860    -1.0499030    -0.2084880
  C        3.4385850     0.4137260     0.3159750
  C       -2.0029333     0.3128769    -0.0810555
  H        2.5310470    -0.4685700    -1.4513520
  H        1.9929790     1.1708880    -1.1091590
  H       -1.1549390    -1.4972460     0.7835340
  H       -1.8230450    -1.7308360    -0.8360530
  H        0.1282230    -0.6025030    -1.7308050
  H        3.7379630    -0.5375510     0.7615240
  H        4.2975370     0.8343390    -0.2133880
  H        3.1581410     1.0869690     1.1269820
  H       -3.5812870     0.9851770     0.5837010
units angstrom
no_reorient  #important for SAPT in psi4, default
symmetry c1  #important for SAPT in psi4, default
}

set PROPERTIES_ORIGIN ["COM"]
properties('MP2/aug-cc-pvtz', properties = ['dipole'])
--------------------------------------------------------------------------

    Molecular point group: c1
  Charge       = 0
  Multiplicity = 1
  Basis Set: AUG-CC-PVTZ
    Blend: AUG-CC-PVTZ
  Basis Set: (AUG-CC-PVTZ AUX)
    Blend: AUG-CC-PVTZ-JKFIT

    Orbital Energies [Eh]
    ---------------------

    Doubly Occupied:

       1A    -20.629061     2A    -20.563284     3A    -20.525829
       4A    -15.590909     5A    -11.393936     6A    -11.353307
       7A    -11.288206     8A    -11.242687     9A    -11.216678
      10A     -1.482293    11A     -1.387846    12A     -1.379471
      13A     -1.237231    14A     -1.059347    15A     -0.992956
      16A     -0.886647    17A     -0.825620    18A     -0.781844
      19A     -0.722266    20A     -0.709532    21A     -0.697562
      22A     -0.653059    23A     -0.649708    24A     -0.629879
      25A     -0.606578    26A     -0.599486    27A     -0.556437
      28A     -0.543169    29A     -0.522626    30A     -0.514260
      31A     -0.501885    32A     -0.492562    33A     -0.467783
      34A     -0.430182    35A     -0.405728

  @DF-RHF Final Energy:  -473.83959473936204

   => Energetics <=

    Nuclear Repulsion Energy =            460.4244822452999983
    One-Electron Energy =               -1561.4484486996911983
    Two-Electron Energy =                 627.1843717150292150
    Total Energy =                       -473.8395947393620418
  Basis Set: (AUG-CC-PVTZ AUX)
    Blend: AUG-CC-PVTZ-RI
    Molecular point group: c1

    Geometry (in Angstrom), charge = 0, multiplicity = 1:

       Center              X                  Y                   Z               Mass
    ------------   -----------------  -----------------  -----------------  -----------------
         O            0.948809029940    -0.252512492445     1.275059450109    15.994914619570
         O           -3.095156970060     0.088433507555     0.528260450109    15.994914619570
         O           -1.511600970060     1.330987507555    -0.523179549891    15.994914619570
         N            0.155822029940    -0.883156492445    -0.770550549891    14.003074004430
         C            2.340512029940     0.208230507555    -0.654132549891    12.000000000000
         C            1.105407029940    -0.309674492445     0.056096450109    12.000000000000
         C           -1.167103970060    -1.059565492445    -0.224575549891    12.000000000000
         C            3.510967029940     0.404063507555     0.299887450109    12.000000000000
         C           -1.930551270060     0.303214407555    -0.097143049891    12.000000000000
         H            2.603429029940    -0.478232492445    -1.467439549891     1.007825032230
         H            2.065361029940     1.161225507555    -1.125246549891     1.007825032230
         H           -1.082556970060    -1.506908492445     0.767446450109     1.007825032230
         H           -1.750662970060    -1.740498492445    -0.852140549891     1.007825032230
         H            0.200605029940    -0.612165492445    -1.746892549891     1.007825032230
         H            3.810345029940    -0.547213492445     0.745436450109     1.007825032230
         H            4.369919029940     0.824676507555    -0.229475549891     1.007825032230
         H            3.230523029940     1.077306507555     1.110894450109     1.007825032230
         H           -3.508904970060     0.975514507555     0.567613450109     1.007825032230

  Basis Set: AUG-CC-PVTZ
    Blend: AUG-CC-PVTZ
  Basis Set: (AUG-CC-PVTZ AUX)
    Blend: AUG-CC-PVTZ-JKFIT
	 Reference Energy          =    -473.8395947393620418 [Eh]
	 Singles Energy            =      -0.0000000000000000 [Eh]
	 Same-Spin Energy          =      -0.4661623193560434 [Eh]
	 Opposite-Spin Energy      =      -1.4565780226913621 [Eh]
	 Correlation Energy        =      -1.9227403420474054 [Eh]
	 Total Energy              =    -475.7623350814094465 [Eh]

	 ================> DF-SCS-MP2 Energies <==================
	-----------------------------------------------------------
	 SCS Same-Spin Scale       =       0.3333333333333333 [-]
	 SCS Opposite-Spin Scale   =       1.2000000000000000 [-]
	 SCS Same-Spin Energy      =      -0.1553874397853478 [Eh]
	 SCS Opposite-Spin Energy  =      -1.7478936272296344 [Eh]
	 SCS Correlation Energy    =      -1.9032810670149822 [Eh]
	 SCS Total Energy          =    -475.7428758063770147 [Eh]
	-----------------------------------------------------------

  Dipole Moment: [D]
     X:    -1.0872      Y:    -0.5739      Z:    -2.6451     Total:     2.9168

*** Psi4 exiting successfully. Buy a developer a beer!
