                               Psi4 1.3.2 release

  ==> Input File <==

--------------------------------------------------------------------------
#psi4
#
memory 32 gb

molecule  {
0 1
  O        1.0830410    -1.2590340     0.2697030
  O       -3.0460190    -0.6564700     0.3579990
  O       -1.7208190     1.1319200     0.8547670
  N        0.1440776     0.3101436    -1.1006293
  C        2.3767950     0.7348440    -0.1800510
  C        1.1530800    -0.1541890    -0.2667860
  C       -1.1420340    -0.3248900    -0.9988550
  C        3.4883670     0.0910310     0.6318210
  C       -1.9966337     0.1077691     0.1733255
  H        2.7160870     0.9611190    -1.1975940
  H        2.0743670     1.6930220     0.2624750
  H       -0.9793980    -1.4015010    -0.9274340
  H       -1.7176060    -0.1322810    -1.9133280
  H        0.1138710     1.3396710    -1.2046940
  H        3.7876720    -0.8582410     0.1862610
  H        4.3593370     0.7487140     0.6762100
  H        3.1503700    -0.1123850     1.6481590
  H       -3.5474700    -0.2792990     1.1088070
units angstrom
no_reorient  #important for SAPT in psi4, default
symmetry c1  #important for SAPT in psi4, default
}

set PROPERTIES_ORIGIN ["COM"]
properties('MP2/aug-cc-pvtz', properties = ['dipole'])
--------------------------------------------------------------------------

    Molecular point group: c1
  Charge       = 0
  Multiplicity = 1
  Basis Set: AUG-CC-PVTZ
    Blend: AUG-CC-PVTZ
  Basis Set: (AUG-CC-PVTZ AUX)
    Blend: AUG-CC-PVTZ-JKFIT

    Orbital Energies [Eh]
    ---------------------

    Doubly Occupied:

       1A    -20.640287     2A    -20.553427     3A    -20.530042
       4A    -15.594752     5A    -11.402585     6A    -11.356357
       7A    -11.290183     8A    -11.244193     9A    -11.216340
      10A     -1.486970    11A     -1.384738    12A     -1.348586
      13A     -1.237580    14A     -1.062964    15A     -1.007128
      16A     -0.893329    17A     -0.837551    18A     -0.778107
      19A     -0.720112    20A     -0.715173    21A     -0.697900
      22A     -0.657511    23A     -0.647286    24A     -0.636290
      25A     -0.602553    26A     -0.592307    27A     -0.558529
      28A     -0.538713    29A     -0.524904    30A     -0.517045
      31A     -0.493914    32A     -0.478389    33A     -0.463253
      34A     -0.435709    35A     -0.411393

  @DF-RHF Final Energy:  -473.83242242929293

   => Energetics <=

    Nuclear Repulsion Energy =            457.2110827475225960
    One-Electron Energy =               -1554.9748093082082505
    Two-Electron Energy =                 623.9313041313927215
    Total Energy =                       -473.8324224292929330
  Basis Set: (AUG-CC-PVTZ AUX)
    Blend: AUG-CC-PVTZ-RI
    Molecular point group: c1

    Geometry (in Angstrom), charge = 0, multiplicity = 1:

       Center              X                  Y                   Z               Mass
    ------------   -----------------  -----------------  -----------------  -----------------
         O            1.085440329813    -1.253223855179     0.275490986995    15.994914619570
         O           -3.043619670187    -0.650659855179     0.363786986995    15.994914619570
         O           -1.718419670187     1.137730144821     0.860554986995    15.994914619570
         N            0.146476929813     0.315953744821    -1.094841313005    14.003074004430
         C            2.379194329813     0.740654144821    -0.174263013005    12.000000000000
         C            1.155479329813    -0.148378855179    -0.260998013005    12.000000000000
         C           -1.139634670187    -0.319079855179    -0.993067013005    12.000000000000
         C            3.490766329813     0.096841144821     0.637608986995    12.000000000000
         C           -1.994234370187     0.113579244821     0.179113486995    12.000000000000
         H            2.718486329813     0.966929144821    -1.191806013005     1.007825032230
         H            2.076766329813     1.698832144821     0.268262986995     1.007825032230
         H           -0.976998670187    -1.395690855179    -0.921646013005     1.007825032230
         H           -1.715206670187    -0.126470855179    -1.907540013005     1.007825032230
         H            0.116270329813     1.345481144821    -1.198906013005     1.007825032230
         H            3.790071329813    -0.852430855179     0.192048986995     1.007825032230
         H            4.361736329813     0.754524144821     0.681997986995     1.007825032230
         H            3.152769329813    -0.106574855179     1.653946986995     1.007825032230
         H           -3.545070670187    -0.273488855179     1.114594986995     1.007825032230

  Basis Set: AUG-CC-PVTZ
    Blend: AUG-CC-PVTZ
  Basis Set: (AUG-CC-PVTZ AUX)
    Blend: AUG-CC-PVTZ-JKFIT
	 Reference Energy          =    -473.8324224292929330 [Eh]
	 Singles Energy            =      -0.0000000000000000 [Eh]
	 Same-Spin Energy          =      -0.4673522187004241 [Eh]
	 Opposite-Spin Energy      =      -1.4589912021168339 [Eh]
	 Correlation Energy        =      -1.9263434208172581 [Eh]
	 Total Energy              =    -475.7587658501101942 [Eh]

	 ================> DF-SCS-MP2 Energies <==================
	-----------------------------------------------------------
	 SCS Same-Spin Scale       =       0.3333333333333333 [-]
	 SCS Opposite-Spin Scale   =       1.2000000000000000 [-]
	 SCS Same-Spin Energy      =      -0.1557840729001413 [Eh]
	 SCS Opposite-Spin Energy  =      -1.7507894425402006 [Eh]
	 SCS Correlation Energy    =      -1.9065735154403420 [Eh]
	 SCS Total Energy          =    -475.7389959447332899 [Eh]
	-----------------------------------------------------------

  Dipole Moment: [D]
     X:    -1.2099      Y:     1.5651      Z:    -1.6510     Total:     2.5767

*** Psi4 exiting successfully. Buy a developer a beer!
