                               Psi4 1.3.2 release

  ==> Input File <==

--------------------------------------------------------------------------
#psi4
#
memory 32 gb

molecule  {
0 1
  O        1.0830410    -1.2590340     0.2697030
  O       -3.0460190    -0.6564700     0.3579990
  O       -1.7208190     1.1319200     0.8547670
  N        0.1334480     0.3363350    -1.0591540
  C        2.3767950     0.7348440    -0.1800510
  C        1.1655300    -0.1723599    -0.2521569
  C       -1.1420340    -0.3248900    -0.9988550
  C        3.4729065     0.0698433     0.6357537
  C       -1.9580260     0.1406600     0.1881420
  H        2.7160870     0.9611190    -1.1975940
  H        2.0743670     1.6930220     0.2624750
  H       -0.9793980    -1.4015010    -0.9274340
  H       -1.7176060    -0.1322810    -1.9133280
  H        0.1138710     1.3396710    -1.2046940
  H        3.7876720    -0.8582410     0.1862610
  H        4.3593370     0.7487140     0.6762100
  H        3.1503700    -0.1123850     1.6481590
  H       -3.5474700    -0.2792990     1.1088070
units angstrom
no_reorient  #important for SAPT in psi4, default
symmetry c1  #important for SAPT in psi4, default
}

set PROPERTIES_ORIGIN ["COM"]
properties('MP2/aug-cc-pvtz', properties = ['dipole'])
--------------------------------------------------------------------------

    Molecular point group: c1
  Charge       = 0
  Multiplicity = 1
  Basis Set: AUG-CC-PVTZ
    Blend: AUG-CC-PVTZ
  Basis Set: (AUG-CC-PVTZ AUX)
    Blend: AUG-CC-PVTZ-JKFIT

    Orbital Energies [Eh]
    ---------------------

    Doubly Occupied:

       1A    -20.624352     2A    -20.561595     3A    -20.534218
       4A    -15.587573     5A    -11.397186     6A    -11.355765
       7A    -11.288312     8A    -11.244276     9A    -11.217171
      10A     -1.467302    11A     -1.398949    12A     -1.367693
      13A     -1.235698    14A     -1.063916    15A     -1.002140
      16A     -0.888634    17A     -0.822059    18A     -0.780950
      19A     -0.714677    20A     -0.712901    21A     -0.698904
      22A     -0.652072    23A     -0.644560    24A     -0.639067
      25A     -0.606417    26A     -0.600756    27A     -0.558041
      28A     -0.545696    29A     -0.522287    30A     -0.517020
      31A     -0.500328    32A     -0.491319    33A     -0.468819
      34A     -0.436165    35A     -0.408709

  @DF-RHF Final Energy:  -473.83926384829016

   => Energetics <=

    Nuclear Repulsion Energy =            458.2217905068203549
    One-Electron Energy =               -1557.0110514164300639
    Two-Electron Energy =                 624.9499970613195501
    Total Energy =                       -473.8392638482902157
  Basis Set: (AUG-CC-PVTZ AUX)
    Blend: AUG-CC-PVTZ-RI
    Molecular point group: c1

    Geometry (in Angstrom), charge = 0, multiplicity = 1:

       Center              X                  Y                   Z               Mass
    ------------   -----------------  -----------------  -----------------  -----------------
         O            1.083316698991    -1.255430108716     0.268003313792    15.994914619570
         O           -3.045743301009    -0.652866108716     0.356299313792    15.994914619570
         O           -1.720543301009     1.135523891284     0.853067313792    15.994914619570
         N            0.133723698991     0.339938891284    -1.060853686208    14.003074004430
         C            2.377070698991     0.738447891284    -0.181750686208    12.000000000000
         C            1.165805698991    -0.168756008716    -0.253856586208    12.000000000000
         C           -1.141758301009    -0.321286108716    -1.000554686208    12.000000000000
         C            3.473182198991     0.073447191284     0.634054013792    12.000000000000
         C           -1.957750301009     0.144263891284     0.186442313792    12.000000000000
         H            2.716362698991     0.964722891284    -1.199293686208     1.007825032230
         H            2.074642698991     1.696625891284     0.260775313792     1.007825032230
         H           -0.979122301009    -1.397897108716    -0.929133686208     1.007825032230
         H           -1.717330301009    -0.128677108716    -1.915027686208     1.007825032230
         H            0.114146698991     1.343274891284    -1.206393686208     1.007825032230
         H            3.787947698991    -0.854637108716     0.184561313792     1.007825032230
         H            4.359612698991     0.752317891284     0.674510313792     1.007825032230
         H            3.150645698991    -0.108781108716     1.646459313792     1.007825032230
         H           -3.547194301009    -0.275695108716     1.107107313792     1.007825032230

  Basis Set: AUG-CC-PVTZ
    Blend: AUG-CC-PVTZ
  Basis Set: (AUG-CC-PVTZ AUX)
    Blend: AUG-CC-PVTZ-JKFIT
	 Reference Energy          =    -473.8392638482901589 [Eh]
	 Singles Energy            =      -0.0000000000000000 [Eh]
	 Same-Spin Energy          =      -0.4663450242775076 [Eh]
	 Opposite-Spin Energy      =      -1.4570134609944980 [Eh]
	 Correlation Energy        =      -1.9233584852720056 [Eh]
	 Total Energy              =    -475.7626223335621489 [Eh]

	 ================> DF-SCS-MP2 Energies <==================
	-----------------------------------------------------------
	 SCS Same-Spin Scale       =       0.3333333333333333 [-]
	 SCS Opposite-Spin Scale   =       1.2000000000000000 [-]
	 SCS Same-Spin Energy      =      -0.1554483414258359 [Eh]
	 SCS Opposite-Spin Energy  =      -1.7484161531933975 [Eh]
	 SCS Correlation Energy    =      -1.9038644946192333 [Eh]
	 SCS Total Energy          =    -475.7431283429094151 [Eh]
	-----------------------------------------------------------

  Dipole Moment: [D]
     X:    -0.8067      Y:     1.7522      Z:    -1.6311     Total:     2.5262

*** Psi4 exiting successfully. Buy a developer a beer!
