                               Psi4 1.3.2 release

  ==> Input File <==

--------------------------------------------------------------------------
#psi4
#
memory 32 gb

molecule  {
0 1
  O        1.1029827    -1.2564370     0.2772251
  O       -3.0460190    -0.6564700     0.3579990
  O       -1.7208190     1.1319200     0.8547670
  N        0.1334480     0.3363350    -1.0591540
  C        2.3888012     0.7164844    -0.1652871
  C        1.1530800    -0.1541890    -0.2667860
  C       -1.1420340    -0.3248900    -0.9988550
  C        3.4883670     0.0910310     0.6318210
  C       -1.9580260     0.1406600     0.1881420
  H        2.7160870     0.9611190    -1.1975940
  H        2.0743670     1.6930220     0.2624750
  H       -0.9793980    -1.4015010    -0.9274340
  H       -1.7176060    -0.1322810    -1.9133280
  H        0.1138710     1.3396710    -1.2046940
  H        3.7876720    -0.8582410     0.1862610
  H        4.3593370     0.7487140     0.6762100
  H        3.1503700    -0.1123850     1.6481590
  H       -3.5474700    -0.2792990     1.1088070
units angstrom
no_reorient  #important for SAPT in psi4, default
symmetry c1  #important for SAPT in psi4, default
}

set PROPERTIES_ORIGIN ["COM"]
properties('MP2/aug-cc-pvtz', properties = ['dipole'])
--------------------------------------------------------------------------

    Molecular point group: c1
  Charge       = 0
  Multiplicity = 1
  Basis Set: AUG-CC-PVTZ
    Blend: AUG-CC-PVTZ
  Basis Set: (AUG-CC-PVTZ AUX)
    Blend: AUG-CC-PVTZ-JKFIT

    Orbital Energies [Eh]
    ---------------------

    Doubly Occupied:

       1A    -20.625996     2A    -20.563493     3A    -20.528306
       4A    -15.594388     5A    -11.399557     6A    -11.355899
       7A    -11.292076     8A    -11.244575     9A    -11.214669
      10A     -1.469058    11A     -1.384527    12A     -1.369104
      13A     -1.243237    14A     -1.064939    15A     -1.007997
      16A     -0.889357    17A     -0.824575    18A     -0.786158
      19A     -0.716618    20A     -0.712804    21A     -0.698069
      22A     -0.654010    23A     -0.644464    24A     -0.635170
      25A     -0.604570    26A     -0.600231    27A     -0.560842
      28A     -0.541002    29A     -0.531295    30A     -0.516457
      31A     -0.493832    32A     -0.487981    33A     -0.469664
      34A     -0.432750    35A     -0.410942

  @DF-RHF Final Energy:  -473.83856663522988

   => Energetics <=

    Nuclear Repulsion Energy =            458.0464443112148274
    One-Electron Energy =               -1556.6327971805969810
    Two-Electron Energy =                 624.7477862341522723
    Total Energy =                       -473.8385666352298813
  Basis Set: (AUG-CC-PVTZ AUX)
    Blend: AUG-CC-PVTZ-RI
    Molecular point group: c1

    Geometry (in Angstrom), charge = 0, multiplicity = 1:

       Center              X                  Y                   Z               Mass
    ------------   -----------------  -----------------  -----------------  -----------------
         O            1.099449663448    -1.255072775495     0.274955128814    15.994914619570
         O           -3.049552036552    -0.655105775495     0.355729028814    15.994914619570
         O           -1.724352036552     1.133284224505     0.852497028814    15.994914619570
         N            0.129914963448     0.337699224505    -1.061423971186    14.003074004430
         C            2.385268163448     0.717848624505    -0.167557071186    12.000000000000
         C            1.149546963448    -0.152824775495    -0.269055971186    12.000000000000
         C           -1.145567036552    -0.323525775495    -1.001124971186    12.000000000000
         C            3.484833963448     0.092395224505     0.629551028814    12.000000000000
         C           -1.961559036552     0.142024224505     0.185872028814    12.000000000000
         H            2.712553963448     0.962483224505    -1.199863971186     1.007825032230
         H            2.070833963448     1.694386224505     0.260205028814     1.007825032230
         H           -0.982931036552    -1.400136775495    -0.929703971186     1.007825032230
         H           -1.721139036552    -0.130916775495    -1.915597971186     1.007825032230
         H            0.110337963448     1.341035224505    -1.206963971186     1.007825032230
         H            3.784138963448    -0.856876775495     0.183991028814     1.007825032230
         H            4.355803963448     0.750078224505     0.673940028814     1.007825032230
         H            3.146836963448    -0.111020775495     1.645889028814     1.007825032230
         H           -3.551003036552    -0.277934775495     1.106537028814     1.007825032230

  Basis Set: AUG-CC-PVTZ
    Blend: AUG-CC-PVTZ
  Basis Set: (AUG-CC-PVTZ AUX)
    Blend: AUG-CC-PVTZ-JKFIT
	 Reference Energy          =    -473.8385666352298813 [Eh]
	 Singles Energy            =      -0.0000000000000000 [Eh]
	 Same-Spin Energy          =      -0.4668708934217842 [Eh]
	 Opposite-Spin Energy      =      -1.4578471865079989 [Eh]
	 Correlation Energy        =      -1.9247180799297832 [Eh]
	 Total Energy              =    -475.7632847151596707 [Eh]

	 ================> DF-SCS-MP2 Energies <==================
	-----------------------------------------------------------
	 SCS Same-Spin Scale       =       0.3333333333333333 [-]
	 SCS Opposite-Spin Scale   =       1.2000000000000000 [-]
	 SCS Same-Spin Energy      =      -0.1556236311405947 [Eh]
	 SCS Opposite-Spin Energy  =      -1.7494166238095987 [Eh]
	 SCS Correlation Energy    =      -1.9050402549501935 [Eh]
	 SCS Total Energy          =    -475.7436068901800468 [Eh]
	-----------------------------------------------------------

  Dipole Moment: [D]
     X:    -1.0098      Y:     1.8641      Z:    -1.7584     Total:     2.7544

*** Psi4 exiting successfully. Buy a developer a beer!
