                               Psi4 1.4a3.dev225

  ==> Input File <==

--------------------------------------------------------------------------
#psi4
#
memory 32 gb

molecule  {
0 1
  O        0.8764270    -0.2428500     1.2911470
  O       -3.1675390     0.0980960     0.5443480
  O       -1.5839830     1.3406500    -0.5070920
  N        0.0834400    -0.8734940    -0.7544630
  C        2.2681300     0.2178930    -0.6380450
  C        0.9922883    -0.3170937     0.0956091
  C       -1.2394860    -1.0499030    -0.2084880
  C        3.4385850     0.4137260     0.3159750
  C       -1.9785770     0.2694000    -0.0851210
  H        2.5310470    -0.4685700    -1.4513520
  H        1.9929790     1.1708880    -1.1091590
  H       -1.1549390    -1.4972460     0.7835340
  H       -1.8230450    -1.7308360    -0.8360530
  H        0.1282230    -0.6025030    -1.7308050
  H        3.7379630    -0.5375510     0.7615240
  H        4.2975370     0.8343390    -0.2133880
  H        3.1581410     1.0869690     1.1269820
  H       -3.5812870     0.9851770     0.5837010
units angstrom
no_reorient  #important for SAPT in psi4, default
symmetry c1  #important for SAPT in psi4, default
}

set PROPERTIES_ORIGIN ["COM"]
properties('MP2/aug-cc-pvtz', properties = ['dipole'])
--------------------------------------------------------------------------

    Molecular point group: c1
  Charge       = 0
  Multiplicity = 1
  Basis Set: AUG-CC-PVTZ
    Blend: AUG-CC-PVTZ
  Basis Set: (AUG-CC-PVTZ AUX)
    Blend: AUG-CC-PVTZ-JKFIT

    Orbital Energies [Eh]
    ---------------------

    Doubly Occupied:

       1A    -20.625870     2A    -20.562429     3A    -20.529534
       4A    -15.594820     5A    -11.399186     6A    -11.351592
       7A    -11.293127     8A    -11.240353     9A    -11.214331
      10A     -1.470535    11A     -1.399920    12A     -1.368669
      13A     -1.250674    14A     -1.052748    15A     -1.005947
      16A     -0.881436    17A     -0.824455    18A     -0.792546
      19A     -0.717056    20A     -0.712376    21A     -0.697096
      22A     -0.654811    23A     -0.647448    24A     -0.628024
      25A     -0.606384    26A     -0.599985    27A     -0.562399
      28A     -0.548938    29A     -0.522914    30A     -0.513270
      31A     -0.494296    32A     -0.490540    33A     -0.471165
      34A     -0.428287    35A     -0.413373

  @DF-RHF Final Energy:  -473.83938715586424

   => Energetics <=

    Nuclear Repulsion Energy =            460.9043499529271912
    One-Electron Energy =               -1562.3544049207234821
    Two-Electron Energy =                 627.6106678119322169
    Total Energy =                       -473.8393871558641877
  Basis Set: (AUG-CC-PVTZ AUX)
    Blend: AUG-CC-PVTZ-RI
    Molecular point group: c1

    Geometry (in Angstrom), charge = 0, multiplicity = 1:

       Center              X                  Y                   Z               Mass
    ------------   -----------------  -----------------  -----------------  -----------------
         O            0.950308857767    -0.246967605053     1.273286839746    15.994914619570
         O           -3.093657142233     0.093978394947     0.526487839746    15.994914619570
         O           -1.510101142233     1.336532394947    -0.524952160254    15.994914619570
         N            0.157321857767    -0.877611605053    -0.772323160254    14.003074004430
         C            2.342011857767     0.213775394947    -0.655905160254    12.000000000000
         C            1.066170157767    -0.321211305053     0.077748939746    12.000000000000
         C           -1.165604142233    -1.054020605053    -0.226348160254    12.000000000000
         C            3.512466857767     0.409608394947     0.298114839746    12.000000000000
         C           -1.904695142233     0.265282394947    -0.102981160254    12.000000000000
         H            2.604928857767    -0.472687605053    -1.469212160254     1.007825032230
         H            2.066860857767     1.166770394947    -1.127019160254     1.007825032230
         H           -1.081057142233    -1.501363605053     0.765673839746     1.007825032230
         H           -1.749163142233    -1.734953605053    -0.853913160254     1.007825032230
         H            0.202104857767    -0.606620605053    -1.748665160254     1.007825032230
         H            3.811844857767    -0.541668605053     0.743663839746     1.007825032230
         H            4.371418857767     0.830221394947    -0.231248160254     1.007825032230
         H            3.232022857767     1.082851394947     1.109121839746     1.007825032230
         H           -3.507405142233     0.981059394947     0.565840839746     1.007825032230

  Basis Set: AUG-CC-PVTZ
    Blend: AUG-CC-PVTZ
  Basis Set: (AUG-CC-PVTZ AUX)
    Blend: AUG-CC-PVTZ-JKFIT
	 Reference Energy          =    -473.8393871558642445 [Eh]
	 Singles Energy            =      -0.0000000000000000 [Eh]
	 Same-Spin Energy          =      -0.4661522685635034 [Eh]
	 Opposite-Spin Energy      =      -1.4566613833640467 [Eh]
	 Correlation Energy        =      -1.9228136519275503 [Eh]
	 Total Energy              =    -475.7622008077917712 [Eh]

	 ================> DF-SCS-MP2 Energies <==================
	-----------------------------------------------------------
	 SCS Same-Spin Scale       =       0.3333333333333333 [-]
	 SCS Opposite-Spin Scale   =       1.2000000000000000 [-]
	 SCS Same-Spin Energy      =      -0.1553840895211678 [Eh]
	 SCS Opposite-Spin Energy  =      -1.7479936600368560 [Eh]
	 SCS Correlation Energy    =      -1.9033777495580237 [Eh]
	 SCS Total Energy          =    -475.7427649054222911 [Eh]
	-----------------------------------------------------------

  Dipole Moment: [D]
     X:    -1.1506      Y:    -0.8753      Z:    -2.5794     Total:     2.9569

*** Psi4 exiting successfully. Buy a developer a beer!
