                               Psi4 1.3.2 release

  ==> Input File <==

--------------------------------------------------------------------------
#psi4
#
memory 32 gb

molecule  {
0 1
  O        1.0830410    -1.2590340     0.2697030
  O       -3.0460190    -0.6564700     0.3579990
  O       -1.7208190     1.1319200     0.8547670
  N        0.1334480     0.3363350    -1.0591540
  C        2.3767950     0.7348440    -0.1800510
  C        1.1530800    -0.1541890    -0.2667860
  C       -1.1302722    -0.3467836    -0.9953659
  C        3.4883670     0.0910310     0.6318210
  C       -1.9580260     0.1406600     0.1881420
  H        2.7160870     0.9611190    -1.1975940
  H        2.0743670     1.6930220     0.2624750
  H       -0.9793980    -1.4015010    -0.9274340
  H       -1.7176060    -0.1322810    -1.9133280
  H        0.1315613     1.3399257    -1.2042418
  H        3.7876720    -0.8582410     0.1862610
  H        4.3593370     0.7487140     0.6762100
  H        3.1503700    -0.1123850     1.6481590
  H       -3.5474700    -0.2792990     1.1088070
units angstrom
no_reorient  #important for SAPT in psi4, default
symmetry c1  #important for SAPT in psi4, default
}

set PROPERTIES_ORIGIN ["COM"]
properties('MP2/aug-cc-pvtz', properties = ['dipole'])
--------------------------------------------------------------------------

    Molecular point group: c1
  Charge       = 0
  Multiplicity = 1
  Basis Set: AUG-CC-PVTZ
    Blend: AUG-CC-PVTZ
  Basis Set: (AUG-CC-PVTZ AUX)
    Blend: AUG-CC-PVTZ-JKFIT

    Orbital Energies [Eh]
    ---------------------

    Doubly Occupied:

       1A    -20.625279     2A    -20.563090     3A    -20.528412
       4A    -15.592897     5A    -11.399177     6A    -11.355398
       7A    -11.291583     8A    -11.244179     9A    -11.216479
      10A     -1.468200    11A     -1.384846    12A     -1.368391
      13A     -1.241805    14A     -1.063415    15A     -1.005291
      16A     -0.889024    17A     -0.824742    18A     -0.786174
      19A     -0.716031    20A     -0.712237    21A     -0.696673
      22A     -0.652276    23A     -0.646990    24A     -0.636807
      25A     -0.604059    26A     -0.599197    27A     -0.564122
      28A     -0.539783    29A     -0.524767    30A     -0.517432
      31A     -0.495483    32A     -0.491858    33A     -0.468929
      34A     -0.433481    35A     -0.409510

  @DF-RHF Final Energy:  -473.83908383227907

   => Energetics <=

    Nuclear Repulsion Energy =            458.0032850624877483
    One-Electron Energy =               -1556.5687036135293511
    Two-Electron Energy =                 624.7263347187624731
    Total Energy =                       -473.8390838322791296
  Basis Set: (AUG-CC-PVTZ AUX)
    Blend: AUG-CC-PVTZ-RI
    Molecular point group: c1

    Geometry (in Angstrom), charge = 0, multiplicity = 1:

       Center              X                  Y                   Z               Mass
    ------------   -----------------  -----------------  -----------------  -----------------
         O            1.081828075899    -1.257031203680     0.269379928167    15.994914619570
         O           -3.047231924101    -0.654467203680     0.357675928167    15.994914619570
         O           -1.722031924101     1.133922796320     0.854443928167    15.994914619570
         N            0.132235075899     0.338337796320    -1.059477071833    14.003074004430
         C            2.375582075899     0.736846796320    -0.180374071833    12.000000000000
         C            1.151867075899    -0.152186203680    -0.267109071833    12.000000000000
         C           -1.131485124101    -0.344780803680    -0.995688971833    12.000000000000
         C            3.487154075899     0.093033796320     0.631497928167    12.000000000000
         C           -1.959238924101     0.142662796320     0.187818928167    12.000000000000
         H            2.714874075899     0.963121796320    -1.197917071833     1.007825032230
         H            2.073154075899     1.695024796320     0.262151928167     1.007825032230
         H           -0.980610924101    -1.399498203680    -0.927757071833     1.007825032230
         H           -1.718818924101    -0.130278203680    -1.913651071833     1.007825032230
         H            0.130348375899     1.341928496320    -1.204564871833     1.007825032230
         H            3.786459075899    -0.856238203680     0.185937928167     1.007825032230
         H            4.358124075899     0.750716796320     0.675886928167     1.007825032230
         H            3.149157075899    -0.110382203680     1.647835928167     1.007825032230
         H           -3.548682924101    -0.277296203680     1.108483928167     1.007825032230

  Basis Set: AUG-CC-PVTZ
    Blend: AUG-CC-PVTZ
  Basis Set: (AUG-CC-PVTZ AUX)
    Blend: AUG-CC-PVTZ-JKFIT
	 Reference Energy          =    -473.8390838322790728 [Eh]
	 Singles Energy            =      -0.0000000000000000 [Eh]
	 Same-Spin Energy          =      -0.4666844466790005 [Eh]
	 Opposite-Spin Energy      =      -1.4576530426526513 [Eh]
	 Correlation Energy        =      -1.9243374893316518 [Eh]
	 Total Energy              =    -475.7634213216107355 [Eh]

	 ================> DF-SCS-MP2 Energies <==================
	-----------------------------------------------------------
	 SCS Same-Spin Scale       =       0.3333333333333333 [-]
	 SCS Opposite-Spin Scale   =       1.2000000000000000 [-]
	 SCS Same-Spin Energy      =      -0.1555614822263335 [Eh]
	 SCS Opposite-Spin Energy  =      -1.7491836511831815 [Eh]
	 SCS Correlation Energy    =      -1.9047451334095151 [Eh]
	 SCS Total Energy          =    -475.7438289656885786 [Eh]
	-----------------------------------------------------------

  Dipole Moment: [D]
     X:    -0.9406      Y:     1.8725      Z:    -1.7473     Total:     2.7284

*** Psi4 exiting successfully. Buy a developer a beer!
