                               Psi4 1.3.2 release

  ==> Input File <==

--------------------------------------------------------------------------
#psi4
#
memory 32 gb

molecule  {
0 1
  O        1.0830410    -1.2590340     0.2697030
  O       -3.0460190    -0.6564700     0.3579990
  O       -1.7208190     1.1319200     0.8547670
  N        0.1334480     0.3363350    -1.0591540
  C        2.3767950     0.7348440    -0.1800510
  C        1.1644665     0.0254304    -0.3540053
  C       -1.1420340    -0.3248900    -0.9988550
  C        3.4883670     0.0910310     0.6318210
  C       -1.9580260     0.1406600     0.1881420
  H        2.7160870     0.9611190    -1.1975940
  H        2.0743670     1.6930220     0.2624750
  H       -0.9793980    -1.4015010    -0.9274340
  H       -1.7176060    -0.1322810    -1.9133280
  H        0.1138710     1.3396710    -1.2046940
  H        3.7876720    -0.8582410     0.1862610
  H        4.3593370     0.7487140     0.6762100
  H        3.1503700    -0.1123850     1.6481590
  H       -3.5474700    -0.2792990     1.1088070
units angstrom
no_reorient  #important for SAPT in psi4, default
symmetry c1  #important for SAPT in psi4, default
}

set PROPERTIES_ORIGIN ["COM"]
properties('MP2/aug-cc-pvtz', properties = ['dipole'])
--------------------------------------------------------------------------

    Molecular point group: c1
  Charge       = 0
  Multiplicity = 1
  Basis Set: AUG-CC-PVTZ
    Blend: AUG-CC-PVTZ
  Basis Set: (AUG-CC-PVTZ AUX)
    Blend: AUG-CC-PVTZ-JKFIT

    Orbital Energies [Eh]
    ---------------------

    Doubly Occupied:

       1A    -20.630004     2A    -20.567922     3A    -20.489642
       4A    -15.620242     5A    -11.406909     6A    -11.359876
       7A    -11.304096     8A    -11.250604     9A    -11.219602
      10A     -1.473303    11A     -1.375044    12A     -1.336794
      13A     -1.207287    14A     -1.084798    15A     -1.027781
      16A     -0.910861    17A     -0.843760    18A     -0.796837
      19A     -0.722744    20A     -0.720416    21A     -0.699575
      22A     -0.665872    23A     -0.650298    24A     -0.646617
      25A     -0.609221    26A     -0.575230    27A     -0.548988
      28A     -0.542820    29A     -0.533482    30A     -0.498265
      31A     -0.493026    32A     -0.482426    33A     -0.466528
      34A     -0.402083    35A     -0.383349

  @DF-RHF Final Energy:  -473.77351313455313

   => Energetics <=

    Nuclear Repulsion Energy =            457.3768456922658174
    One-Electron Energy =               -1555.2081154386207800
    Two-Electron Energy =                 624.0577566118018922
    Total Energy =                       -473.7735131345531272
  Basis Set: (AUG-CC-PVTZ AUX)
    Blend: AUG-CC-PVTZ-RI
    Molecular point group: c1

    Geometry (in Angstrom), charge = 0, multiplicity = 1:

       Center              X                  Y                   Z               Mass
    ------------   -----------------  -----------------  -----------------  -----------------
         O            1.081998475918    -1.275480247775     0.277688879304    15.994914619570
         O           -3.047061524082    -0.672916247775     0.365984879304    15.994914619570
         O           -1.721861524082     1.115473752225     0.862752879304    15.994914619570
         N            0.132405475918     0.319888752225    -1.051168120696    14.003074004430
         C            2.375752475918     0.718397752225    -0.172065120696    12.000000000000
         C            1.163423975918     0.008984152225    -0.346019420696    12.000000000000
         C           -1.143076524082    -0.341336247775    -0.990869120696    12.000000000000
         C            3.487324475918     0.074584752225     0.639806879304    12.000000000000
         C           -1.959068524082     0.124213752225     0.196127879304    12.000000000000
         H            2.715044475918     0.944672752225    -1.189608120696     1.007825032230
         H            2.073324475918     1.676575752225     0.270460879304     1.007825032230
         H           -0.980440524082    -1.417947247775    -0.919448120696     1.007825032230
         H           -1.718648524082    -0.148727247775    -1.905342120696     1.007825032230
         H            0.112828475918     1.323224752225    -1.196708120696     1.007825032230
         H            3.786629475918    -0.874687247775     0.194246879304     1.007825032230
         H            4.358294475918     0.732267752225     0.684195879304     1.007825032230
         H            3.149327475918    -0.128831247775     1.656144879304     1.007825032230
         H           -3.548512524082    -0.295745247775     1.116792879304     1.007825032230

  Basis Set: AUG-CC-PVTZ
    Blend: AUG-CC-PVTZ
  Basis Set: (AUG-CC-PVTZ AUX)
    Blend: AUG-CC-PVTZ-JKFIT
	 Reference Energy          =    -473.7735131345531272 [Eh]
	 Singles Energy            =      -0.0000000000000000 [Eh]
	 Same-Spin Energy          =      -0.4714859713535149 [Eh]
	 Opposite-Spin Energy      =      -1.4667619122432087 [Eh]
	 Correlation Energy        =      -1.9382478835967236 [Eh]
	 Total Energy              =    -475.7117610181498435 [Eh]

	 ================> DF-SCS-MP2 Energies <==================
	-----------------------------------------------------------
	 SCS Same-Spin Scale       =       0.3333333333333333 [-]
	 SCS Opposite-Spin Scale   =       1.2000000000000000 [-]
	 SCS Same-Spin Energy      =      -0.1571619904511716 [Eh]
	 SCS Opposite-Spin Energy  =      -1.7601142946918504 [Eh]
	 SCS Correlation Energy    =      -1.9172762851430221 [Eh]
	 SCS Total Energy          =    -475.6907894196961593 [Eh]
	-----------------------------------------------------------

  Dipole Moment: [D]
     X:    -1.3062      Y:     2.7556      Z:    -2.3140     Total:     3.8280

*** Psi4 exiting successfully. Buy a developer a beer!
