                               Psi4 1.4a3.dev225

  ==> Input File <==

--------------------------------------------------------------------------
#psi4
#
memory 32 gb

molecule  {
0 1
  O        0.8764270    -0.2428500     1.2911470
  O       -3.1675390     0.0980960     0.5443480
  O       -1.5839830     1.3406500    -0.5070920
  N        0.0834400    -0.8734940    -0.7544630
  C        2.2681300     0.2178930    -0.6380450
  C        1.0330250    -0.3000120     0.0721840
  C       -1.2394860    -1.0499030    -0.2084880
  C        3.4385850     0.4137260     0.3159750
  C       -1.9961111     0.2668737    -0.0758380
  H        2.5310470    -0.4685700    -1.4513520
  H        1.9929790     1.1708880    -1.1091590
  H       -1.1549390    -1.4972460     0.7835340
  H       -1.8230450    -1.7308360    -0.8360530
  H        0.1282230    -0.6025030    -1.7308050
  H        3.7379630    -0.5375510     0.7615240
  H        4.2975370     0.8343390    -0.2133880
  H        3.1581410     1.0869690     1.1269820
  H       -3.5812870     0.9851770     0.5837010
units angstrom
no_reorient  #important for SAPT in psi4, default
symmetry c1  #important for SAPT in psi4, default
}

set PROPERTIES_ORIGIN ["COM"]
properties('MP2/aug-cc-pvtz', properties = ['dipole'])
--------------------------------------------------------------------------

    Molecular point group: c1
  Charge       = 0
  Multiplicity = 1
  Basis Set: AUG-CC-PVTZ
    Blend: AUG-CC-PVTZ
  Basis Set: (AUG-CC-PVTZ AUX)
    Blend: AUG-CC-PVTZ-JKFIT

    Orbital Energies [Eh]
    ---------------------

    Doubly Occupied:

       1A    -20.630398     2A    -20.557530     3A    -20.526925
       4A    -15.592898     5A    -11.398086     6A    -11.354575
       7A    -11.291517     8A    -11.243166     9A    -11.216992
      10A     -1.475859    11A     -1.383076    12A     -1.363019
      13A     -1.239776    14A     -1.061365    15A     -1.003851
      16A     -0.889527    17A     -0.829215    18A     -0.783954
      19A     -0.716924    20A     -0.710756    21A     -0.698219
      22A     -0.653196    23A     -0.649173    24A     -0.629977
      25A     -0.603037    26A     -0.597127    27A     -0.559680
      28A     -0.543225    29A     -0.523299    30A     -0.514529
      31A     -0.493768    32A     -0.486496    33A     -0.466633
      34A     -0.432000    35A     -0.410256

  @DF-RHF Final Energy:  -473.83910184297355

   => Energetics <=

    Nuclear Repulsion Energy =            460.3434163608142740
    One-Electron Energy =               -1561.3049849857432037
    Two-Electron Energy =                 627.1224667819554952
    Total Energy =                       -473.8391018429734913
  Basis Set: (AUG-CC-PVTZ AUX)
    Blend: AUG-CC-PVTZ-RI
    Molecular point group: c1

    Geometry (in Angstrom), charge = 0, multiplicity = 1:

       Center              X                  Y                   Z               Mass
    ------------   -----------------  -----------------  -----------------  -----------------
         O            0.948184373314    -0.248300331601     1.274581723577    15.994914619570
         O           -3.095781626686     0.092645668399     0.527782723577    15.994914619570
         O           -1.512225626686     1.335199668399    -0.523657276423    15.994914619570
         N            0.155197373314    -0.878944331601    -0.771028276423    14.003074004430
         C            2.339887373314     0.212442668399    -0.654610276423    12.000000000000
         C            1.104782373314    -0.305462331601     0.055618723577    12.000000000000
         C           -1.167728626686    -1.055353331601    -0.225053276423    12.000000000000
         C            3.510342373314     0.408275668399     0.299409723577    12.000000000000
         C           -1.924353726686     0.261423368399    -0.092403276423    12.000000000000
         H            2.602804373314    -0.474020331601    -1.467917276423     1.007825032230
         H            2.064736373314     1.165437668399    -1.125724276423     1.007825032230
         H           -1.083181626686    -1.502696331601     0.766968723577     1.007825032230
         H           -1.751287626686    -1.736286331601    -0.852618276423     1.007825032230
         H            0.199980373314    -0.607953331601    -1.747370276423     1.007825032230
         H            3.809720373314    -0.543001331601     0.744958723577     1.007825032230
         H            4.369294373314     0.828888668399    -0.229953276423     1.007825032230
         H            3.229898373314     1.081518668399     1.110416723577     1.007825032230
         H           -3.509529626686     0.979726668399     0.567135723577     1.007825032230

  Basis Set: AUG-CC-PVTZ
    Blend: AUG-CC-PVTZ
  Basis Set: (AUG-CC-PVTZ AUX)
    Blend: AUG-CC-PVTZ-JKFIT
	 Reference Energy          =    -473.8391018429735482 [Eh]
	 Singles Energy            =      -0.0000000000000000 [Eh]
	 Same-Spin Energy          =      -0.4669029775617911 [Eh]
	 Opposite-Spin Energy      =      -1.4580018961405292 [Eh]
	 Correlation Energy        =      -1.9249048737023202 [Eh]
	 Total Energy              =    -475.7640067166758513 [Eh]

	 ================> DF-SCS-MP2 Energies <==================
	-----------------------------------------------------------
	 SCS Same-Spin Scale       =       0.3333333333333333 [-]
	 SCS Opposite-Spin Scale   =       1.2000000000000000 [-]
	 SCS Same-Spin Energy      =      -0.1556343258539303 [Eh]
	 SCS Opposite-Spin Energy  =      -1.7496022753686351 [Eh]
	 SCS Correlation Energy    =      -1.9052366012225654 [Eh]
	 SCS Total Energy          =    -475.7443384441961030 [Eh]
	-----------------------------------------------------------

  Dipole Moment: [D]
     X:    -1.0547      Y:    -0.8095      Z:    -2.5863     Total:     2.9081

*** Psi4 exiting successfully. Buy a developer a beer!
