                               Psi4 1.3.2 release

  ==> Input File <==

--------------------------------------------------------------------------
#psi4
#
memory 32 gb

molecule  {
0 1
  O        1.0830410    -1.2590340     0.2697030
  O       -3.0460190    -0.6564700     0.3579990
  O       -1.7208190     1.1319200     0.8547670
  N        0.1334480     0.3363350    -1.0591540
  C        2.3767950     0.7348440    -0.1800510
  C        1.1530800    -0.1541890    -0.2667860
  C       -1.1055976    -0.3899400    -0.9884469
  C        3.4883670     0.0910310     0.6318210
  C       -1.9580260     0.1406600     0.1881420
  H        2.7160870     0.9611190    -1.1975940
  H        2.0743670     1.6930220     0.2624750
  H       -0.9793980    -1.4015010    -0.9274340
  H       -1.7176060    -0.1322810    -1.9133280
  H        0.1669381     1.3395179    -1.2032049
  H        3.7876720    -0.8582410     0.1862610
  H        4.3593370     0.7487140     0.6762100
  H        3.1503700    -0.1123850     1.6481590
  H       -3.5474700    -0.2792990     1.1088070
units angstrom
no_reorient  #important for SAPT in psi4, default
symmetry c1  #important for SAPT in psi4, default
}

set PROPERTIES_ORIGIN ["COM"]
properties('MP2/aug-cc-pvtz', properties = ['dipole'])
--------------------------------------------------------------------------

    Molecular point group: c1
  Charge       = 0
  Multiplicity = 1
  Basis Set: AUG-CC-PVTZ
    Blend: AUG-CC-PVTZ
  Basis Set: (AUG-CC-PVTZ AUX)
    Blend: AUG-CC-PVTZ-JKFIT

    Orbital Energies [Eh]
    ---------------------

    Doubly Occupied:

       1A    -20.624782     2A    -20.563331     3A    -20.527807
       4A    -15.593200     5A    -11.399670     6A    -11.354097
       7A    -11.293439     8A    -11.244149     9A    -11.216526
      10A     -1.467461    11A     -1.384923    12A     -1.367945
      13A     -1.241863    14A     -1.063400    15A     -1.003891
      16A     -0.887818    17A     -0.825626    18A     -0.786785
      19A     -0.716147    20A     -0.710761    21A     -0.693586
      22A     -0.658717    23A     -0.646658    24A     -0.636287
      25A     -0.603594    26A     -0.599223    27A     -0.569374
      28A     -0.538302    29A     -0.523477    30A     -0.517493
      31A     -0.495443    32A     -0.492026    33A     -0.467894
      34A     -0.432476    35A     -0.407962

  @DF-RHF Final Energy:  -473.83248186021979

   => Energetics <=

    Nuclear Repulsion Energy =            457.9511729908339817
    One-Electron Energy =               -1556.4550441404803678
    Two-Electron Energy =                 624.6713892894265427
    Total Energy =                       -473.8324818602197865
  Basis Set: (AUG-CC-PVTZ AUX)
    Blend: AUG-CC-PVTZ-RI
    Molecular point group: c1

    Geometry (in Angstrom), charge = 0, multiplicity = 1:

       Center              X                  Y                   Z               Mass
    ------------   -----------------  -----------------  -----------------  -----------------
         O            1.079296767554    -1.253076566577     0.268738434647    15.994914619570
         O           -3.049763232446    -0.650512566577     0.357034434647    15.994914619570
         O           -1.724563232446     1.137877433423     0.853802434647    15.994914619570
         N            0.129703767554     0.342292433423    -1.060118565353    14.003074004430
         C            2.373050767554     0.740801433423    -0.181015565353    12.000000000000
         C            1.149335767554    -0.148231566577    -0.267750565353    12.000000000000
         C           -1.109341832446    -0.383982566577    -0.989411465353    12.000000000000
         C            3.484622767554     0.096988433423     0.630856434647    12.000000000000
         C           -1.961770232446     0.146617433423     0.187177434647    12.000000000000
         H            2.712342767554     0.967076433423    -1.198558565353     1.007825032230
         H            2.070622767554     1.698979433423     0.261510434647     1.007825032230
         H           -0.983142232446    -1.395543566577    -0.928398565353     1.007825032230
         H           -1.721350232446    -0.126323566577    -1.914292565353     1.007825032230
         H            0.163193867554     1.345475333423    -1.204169465353     1.007825032230
         H            3.783927767554    -0.852283566577     0.185296434647     1.007825032230
         H            4.355592767554     0.754671433423     0.675245434647     1.007825032230
         H            3.146625767554    -0.106427566577     1.647194434647     1.007825032230
         H           -3.551214232446    -0.273341566577     1.107842434647     1.007825032230

  Basis Set: AUG-CC-PVTZ
    Blend: AUG-CC-PVTZ
  Basis Set: (AUG-CC-PVTZ AUX)
    Blend: AUG-CC-PVTZ-JKFIT
	 Reference Energy          =    -473.8324818602197865 [Eh]
	 Singles Energy            =      -0.0000000000000000 [Eh]
	 Same-Spin Energy          =      -0.4667129907269963 [Eh]
	 Opposite-Spin Energy      =      -1.4578268468364763 [Eh]
	 Correlation Energy        =      -1.9245398375634726 [Eh]
	 Total Energy              =    -475.7570216977832729 [Eh]

	 ================> DF-SCS-MP2 Energies <==================
	-----------------------------------------------------------
	 SCS Same-Spin Scale       =       0.3333333333333333 [-]
	 SCS Opposite-Spin Scale   =       1.2000000000000000 [-]
	 SCS Same-Spin Energy      =      -0.1555709969089988 [Eh]
	 SCS Opposite-Spin Energy  =      -1.7493922162037716 [Eh]
	 SCS Correlation Energy    =      -1.9049632131127703 [Eh]
	 SCS Total Energy          =    -475.7374450733325375 [Eh]
	-----------------------------------------------------------

  Dipole Moment: [D]
     X:    -0.9125      Y:     1.8661      Z:    -1.7458     Total:     2.7134

*** Psi4 exiting successfully. Buy a developer a beer!
