                               Psi4 1.3.2 release

  ==> Input File <==

--------------------------------------------------------------------------
#psi4
#
memory 32 gb

molecule  {
0 1
  O        1.0830410    -1.2590340     0.2697030
  O       -3.0460190    -0.6564700     0.3579990
  O       -1.7208190     1.1319200     0.8547670
  N        0.1334480     0.3363350    -1.0591540
  C        2.3767950     0.7348440    -0.1800510
  C        1.1473867    -0.2439987    -0.2231763
  C       -1.1420340    -0.3248900    -0.9988550
  C        3.4883670     0.0910310     0.6318210
  C       -1.9580260     0.1406600     0.1881420
  H        2.7160870     0.9611190    -1.1975940
  H        2.0743670     1.6930220     0.2624750
  H       -0.9793980    -1.4015010    -0.9274340
  H       -1.7176060    -0.1322810    -1.9133280
  H        0.1138710     1.3396710    -1.2046940
  H        3.7876720    -0.8582410     0.1862610
  H        4.3593370     0.7487140     0.6762100
  H        3.1503700    -0.1123850     1.6481590
  H       -3.5474700    -0.2792990     1.1088070
units angstrom
no_reorient  #important for SAPT in psi4, default
symmetry c1  #important for SAPT in psi4, default
}

set PROPERTIES_ORIGIN ["COM"]
properties('MP2/aug-cc-pvtz', properties = ['dipole'])
--------------------------------------------------------------------------

    Molecular point group: c1
  Charge       = 0
  Multiplicity = 1
  Basis Set: AUG-CC-PVTZ
    Blend: AUG-CC-PVTZ
  Basis Set: (AUG-CC-PVTZ AUX)
    Blend: AUG-CC-PVTZ-JKFIT

    Orbital Energies [Eh]
    ---------------------

    Doubly Occupied:

       1A    -20.623276     2A    -20.560408     3A    -20.547991
       4A    -15.578137     5A    -11.395024     6A    -11.351522
       7A    -11.284324     8A    -11.239935     9A    -11.214868
      10A     -1.466517    11A     -1.457219    12A     -1.366689
      13A     -1.229171    14A     -1.052759    15A     -0.995350
      16A     -0.878089    17A     -0.816998    18A     -0.780084
      19A     -0.716967    20A     -0.713243    21A     -0.700490
      22A     -0.659255    23A     -0.648303    24A     -0.637537
      25A     -0.614518    26A     -0.599627    27A     -0.565343
      28A     -0.556688    29A     -0.532109    30A     -0.516794
      31A     -0.497742    32A     -0.490685    33A     -0.469078
      34A     -0.429594    35A     -0.405367

  @DF-RHF Final Energy:  -473.82837486150652

   => Energetics <=

    Nuclear Repulsion Energy =            458.6383182991947933
    One-Electron Energy =               -1557.7499913177716735
    Two-Electron Energy =                 625.2832981570702486
    Total Energy =                       -473.8283748615065178
  Basis Set: (AUG-CC-PVTZ AUX)
    Blend: AUG-CC-PVTZ-RI
    Molecular point group: c1

    Geometry (in Angstrom), charge = 0, multiplicity = 1:

       Center              X                  Y                   Z               Mass
    ------------   -----------------  -----------------  -----------------  -----------------
         O            1.083562342449    -1.250810687721     0.265709869345    15.994914619570
         O           -3.045497657551    -0.648246687721     0.354005869345    15.994914619570
         O           -1.720297657551     1.140143312279     0.850773869345    15.994914619570
         N            0.133969342449     0.344558312279    -1.063147130655    14.003074004430
         C            2.377316342449     0.743067312279    -0.184044130655    12.000000000000
         C            1.147908042449    -0.235775387721    -0.227169430655    12.000000000000
         C           -1.141512657551    -0.316666687721    -1.002848130655    12.000000000000
         C            3.488888342449     0.099254312279     0.627827869345    12.000000000000
         C           -1.957504657551     0.148883312279     0.184148869345    12.000000000000
         H            2.716608342449     0.969342312279    -1.201587130655     1.007825032230
         H            2.074888342449     1.701245312279     0.258481869345     1.007825032230
         H           -0.978876657551    -1.393277687721    -0.931427130655     1.007825032230
         H           -1.717084657551    -0.124057687721    -1.917321130655     1.007825032230
         H            0.114392342449     1.347894312279    -1.208687130655     1.007825032230
         H            3.788193342449    -0.850017687721     0.182267869345     1.007825032230
         H            4.359858342449     0.756937312279     0.672216869345     1.007825032230
         H            3.150891342449    -0.104161687721     1.644165869345     1.007825032230
         H           -3.546948657551    -0.271075687721     1.104813869345     1.007825032230

  Basis Set: AUG-CC-PVTZ
    Blend: AUG-CC-PVTZ
  Basis Set: (AUG-CC-PVTZ AUX)
    Blend: AUG-CC-PVTZ-JKFIT
	 Reference Energy          =    -473.8283748615065178 [Eh]
	 Singles Energy            =      -0.0000000000000000 [Eh]
	 Same-Spin Energy          =      -0.4646944982426875 [Eh]
	 Opposite-Spin Energy      =      -1.4538724487997459 [Eh]
	 Correlation Energy        =      -1.9185669470424334 [Eh]
	 Total Energy              =    -475.7469418085489679 [Eh]

	 ================> DF-SCS-MP2 Energies <==================
	-----------------------------------------------------------
	 SCS Same-Spin Scale       =       0.3333333333333333 [-]
	 SCS Opposite-Spin Scale   =       1.2000000000000000 [-]
	 SCS Same-Spin Energy      =      -0.1548981660808958 [Eh]
	 SCS Opposite-Spin Energy  =      -1.7446469385596950 [Eh]
	 SCS Correlation Energy    =      -1.8995451046405909 [Eh]
	 SCS Total Energy          =    -475.7279199661471125 [Eh]
	-----------------------------------------------------------

  Dipole Moment: [D]
     X:    -0.7493      Y:     1.3405      Z:    -1.4008     Total:     2.0786

*** Psi4 exiting successfully. Buy a developer a beer!
