                               Psi4 1.3.2 release

  ==> Input File <==

--------------------------------------------------------------------------
#psi4
#
memory 32 gb

molecule  {
0 1
  O        1.0830410    -1.2590340     0.2697030
  O       -3.0460190    -0.6564700     0.3579990
  O       -1.7208190     1.1319200     0.8547670
  N        0.1334480     0.3363350    -1.0591540
  C        2.3767950     0.7348440    -0.1800510
  C        1.1530800    -0.1541890    -0.2667860
  C       -1.1534072    -0.3027950    -1.0023625
  C        3.4883670     0.0910310     0.6318210
  C       -1.9580260     0.1406600     0.1881420
  H        2.7160870     0.9611190    -1.1975940
  H        2.0743670     1.6930220     0.2624750
  H       -0.9793980    -1.4015010    -0.9274340
  H       -1.7176060    -0.1322810    -1.9133280
  H        0.0961867     1.3391107    -1.2051019
  H        3.7876720    -0.8582410     0.1862610
  H        4.3593370     0.7487140     0.6762100
  H        3.1503700    -0.1123850     1.6481590
  H       -3.5474700    -0.2792990     1.1088070
units angstrom
no_reorient  #important for SAPT in psi4, default
symmetry c1  #important for SAPT in psi4, default
}

set PROPERTIES_ORIGIN ["COM"]
properties('MP2/aug-cc-pvtz', properties = ['dipole'])
--------------------------------------------------------------------------

    Molecular point group: c1
  Charge       = 0
  Multiplicity = 1
  Basis Set: AUG-CC-PVTZ
    Blend: AUG-CC-PVTZ
  Basis Set: (AUG-CC-PVTZ AUX)
    Blend: AUG-CC-PVTZ-JKFIT

    Orbital Energies [Eh]
    ---------------------

    Doubly Occupied:

       1A    -20.625743     2A    -20.562808     3A    -20.529195
       4A    -15.592863     5A    -11.398864     6A    -11.356849
       7A    -11.290464     8A    -11.244317     9A    -11.216514
      10A     -1.468896    11A     -1.384988    12A     -1.368845
      13A     -1.242050    14A     -1.063617    15A     -1.007056
      16A     -0.890387    17A     -0.824869    18A     -0.785142
      19A     -0.716474    20A     -0.713767    21A     -0.699969
      22A     -0.654708    23A     -0.641617    24A     -0.637196
      25A     -0.604553    26A     -0.600212    27A     -0.554059
      28A     -0.541220    29A     -0.525745    30A     -0.517460
      31A     -0.495539    32A     -0.491602    33A     -0.469561
      34A     -0.434662    35A     -0.410826

  @DF-RHF Final Energy:  -473.83872398864474

   => Energetics <=

    Nuclear Repulsion Energy =            458.0570517985913170
    One-Electron Energy =               -1556.6662804740608408
    Two-Electron Energy =                 624.7705046868246654
    Total Energy =                       -473.8387239886448015
  Basis Set: (AUG-CC-PVTZ AUX)
    Blend: AUG-CC-PVTZ-RI
    Molecular point group: c1

    Geometry (in Angstrom), charge = 0, multiplicity = 1:

       Center              X                  Y                   Z               Mass
    ------------   -----------------  -----------------  -----------------  -----------------
         O            1.084218397941    -1.261052635754     0.270027167351    15.994914619570
         O           -3.044841602059    -0.658488635754     0.358323167351    15.994914619570
         O           -1.719641602059     1.129901364246     0.855091167351    15.994914619570
         N            0.134625397941     0.334316364246    -1.058829832649    14.003074004430
         C            2.377972397941     0.732825364246    -0.179726832649    12.000000000000
         C            1.154257397941    -0.156207635754    -0.266461832649    12.000000000000
         C           -1.152229802059    -0.304813635754    -1.002038332649    12.000000000000
         C            3.489544397941     0.089012364246     0.632145167351    12.000000000000
         C           -1.956848602059     0.138641364246     0.188466167351    12.000000000000
         H            2.717264397941     0.959100364246    -1.197269832649     1.007825032230
         H            2.075544397941     1.691003364246     0.262799167351     1.007825032230
         H           -0.978220602059    -1.403519635754    -0.927109832649     1.007825032230
         H           -1.716428602059    -0.134299635754    -1.913003832649     1.007825032230
         H            0.097364097941     1.337092064246    -1.204777732649     1.007825032230
         H            3.788849397941    -0.860259635754     0.186585167351     1.007825032230
         H            4.360514397941     0.746695364246     0.676534167351     1.007825032230
         H            3.151547397941    -0.114403635754     1.648483167351     1.007825032230
         H           -3.546292602059    -0.281317635754     1.109131167351     1.007825032230

  Basis Set: AUG-CC-PVTZ
    Blend: AUG-CC-PVTZ
  Basis Set: (AUG-CC-PVTZ AUX)
    Blend: AUG-CC-PVTZ-JKFIT
	 Reference Energy          =    -473.8387239886447446 [Eh]
	 Singles Energy            =      -0.0000000000000000 [Eh]
	 Same-Spin Energy          =      -0.4668358666696127 [Eh]
	 Opposite-Spin Energy      =      -1.4579030164756301 [Eh]
	 Correlation Energy        =      -1.9247388831452428 [Eh]
	 Total Energy              =    -475.7634628717900114 [Eh]

	 ================> DF-SCS-MP2 Energies <==================
	-----------------------------------------------------------
	 SCS Same-Spin Scale       =       0.3333333333333333 [-]
	 SCS Opposite-Spin Scale   =       1.2000000000000000 [-]
	 SCS Same-Spin Energy      =      -0.1556119555565376 [Eh]
	 SCS Opposite-Spin Energy  =      -1.7494836197707562 [Eh]
	 SCS Correlation Energy    =      -1.9050955753272938 [Eh]
	 SCS Total Energy          =    -475.7438195639720107 [Eh]
	-----------------------------------------------------------

  Dipole Moment: [D]
     X:    -0.9570      Y:     1.8811      Z:    -1.7446     Total:     2.7383

*** Psi4 exiting successfully. Buy a developer a beer!
