                               Psi4 1.3.2 release

  ==> Input File <==

--------------------------------------------------------------------------
#psi4
#
memory 32 gb

molecule  {
0 1
  O        1.0830410    -1.2590340     0.2697030
  O       -3.0460190    -0.6564700     0.3579990
  O       -1.7208190     1.1319200     0.8547670
  N        0.1334480     0.3363350    -1.0591540
  C        2.3767950     0.7348440    -0.1800510
  C        1.1783490    -0.1902545    -0.2375058
  C       -1.1420340    -0.3248900    -0.9988550
  C        3.4571121     0.0488582     0.6394379
  C       -1.9580260     0.1406600     0.1881420
  H        2.7160870     0.9611190    -1.1975940
  H        2.0743670     1.6930220     0.2624750
  H       -0.9793980    -1.4015010    -0.9274340
  H       -1.7176060    -0.1322810    -1.9133280
  H        0.1138710     1.3396710    -1.2046940
  H        3.7876720    -0.8582410     0.1862610
  H        4.3593370     0.7487140     0.6762100
  H        3.1503700    -0.1123850     1.6481590
  H       -3.5474700    -0.2792990     1.1088070
units angstrom
no_reorient  #important for SAPT in psi4, default
symmetry c1  #important for SAPT in psi4, default
}

set PROPERTIES_ORIGIN ["COM"]
properties('MP2/aug-cc-pvtz', properties = ['dipole'])
--------------------------------------------------------------------------

    Molecular point group: c1
  Charge       = 0
  Multiplicity = 1
  Basis Set: AUG-CC-PVTZ
    Blend: AUG-CC-PVTZ
  Basis Set: (AUG-CC-PVTZ AUX)
    Blend: AUG-CC-PVTZ-JKFIT

    Orbital Energies [Eh]
    ---------------------

    Doubly Occupied:

       1A    -20.623189     2A    -20.560233     3A    -20.539629
       4A    -15.582132     5A    -11.395385     6A    -11.355435
       7A    -11.285699     8A    -11.244615     9A    -11.218175
      10A     -1.466056    11A     -1.414596    12A     -1.366487
      13A     -1.228856    14A     -1.064740    15A     -0.998119
      16A     -0.887848    17A     -0.819577    18A     -0.776501
      19A     -0.714016    20A     -0.713066    21A     -0.698871
      22A     -0.651913    23A     -0.646012    24A     -0.641246
      25A     -0.609118    26A     -0.600185    27A     -0.556846
      28A     -0.551481    29A     -0.525238    30A     -0.510793
      31A     -0.505966    32A     -0.490295    33A     -0.468048
      34A     -0.436769    35A     -0.406207

  @DF-RHF Final Energy:  -473.83506405261022

   => Energetics <=

    Nuclear Repulsion Energy =            458.4311299529989583
    One-Electron Energy =               -1557.4257062390186093
    Two-Electron Energy =                 625.1595122334094867
    Total Energy =                       -473.8350640526102779
  Basis Set: (AUG-CC-PVTZ AUX)
    Blend: AUG-CC-PVTZ-RI
    Molecular point group: c1

    Geometry (in Angstrom), charge = 0, multiplicity = 1:

       Center              X                  Y                   Z               Mass
    ------------   -----------------  -----------------  -----------------  -----------------
         O            1.083589133591    -1.251870192233     0.266324490738    15.994914619570
         O           -3.045470866409    -0.649306192233     0.354620490738    15.994914619570
         O           -1.720270866409     1.139083807767     0.851388490738    15.994914619570
         N            0.133996133591     0.343498807767    -1.062532509262    14.003074004430
         C            2.377343133591     0.742007807767    -0.183429509262    12.000000000000
         C            1.178897133591    -0.183090692233    -0.240884309262    12.000000000000
         C           -1.141485866409    -0.317726192233    -1.002233509262    12.000000000000
         C            3.457660233591     0.056022007767     0.636059390738    12.000000000000
         C           -1.957477866409     0.147823807767     0.184763490738    12.000000000000
         H            2.716635133591     0.968282807767    -1.200972509262     1.007825032230
         H            2.074915133591     1.700185807767     0.259096490738     1.007825032230
         H           -0.978849866409    -1.394337192233    -0.930812509262     1.007825032230
         H           -1.717057866409    -0.125117192233    -1.916706509262     1.007825032230
         H            0.114419133591     1.346834807767    -1.208072509262     1.007825032230
         H            3.788220133591    -0.851077192233     0.182882490738     1.007825032230
         H            4.359885133591     0.755877807767     0.672831490738     1.007825032230
         H            3.150918133591    -0.105221192233     1.644780490738     1.007825032230
         H           -3.546921866409    -0.272135192233     1.105428490738     1.007825032230

  Basis Set: AUG-CC-PVTZ
    Blend: AUG-CC-PVTZ
  Basis Set: (AUG-CC-PVTZ AUX)
    Blend: AUG-CC-PVTZ-JKFIT
	 Reference Energy          =    -473.8350640526102211 [Eh]
	 Singles Energy            =      -0.0000000000000000 [Eh]
	 Same-Spin Energy          =      -0.4660214115938812 [Eh]
	 Opposite-Spin Energy      =      -1.4564535582291636 [Eh]
	 Correlation Energy        =      -1.9224749698230448 [Eh]
	 Total Energy              =    -475.7575390224332637 [Eh]

	 ================> DF-SCS-MP2 Energies <==================
	-----------------------------------------------------------
	 SCS Same-Spin Scale       =       0.3333333333333333 [-]
	 SCS Opposite-Spin Scale   =       1.2000000000000000 [-]
	 SCS Same-Spin Energy      =      -0.1553404705312937 [Eh]
	 SCS Opposite-Spin Energy  =      -1.7477442698749963 [Eh]
	 SCS Correlation Energy    =      -1.9030847404062901 [Eh]
	 SCS Total Energy          =    -475.7381487930165349 [Eh]
	-----------------------------------------------------------

  Dipole Moment: [D]
     X:    -0.6597      Y:     1.6256      Z:    -1.5131     Total:     2.3168

*** Psi4 exiting successfully. Buy a developer a beer!
