                               Psi4 1.3.2 release

  ==> Input File <==

--------------------------------------------------------------------------
#psi4
#
memory 32 gb

molecule  {
0 1
  O        1.0830410    -1.2590340     0.2697030
  O       -3.0305687    -0.6837373     0.3223720
  O       -1.6854084     1.1378425     0.8320047
  N        0.1334480     0.3363350    -1.0591540
  C        2.3767950     0.7348440    -0.1800510
  C        1.1530800    -0.1541890    -0.2667860
  C       -1.1420340    -0.3248900    -0.9988550
  C        3.4883670     0.0910310     0.6318210
  C       -1.9580260     0.1406600     0.1881420
  H        2.7160870     0.9611190    -1.1975940
  H        2.0743670     1.6930220     0.2624750
  H       -0.9793980    -1.4015010    -0.9274340
  H       -1.7176060    -0.1322810    -1.9133280
  H        0.1138710     1.3396710    -1.2046940
  H        3.7876720    -0.8582410     0.1862610
  H        4.3593370     0.7487140     0.6762100
  H        3.1503700    -0.1123850     1.6481590
  H       -3.5474700    -0.2792990     1.1088070
units angstrom
no_reorient  #important for SAPT in psi4, default
symmetry c1  #important for SAPT in psi4, default
}

set PROPERTIES_ORIGIN ["COM"]
properties('MP2/aug-cc-pvtz', properties = ['dipole'])
--------------------------------------------------------------------------

    Molecular point group: c1
  Charge       = 0
  Multiplicity = 1
  Basis Set: AUG-CC-PVTZ
    Blend: AUG-CC-PVTZ
  Basis Set: (AUG-CC-PVTZ AUX)
    Blend: AUG-CC-PVTZ-JKFIT

    Orbital Energies [Eh]
    ---------------------

    Doubly Occupied:

       1A    -20.634848     2A    -20.565734     3A    -20.527073
       4A    -15.590121     5A    -11.399533     6A    -11.354366
       7A    -11.286354     8A    -11.243047     9A    -11.215633
      10A     -1.465072    11A     -1.383355    12A     -1.371439
      13A     -1.239162    14A     -1.061894    15A     -1.002621
      16A     -0.887219    17A     -0.817267    18A     -0.783120
      19A     -0.717520    20A     -0.709766    21A     -0.697495
      22A     -0.651970    23A     -0.642860    24A     -0.636125
      25A     -0.604506    26A     -0.598793    27A     -0.557267
      28A     -0.539002    29A     -0.524017    30A     -0.516433
      31A     -0.497091    32A     -0.492587    33A     -0.468931
      34A     -0.432247    35A     -0.407509

  @DF-RHF Final Energy:  -473.83253858927617

   => Energetics <=

    Nuclear Repulsion Energy =            458.4035723396066828
    One-Electron Energy =               -1557.4282739869527177
    Two-Electron Energy =                 625.1921630580699230
    Total Energy =                       -473.8325385892761688
  Basis Set: (AUG-CC-PVTZ AUX)
    Blend: AUG-CC-PVTZ-RI
    Molecular point group: c1

    Geometry (in Angstrom), charge = 0, multiplicity = 1:

       Center              X                  Y                   Z               Mass
    ------------   -----------------  -----------------  -----------------  -----------------
         O            1.076833766422    -1.256428862730     0.276828958333    15.994914619570
         O           -3.036775933578    -0.681132162730     0.329497958333    15.994914619570
         O           -1.691615633578     1.140447637270     0.839130658333    15.994914619570
         N            0.127240766422     0.338940137270    -1.052028041667    14.003074004430
         C            2.370587766422     0.737449137270    -0.172925041667    12.000000000000
         C            1.146872766422    -0.151583862730    -0.259660041667    12.000000000000
         C           -1.148241233578    -0.322284862730    -0.991729041667    12.000000000000
         C            3.482159766422     0.093636137270     0.638946958333    12.000000000000
         C           -1.964233233578     0.143265137270     0.195267958333    12.000000000000
         H            2.709879766422     0.963724137270    -1.190468041667     1.007825032230
         H            2.068159766422     1.695627137270     0.269600958333     1.007825032230
         H           -0.985605233578    -1.398895862730    -0.920308041667     1.007825032230
         H           -1.723813233578    -0.129675862730    -1.906202041667     1.007825032230
         H            0.107663766422     1.342276137270    -1.197568041667     1.007825032230
         H            3.781464766422    -0.855635862730     0.193386958333     1.007825032230
         H            4.353129766422     0.751319137270     0.683335958333     1.007825032230
         H            3.144162766422    -0.109779862730     1.655284958333     1.007825032230
         H           -3.553677233578    -0.276693862730     1.115932958333     1.007825032230

  Basis Set: AUG-CC-PVTZ
    Blend: AUG-CC-PVTZ
  Basis Set: (AUG-CC-PVTZ AUX)
    Blend: AUG-CC-PVTZ-JKFIT
	 Reference Energy          =    -473.8325385892761688 [Eh]
	 Singles Energy            =      -0.0000000000000000 [Eh]
	 Same-Spin Energy          =      -0.4678053220108201 [Eh]
	 Opposite-Spin Energy      =      -1.4600131917456198 [Eh]
	 Correlation Energy        =      -1.9278185137564399 [Eh]
	 Total Energy              =    -475.7603571030326179 [Eh]

	 ================> DF-SCS-MP2 Energies <==================
	-----------------------------------------------------------
	 SCS Same-Spin Scale       =       0.3333333333333333 [-]
	 SCS Opposite-Spin Scale   =       1.2000000000000000 [-]
	 SCS Same-Spin Energy      =      -0.1559351073369400 [Eh]
	 SCS Opposite-Spin Energy  =      -1.7520158300947437 [Eh]
	 SCS Correlation Energy    =      -1.9079509374316839 [Eh]
	 SCS Total Energy          =    -475.7404895267078473 [Eh]
	-----------------------------------------------------------

  Dipole Moment: [D]
     X:    -1.1473      Y:     1.9002      Z:    -1.6102     Total:     2.7422

*** Psi4 exiting successfully. Buy a developer a beer!
