                               Psi4 1.3.2 release

  ==> Input File <==

--------------------------------------------------------------------------
#psi4
#
memory 32 gb

molecule  {
0 1
  O        1.0830410    -1.2590340     0.2697030
  O       -3.0532482    -0.6424700     0.3757376
  O       -1.7386354     1.1285054     0.8658453
  N        0.1334480     0.3363350    -1.0591540
  C        2.3767950     0.7348440    -0.1800510
  C        1.1530800    -0.1541890    -0.2667860
  C       -1.1420340    -0.3248900    -0.9988550
  C        3.4883670     0.0910310     0.6318210
  C       -1.9580260     0.1406600     0.1881420
  H        2.7160870     0.9611190    -1.1975940
  H        2.0743670     1.6930220     0.2624750
  H       -0.9793980    -1.4015010    -0.9274340
  H       -1.7176060    -0.1322810    -1.9133280
  H        0.1138710     1.3396710    -1.2046940
  H        3.7876720    -0.8582410     0.1862610
  H        4.3593370     0.7487140     0.6762100
  H        3.1503700    -0.1123850     1.6481590
  H       -3.5474700    -0.2792990     1.1088070
units angstrom
no_reorient  #important for SAPT in psi4, default
symmetry c1  #important for SAPT in psi4, default
}

set PROPERTIES_ORIGIN ["COM"]
properties('MP2/aug-cc-pvtz', properties = ['dipole'])
--------------------------------------------------------------------------

    Molecular point group: c1
  Charge       = 0
  Multiplicity = 1
  Basis Set: AUG-CC-PVTZ
    Blend: AUG-CC-PVTZ
  Basis Set: (AUG-CC-PVTZ AUX)
    Blend: AUG-CC-PVTZ-JKFIT

    Orbital Energies [Eh]
    ---------------------

    Doubly Occupied:

       1A    -20.620565     2A    -20.561521     3A    -20.529642
       4A    -15.594209     5A    -11.398849     6A    -11.356980
       7A    -11.293210     8A    -11.244836     9A    -11.216919
      10A     -1.470592    11A     -1.385713    12A     -1.367203
      13A     -1.243250    14A     -1.064314    15A     -1.007923
      16A     -0.891067    17A     -0.828778    18A     -0.786979
      19A     -0.716302    20A     -0.713865    21A     -0.698686
      22A     -0.654086    23A     -0.644737    24A     -0.637379
      25A     -0.604269    26A     -0.599626    27A     -0.560746
      28A     -0.541245    29A     -0.525923    30A     -0.517940
      31A     -0.495519    32A     -0.490438    33A     -0.469099
      34A     -0.434954    35A     -0.411515

  @DF-RHF Final Energy:  -473.84104982676490

   => Energetics <=

    Nuclear Repulsion Energy =            457.8735182444700627
    One-Electron Energy =               -1556.2713744863926877
    Two-Electron Energy =                 624.5568064151577801
    Total Energy =                       -473.8410498267649018
  Basis Set: (AUG-CC-PVTZ AUX)
    Blend: AUG-CC-PVTZ-RI
    Molecular point group: c1

    Geometry (in Angstrom), charge = 0, multiplicity = 1:

       Center              X                  Y                   Z               Mass
    ------------   -----------------  -----------------  -----------------  -----------------
         O            1.086097723861    -1.260325762387     0.266185936652    15.994914619570
         O           -3.050191476139    -0.643761762387     0.372220536652    15.994914619570
         O           -1.735578676139     1.127213637613     0.862328236652    15.994914619570
         N            0.136504723861     0.335043237613    -1.062671063348    14.003074004430
         C            2.379851723861     0.733552237613    -0.183568063348    12.000000000000
         C            1.156136723861    -0.155480762387    -0.270303063348    12.000000000000
         C           -1.138977276139    -0.326181762387    -1.002372063348    12.000000000000
         C            3.491423723861     0.089739237613     0.628303936652    12.000000000000
         C           -1.954969276139     0.139368237613     0.184624936652    12.000000000000
         H            2.719143723861     0.959827237613    -1.201111063348     1.007825032230
         H            2.077423723861     1.691730237613     0.258957936652     1.007825032230
         H           -0.976341276139    -1.402792762387    -0.930951063348     1.007825032230
         H           -1.714549276139    -0.133572762387    -1.916845063348     1.007825032230
         H            0.116927723861     1.338379237613    -1.208211063348     1.007825032230
         H            3.790728723861    -0.859532762387     0.182743936652     1.007825032230
         H            4.362393723861     0.747422237613     0.672692936652     1.007825032230
         H            3.153426723861    -0.113676762387     1.644641936652     1.007825032230
         H           -3.544413276139    -0.280590762387     1.105289936652     1.007825032230

  Basis Set: AUG-CC-PVTZ
    Blend: AUG-CC-PVTZ
  Basis Set: (AUG-CC-PVTZ AUX)
    Blend: AUG-CC-PVTZ-JKFIT
	 Reference Energy          =    -473.8410498267649018 [Eh]
	 Singles Energy            =      -0.0000000000000000 [Eh]
	 Same-Spin Energy          =      -0.4662506170438726 [Eh]
	 Opposite-Spin Energy      =      -1.4567001752956008 [Eh]
	 Correlation Energy        =      -1.9229507923394733 [Eh]
	 Total Energy              =    -475.7640006191043653 [Eh]

	 ================> DF-SCS-MP2 Energies <==================
	-----------------------------------------------------------
	 SCS Same-Spin Scale       =       0.3333333333333333 [-]
	 SCS Opposite-Spin Scale   =       1.2000000000000000 [-]
	 SCS Same-Spin Energy      =      -0.1554168723479575 [Eh]
	 SCS Opposite-Spin Energy  =      -1.7480402103547210 [Eh]
	 SCS Correlation Energy    =      -1.9034570827026784 [Eh]
	 SCS Total Energy          =    -475.7445069094675887 [Eh]
	-----------------------------------------------------------

  Dipole Moment: [D]
     X:    -0.8488      Y:     1.8655      Z:    -1.8160     Total:     2.7383

*** Psi4 exiting successfully. Buy a developer a beer!
