                               Psi4 1.3.2 release

  ==> Input File <==

--------------------------------------------------------------------------
#psi4
#
memory 32 gb

molecule  {
0 1
  O        1.0830410    -1.2590340     0.2697030
  O       -3.0460190    -0.6564700     0.3579990
  O       -1.7208190     1.1319200     0.8547670
  N        0.1334480     0.3363350    -1.0591540
  C        2.3767950     0.7348440    -0.1800510
  C        1.1530800    -0.1541890    -0.2667860
  C       -1.1420340    -0.3248900    -0.9988550
  C        3.5043985     0.0926956     0.6107584
  C       -1.9580260     0.1406600     0.1881420
  H        2.7332798     0.9539164    -1.1932830
  H        2.0743670     1.6930220     0.2624750
  H       -0.9793980    -1.4015010    -0.9274340
  H       -1.7176060    -0.1322810    -1.9133280
  H        0.1138710     1.3396710    -1.2046940
  H        3.7876720    -0.8582410     0.1862610
  H        4.3593370     0.7487140     0.6762100
  H        3.1503700    -0.1123850     1.6481590
  H       -3.5474700    -0.2792990     1.1088070
units angstrom
no_reorient  #important for SAPT in psi4, default
symmetry c1  #important for SAPT in psi4, default
}

set PROPERTIES_ORIGIN ["COM"]
properties('MP2/aug-cc-pvtz', properties = ['dipole'])
--------------------------------------------------------------------------

    Molecular point group: c1
  Charge       = 0
  Multiplicity = 1
  Basis Set: AUG-CC-PVTZ
    Blend: AUG-CC-PVTZ
  Basis Set: (AUG-CC-PVTZ AUX)
    Blend: AUG-CC-PVTZ-JKFIT

    Orbital Energies [Eh]
    ---------------------

    Doubly Occupied:

       1A    -20.625555     2A    -20.563005     3A    -20.528969
       4A    -15.593043     5A    -11.399054     6A    -11.356525
       7A    -11.291025     8A    -11.244186     9A    -11.216364
      10A     -1.468598    11A     -1.385004    12A     -1.368666
      13A     -1.242012    14A     -1.063483    15A     -1.006306
      16A     -0.889590    17A     -0.824682    18A     -0.785799
      19A     -0.716197    20A     -0.713127    21A     -0.698524
      22A     -0.653141    23A     -0.644432    24A     -0.637082
      25A     -0.604015    26A     -0.600620    27A     -0.559668
      28A     -0.540490    29A     -0.529150    30A     -0.515696
      31A     -0.493709    32A     -0.490126    33A     -0.469359
      34A     -0.434325    35A     -0.410321

  @DF-RHF Final Energy:  -473.83883384585266

   => Energetics <=

    Nuclear Repulsion Energy =            457.9088888837117679
    One-Electron Energy =               -1556.3717486694929448
    Two-Electron Energy =                 624.6240259399285151
    Total Energy =                       -473.8388338458526050
  Basis Set: (AUG-CC-PVTZ AUX)
    Blend: AUG-CC-PVTZ-RI
    Molecular point group: c1

    Geometry (in Angstrom), charge = 0, multiplicity = 1:

       Center              X                  Y                   Z               Mass
    ------------   -----------------  -----------------  -----------------  -----------------
         O            1.081440957883    -1.259130901797     0.271598265585    15.994914619570
         O           -3.047619042117    -0.656566901797     0.359894265585    15.994914619570
         O           -1.722419042117     1.131823098203     0.856662265585    15.994914619570
         N            0.131847957883     0.336238098203    -1.057258734415    14.003074004430
         C            2.375194957883     0.734747098203    -0.178155734415    12.000000000000
         C            1.151479957883    -0.154285901797    -0.264890734415    12.000000000000
         C           -1.143634042117    -0.324986901797    -0.996959734415    12.000000000000
         C            3.502798457883     0.092598698203     0.612653665585    12.000000000000
         C           -1.959626042117     0.140563098203     0.190037265585    12.000000000000
         H            2.731679757883     0.953819498203    -1.191387734415     1.007825032230
         H            2.072766957883     1.692925098203     0.264370265585     1.007825032230
         H           -0.980998042117    -1.401597901797    -0.925538734415     1.007825032230
         H           -1.719206042117    -0.132377901797    -1.911432734415     1.007825032230
         H            0.112270957883     1.339574098203    -1.202798734415     1.007825032230
         H            3.786071957883    -0.858337901797     0.188156265585     1.007825032230
         H            4.357736957883     0.748617098203     0.678105265585     1.007825032230
         H            3.148769957883    -0.112481901797     1.650054265585     1.007825032230
         H           -3.549070042117    -0.279395901797     1.110702265585     1.007825032230

  Basis Set: AUG-CC-PVTZ
    Blend: AUG-CC-PVTZ
  Basis Set: (AUG-CC-PVTZ AUX)
    Blend: AUG-CC-PVTZ-JKFIT
	 Reference Energy          =    -473.8388338458526619 [Eh]
	 Singles Energy            =      -0.0000000000000000 [Eh]
	 Same-Spin Energy          =      -0.4667495866965343 [Eh]
	 Opposite-Spin Energy      =      -1.4577886052609292 [Eh]
	 Correlation Energy        =      -1.9245381919574636 [Eh]
	 Total Energy              =    -475.7633720378101430 [Eh]

	 ================> DF-SCS-MP2 Energies <==================
	-----------------------------------------------------------
	 SCS Same-Spin Scale       =       0.3333333333333333 [-]
	 SCS Opposite-Spin Scale   =       1.2000000000000000 [-]
	 SCS Same-Spin Energy      =      -0.1555831955655114 [Eh]
	 SCS Opposite-Spin Energy  =      -1.7493463263131150 [Eh]
	 SCS Correlation Energy    =      -1.9049295218786264 [Eh]
	 SCS Total Energy          =    -475.7437633677312760 [Eh]
	-----------------------------------------------------------

  Dipole Moment: [D]
     X:    -0.9480      Y:     1.8754      Z:    -1.7556     Total:     2.7382

*** Psi4 exiting successfully. Buy a developer a beer!
