                               Psi4 1.3.2 release

  ==> Input File <==

--------------------------------------------------------------------------
#psi4
#
memory 32 gb

molecule  {
0 1
  O        1.0830410    -1.2590340     0.2697030
  O       -3.0460190    -0.6564700     0.3579990
  O       -1.7208190     1.1319200     0.8547670
  N        0.1334480     0.3363350    -1.0591540
  C        2.3767950     0.7348440    -0.1800510
  C        1.1530800    -0.1541890    -0.2667860
  C       -1.1420340    -0.3248900    -0.9988550
  C        3.4883670     0.0910310     0.6318210
  C       -1.9772624     0.1481895     0.1716710
  H        2.7160870     0.9611190    -1.1975940
  H        2.0743670     1.6930220     0.2624750
  H       -0.9793980    -1.4015010    -0.9274340
  H       -1.7317576    -0.1249775    -1.9026820
  H        0.1138710     1.3396710    -1.2046940
  H        3.7876720    -0.8582410     0.1862610
  H        4.3593370     0.7487140     0.6762100
  H        3.1503700    -0.1123850     1.6481590
  H       -3.5474700    -0.2792990     1.1088070
units angstrom
no_reorient  #important for SAPT in psi4, default
symmetry c1  #important for SAPT in psi4, default
}

set PROPERTIES_ORIGIN ["COM"]
properties('MP2/aug-cc-pvtz', properties = ['dipole'])
--------------------------------------------------------------------------

    Molecular point group: c1
  Charge       = 0
  Multiplicity = 1
  Basis Set: AUG-CC-PVTZ
    Blend: AUG-CC-PVTZ
  Basis Set: (AUG-CC-PVTZ AUX)
    Blend: AUG-CC-PVTZ-JKFIT

    Orbital Energies [Eh]
    ---------------------

    Doubly Occupied:

       1A    -20.628025     2A    -20.561038     3A    -20.528484
       4A    -15.593024     5A    -11.399055     6A    -11.355999
       7A    -11.291046     8A    -11.244075     9A    -11.216323
      10A     -1.470723    11A     -1.384607    12A     -1.366001
      13A     -1.241526    14A     -1.063360    15A     -1.006859
      16A     -0.890121    17A     -0.826454    18A     -0.785722
      19A     -0.716128    20A     -0.713625    21A     -0.697606
      22A     -0.654194    23A     -0.645025    24A     -0.637054
      25A     -0.603686    26A     -0.598638    27A     -0.560729
      28A     -0.539723    29A     -0.525329    30A     -0.517260
      31A     -0.494778    32A     -0.489916    33A     -0.468068
      34A     -0.433879    35A     -0.409881

  @DF-RHF Final Energy:  -473.83938517518607

   => Energetics <=

    Nuclear Repulsion Energy =            457.9053879559808138
    One-Electron Energy =               -1556.3736230573479133
    Two-Electron Energy =                 624.6288499261810330
    Total Energy =                       -473.8393851751860666
  Basis Set: (AUG-CC-PVTZ AUX)
    Blend: AUG-CC-PVTZ-RI
    Molecular point group: c1

    Geometry (in Angstrom), charge = 0, multiplicity = 1:

       Center              X                  Y                   Z               Mass
    ------------   -----------------  -----------------  -----------------  -----------------
         O            1.084911204851    -1.259779456277     0.271129132396    15.994914619570
         O           -3.044148795149    -0.657215456277     0.359425132396    15.994914619570
         O           -1.718948795149     1.131174543723     0.856193132396    15.994914619570
         N            0.135318204851     0.335589543723    -1.057727867604    14.003074004430
         C            2.378665204851     0.734098543723    -0.178624867604    12.000000000000
         C            1.154950204851    -0.154934456277    -0.265359867604    12.000000000000
         C           -1.140163795149    -0.325635456277    -0.997428867604    12.000000000000
         C            3.490237204851     0.090285543723     0.633247132396    12.000000000000
         C           -1.975392195149     0.147444043723     0.173097132396    12.000000000000
         H            2.717957204851     0.960373543723    -1.196167867604     1.007825032230
         H            2.076237204851     1.692276543723     0.263901132396     1.007825032230
         H           -0.977527795149    -1.402246456277    -0.926007867604     1.007825032230
         H           -1.729887395149    -0.125722956277    -1.901255867604     1.007825032230
         H            0.115741204851     1.338925543723    -1.203267867604     1.007825032230
         H            3.789542204851    -0.858986456277     0.187687132396     1.007825032230
         H            4.361207204851     0.747968543723     0.677636132396     1.007825032230
         H            3.152240204851    -0.113130456277     1.649585132396     1.007825032230
         H           -3.545599795149    -0.280044456277     1.110233132396     1.007825032230

  Basis Set: AUG-CC-PVTZ
    Blend: AUG-CC-PVTZ
  Basis Set: (AUG-CC-PVTZ AUX)
    Blend: AUG-CC-PVTZ-JKFIT
	 Reference Energy          =    -473.8393851751860666 [Eh]
	 Singles Energy            =      -0.0000000000000000 [Eh]
	 Same-Spin Energy          =      -0.4668025684339104 [Eh]
	 Opposite-Spin Energy      =      -1.4577369004258127 [Eh]
	 Correlation Energy        =      -1.9245394688597233 [Eh]
	 Total Energy              =    -475.7639246440458010 [Eh]

	 ================> DF-SCS-MP2 Energies <==================
	-----------------------------------------------------------
	 SCS Same-Spin Scale       =       0.3333333333333333 [-]
	 SCS Opposite-Spin Scale   =       1.2000000000000000 [-]
	 SCS Same-Spin Energy      =      -0.1556008561446368 [Eh]
	 SCS Opposite-Spin Energy  =      -1.7492842805109752 [Eh]
	 SCS Correlation Energy    =      -1.9048851366556119 [Eh]
	 SCS Total Energy          =    -475.7442703118416603 [Eh]
	-----------------------------------------------------------

  Dipole Moment: [D]
     X:    -1.0164      Y:     1.8403      Z:    -1.7591     Total:     2.7412

*** Psi4 exiting successfully. Buy a developer a beer!
