                               Psi4 1.3.2 release

  ==> Input File <==

--------------------------------------------------------------------------
#psi4
#
memory 32 gb

molecule  {
0 1
  O        1.0830410    -1.2590340     0.2697030
  O       -3.0460190    -0.6564700     0.3579990
  O       -1.7208190     1.1319200     0.8547670
  N        0.1334480     0.3363350    -1.0591540
  C        2.3767950     0.7348440    -0.1800510
  C        1.1692465    -0.1091152    -0.2611529
  C       -1.1420340    -0.3248900    -0.9988550
  C        3.4883670     0.0910310     0.6318210
  C       -1.9580260     0.1406600     0.1881420
  H        2.7160870     0.9611190    -1.1975940
  H        2.0743670     1.6930220     0.2624750
  H       -0.9793980    -1.4015010    -0.9274340
  H       -1.7176060    -0.1322810    -1.9133280
  H        0.1427581     1.3425476    -1.1844449
  H        3.7876720    -0.8582410     0.1862610
  H        4.3593370     0.7487140     0.6762100
  H        3.1503700    -0.1123850     1.6481590
  H       -3.5474700    -0.2792990     1.1088070
units angstrom
no_reorient  #important for SAPT in psi4, default
symmetry c1  #important for SAPT in psi4, default
}

set PROPERTIES_ORIGIN ["COM"]
properties('MP2/aug-cc-pvtz', properties = ['dipole'])
--------------------------------------------------------------------------

    Molecular point group: c1
  Charge       = 0
  Multiplicity = 1
  Basis Set: AUG-CC-PVTZ
    Blend: AUG-CC-PVTZ
  Basis Set: (AUG-CC-PVTZ AUX)
    Blend: AUG-CC-PVTZ-JKFIT

    Orbital Energies [Eh]
    ---------------------

    Doubly Occupied:

       1A    -20.625608     2A    -20.563000     3A    -20.523168
       4A    -15.595577     5A    -11.399422     6A    -11.358645
       7A    -11.292529     8A    -11.246667     9A    -11.218673
      10A     -1.468618    11A     -1.370838    12A     -1.360760
      13A     -1.237754    14A     -1.072236    15A     -1.008589
      16A     -0.896487    17A     -0.827042    18A     -0.780244
      19A     -0.716418    20A     -0.713805    21A     -0.698639
      22A     -0.654149    23A     -0.643998    24A     -0.640144
      25A     -0.603836    26A     -0.592961    27A     -0.557834
      28A     -0.536037    29A     -0.527802    30A     -0.516930
      31A     -0.495259    32A     -0.490784    33A     -0.467824
      34A     -0.433218    35A     -0.407259

  @DF-RHF Final Energy:  -473.83239107200768

   => Energetics <=

    Nuclear Repulsion Energy =            457.7786911591163062
    One-Electron Energy =               -1556.1366552618655987
    Two-Electron Energy =                 624.5255730307416115
    Total Energy =                       -473.8323910720076810
  Basis Set: (AUG-CC-PVTZ AUX)
    Blend: AUG-CC-PVTZ-RI
    Molecular point group: c1

    Geometry (in Angstrom), charge = 0, multiplicity = 1:

       Center              X                  Y                   Z               Mass
    ------------   -----------------  -----------------  -----------------  -----------------
         O            1.081338668947    -1.263183057978     0.269031382282    15.994914619570
         O           -3.047721331053    -0.660619057978     0.357327382282    15.994914619570
         O           -1.722521331053     1.127770942022     0.854095382282    15.994914619570
         N            0.131745668947     0.332185942022    -1.059825617718    14.003074004430
         C            2.375092668947     0.730694942022    -0.180722617718    12.000000000000
         C            1.167544168947    -0.113264257978    -0.261824517718    12.000000000000
         C           -1.143736331053    -0.329039057978    -0.999526617718    12.000000000000
         C            3.486664668947     0.086881942022     0.631149382282    12.000000000000
         C           -1.959728331053     0.136510942022     0.187470382282    12.000000000000
         H            2.714384668947     0.956969942022    -1.198265617718     1.007825032230
         H            2.072664668947     1.688872942022     0.261803382282     1.007825032230
         H           -0.981100331053    -1.405650057978    -0.928105617718     1.007825032230
         H           -1.719308331053    -0.136430057978    -1.913999617718     1.007825032230
         H            0.141055768947     1.338398542022    -1.185116517718     1.007825032230
         H            3.785969668947    -0.862390057978     0.185589382282     1.007825032230
         H            4.357634668947     0.744564942022     0.675538382282     1.007825032230
         H            3.148667668947    -0.116534057978     1.647487382282     1.007825032230
         H           -3.549172331053    -0.283448057978     1.108135382282     1.007825032230

  Basis Set: AUG-CC-PVTZ
    Blend: AUG-CC-PVTZ
  Basis Set: (AUG-CC-PVTZ AUX)
    Blend: AUG-CC-PVTZ-JKFIT
	 Reference Energy          =    -473.8323910720076810 [Eh]
	 Singles Energy            =      -0.0000000000000000 [Eh]
	 Same-Spin Energy          =      -0.4678609210775246 [Eh]
	 Opposite-Spin Energy      =      -1.4598775711522669 [Eh]
	 Correlation Energy        =      -1.9277384922297915 [Eh]
	 Total Energy              =    -475.7601295642374453 [Eh]

	 ================> DF-SCS-MP2 Energies <==================
	-----------------------------------------------------------
	 SCS Same-Spin Scale       =       0.3333333333333333 [-]
	 SCS Opposite-Spin Scale   =       1.2000000000000000 [-]
	 SCS Same-Spin Energy      =      -0.1559536403591749 [Eh]
	 SCS Opposite-Spin Energy  =      -1.7518530853827203 [Eh]
	 SCS Correlation Energy    =      -1.9078067257418951 [Eh]
	 SCS Total Energy          =    -475.7401977977496017 [Eh]
	-----------------------------------------------------------

  Dipole Moment: [D]
     X:    -0.8632      Y:     2.0448      Z:    -1.7707     Total:     2.8393

*** Psi4 exiting successfully. Buy a developer a beer!
