                               Psi4 1.3.2 release

  ==> Input File <==

--------------------------------------------------------------------------
#psi4
#
memory 32 gb

molecule  {
0 1
  O        1.0830410    -1.2590340     0.2697030
  O       -3.0460190    -0.6564700     0.3579990
  O       -1.7208190     1.1319200     0.8547670
  N        0.1334480     0.3363350    -1.0591540
  C        2.3767950     0.7348440    -0.1800510
  C        1.1530800    -0.1541890    -0.2667860
  C       -1.1420340    -0.3248900    -0.9988550
  C        3.4883670     0.0910310     0.6318210
  C       -1.8779918     0.1992979     0.1756471
  H        2.7160870     0.9611190    -1.1975940
  H        2.0743670     1.6930220     0.2624750
  H       -0.9793980    -1.4015010    -0.9274340
  H       -1.7176060    -0.1322810    -1.9133280
  H        0.1138710     1.3396710    -1.2046940
  H        3.7876720    -0.8582410     0.1862610
  H        4.3593370     0.7487140     0.6762100
  H        3.1503700    -0.1123850     1.6481590
  H       -3.5474700    -0.2792990     1.1088070
units angstrom
no_reorient  #important for SAPT in psi4, default
symmetry c1  #important for SAPT in psi4, default
}

set PROPERTIES_ORIGIN ["COM"]
properties('MP2/aug-cc-pvtz', properties = ['dipole'])
--------------------------------------------------------------------------

    Molecular point group: c1
  Charge       = 0
  Multiplicity = 1
  Basis Set: AUG-CC-PVTZ
    Blend: AUG-CC-PVTZ
  Basis Set: (AUG-CC-PVTZ AUX)
    Blend: AUG-CC-PVTZ-JKFIT

    Orbital Energies [Eh]
    ---------------------

    Doubly Occupied:

       1A    -20.595488     2A    -20.579558     3A    -20.532160
       4A    -15.596044     5A    -11.397669     6A    -11.359374
       7A    -11.294437     8A    -11.247052     9A    -11.218670
      10A     -1.472074    11A     -1.387939    12A     -1.356656
      13A     -1.249003    14A     -1.067771    15A     -1.012424
      16A     -0.889092    17A     -0.807460    18A     -0.788997
      19A     -0.718461    20A     -0.712356    21A     -0.700811
      22A     -0.651245    23A     -0.641392    24A     -0.637528
      25A     -0.609681    26A     -0.601072    27A     -0.557921
      28A     -0.545213    29A     -0.527566    30A     -0.519882
      31A     -0.501736    32A     -0.496906    33A     -0.473864
      34A     -0.436643    35A     -0.413544

  @DF-RHF Final Energy:  -473.82914732439389

   => Energetics <=

    Nuclear Repulsion Energy =            458.6963448147097324
    One-Electron Energy =               -1557.8555998842716690
    Two-Electron Energy =                 625.3301077451678793
    Total Energy =                       -473.8291473243939436
  Basis Set: (AUG-CC-PVTZ AUX)
    Blend: AUG-CC-PVTZ-RI
    Molecular point group: c1

    Geometry (in Angstrom), charge = 0, multiplicity = 1:

       Center              X                  Y                   Z               Mass
    ------------   -----------------  -----------------  -----------------  -----------------
         O            1.075712931567    -1.264402898002     0.270846938054    15.994914619570
         O           -3.053347068433    -0.661838898002     0.359142938054    15.994914619570
         O           -1.728147068433     1.126551101998     0.855910938054    15.994914619570
         N            0.126119931567     0.330966101998    -1.058010061946    14.003074004430
         C            2.369466931567     0.729475101998    -0.178907061946    12.000000000000
         C            1.145751931567    -0.159557898002    -0.265642061946    12.000000000000
         C           -1.149362068433    -0.330258898002    -0.997711061946    12.000000000000
         C            3.481038931567     0.085662101998     0.632964938054    12.000000000000
         C           -1.885319868433     0.193929001998     0.176791038054    12.000000000000
         H            2.708758931567     0.955750101998    -1.196450061946     1.007825032230
         H            2.067038931567     1.687653101998     0.263618938054     1.007825032230
         H           -0.986726068433    -1.406869898002    -0.926290061946     1.007825032230
         H           -1.724934068433    -0.137649898002    -1.912184061946     1.007825032230
         H            0.106542931567     1.334302101998    -1.203550061946     1.007825032230
         H            3.780343931567    -0.863609898002     0.187404938054     1.007825032230
         H            4.352008931567     0.743345101998     0.677353938054     1.007825032230
         H            3.143041931567    -0.117753898002     1.649302938054     1.007825032230
         H           -3.554798068433    -0.284667898002     1.109950938054     1.007825032230

  Basis Set: AUG-CC-PVTZ
    Blend: AUG-CC-PVTZ
  Basis Set: (AUG-CC-PVTZ AUX)
    Blend: AUG-CC-PVTZ-JKFIT
	 Reference Energy          =    -473.8291473243938867 [Eh]
	 Singles Energy            =      -0.0000000000000000 [Eh]
	 Same-Spin Energy          =      -0.4666593456678032 [Eh]
	 Opposite-Spin Energy      =      -1.4581880604124229 [Eh]
	 Correlation Energy        =      -1.9248474060802261 [Eh]
	 Total Energy              =    -475.7539947304741190 [Eh]

	 ================> DF-SCS-MP2 Energies <==================
	-----------------------------------------------------------
	 SCS Same-Spin Scale       =       0.3333333333333333 [-]
	 SCS Opposite-Spin Scale   =       1.2000000000000000 [-]
	 SCS Same-Spin Energy      =      -0.1555531152226011 [Eh]
	 SCS Opposite-Spin Energy  =      -1.7498256724949075 [Eh]
	 SCS Correlation Energy    =      -1.9053787877175086 [Eh]
	 SCS Total Energy          =    -475.7345261121113822 [Eh]
	-----------------------------------------------------------

  Dipole Moment: [D]
     X:    -0.2234      Y:     2.3895      Z:    -1.8490     Total:     3.0296

*** Psi4 exiting successfully. Buy a developer a beer!
