                               Psi4 1.3.2 release

  ==> Input File <==

--------------------------------------------------------------------------
#psi4
#
memory 32 gb

molecule  {
0 1
  O        1.0830410    -1.2590340     0.2697030
  O       -3.0460190    -0.6564700     0.3579990
  O       -1.7208190     1.1319200     0.8547670
  N        0.1389959     0.3272288    -1.0364352
  C        2.3767950     0.7348440    -0.1800510
  C        1.1530800    -0.1541890    -0.2667860
  C       -1.1420340    -0.3248900    -0.9988550
  C        3.4883670     0.0910310     0.6318210
  C       -1.9580260     0.1406600     0.1881420
  H        2.7160870     0.9611190    -1.1975940
  H        2.0743670     1.6930220     0.2624750
  H       -0.9793980    -1.4015010    -0.9274340
  H       -1.7319056    -0.1429655    -1.9063776
  H        0.1138710     1.3396710    -1.2046940
  H        3.7876720    -0.8582410     0.1862610
  H        4.3593370     0.7487140     0.6762100
  H        3.1503700    -0.1123850     1.6481590
  H       -3.5474700    -0.2792990     1.1088070
units angstrom
no_reorient  #important for SAPT in psi4, default
symmetry c1  #important for SAPT in psi4, default
}

set PROPERTIES_ORIGIN ["COM"]
properties('MP2/aug-cc-pvtz', properties = ['dipole'])
--------------------------------------------------------------------------

    Molecular point group: c1
  Charge       = 0
  Multiplicity = 1
  Basis Set: AUG-CC-PVTZ
    Blend: AUG-CC-PVTZ
  Basis Set: (AUG-CC-PVTZ AUX)
    Blend: AUG-CC-PVTZ-JKFIT

    Orbital Energies [Eh]
    ---------------------

    Doubly Occupied:

       1A    -20.625671     2A    -20.563075     3A    -20.524685
       4A    -15.594597     5A    -11.399202     6A    -11.353249
       7A    -11.292039     8A    -11.243609     9A    -11.215879
      10A     -1.468765    11A     -1.384656    12A     -1.368700
      13A     -1.243751    14A     -1.063576    15A     -1.008274
      16A     -0.889211    17A     -0.825638    18A     -0.786194
      19A     -0.716596    20A     -0.713077    21A     -0.698422
      22A     -0.655573    23A     -0.644038    24A     -0.637282
      25A     -0.603804    26A     -0.598437    27A     -0.558112
      28A     -0.541092    29A     -0.525260    30A     -0.516795
      31A     -0.495320    32A     -0.491698    33A     -0.469102
      34A     -0.432068    35A     -0.409556

  @DF-RHF Final Energy:  -473.83940682679173

   => Energetics <=

    Nuclear Repulsion Energy =            458.5070530239877939
    One-Electron Energy =               -1557.5789149895726950
    Two-Electron Energy =                 625.2324551387931706
    Total Energy =                       -473.8394068267917874
  Basis Set: (AUG-CC-PVTZ AUX)
    Blend: AUG-CC-PVTZ-RI
    Molecular point group: c1

    Geometry (in Angstrom), charge = 0, multiplicity = 1:

       Center              X                  Y                   Z               Mass
    ------------   -----------------  -----------------  -----------------  -----------------
         O            1.082558241094    -1.257978748870     0.267222010592    15.994914619570
         O           -3.046501758906    -0.655414748870     0.355518010592    15.994914619570
         O           -1.721301758906     1.132975251130     0.852286010592    15.994914619570
         N            0.138513141094     0.328284051130    -1.038916189408    14.003074004430
         C            2.376312241094     0.735899251130    -0.182531989408    12.000000000000
         C            1.152597241094    -0.153133748870    -0.269266989408    12.000000000000
         C           -1.142516758906    -0.323834748870    -1.001335989408    12.000000000000
         C            3.487884241094     0.092086251130     0.629340010592    12.000000000000
         C           -1.958508758906     0.141715251130     0.185661010592    12.000000000000
         H            2.715604241094     0.962174251130    -1.200074989408     1.007825032230
         H            2.073884241094     1.694077251130     0.259994010592     1.007825032230
         H           -0.979880758906    -1.400445748870    -0.929914989408     1.007825032230
         H           -1.732388358906    -0.141910248870    -1.908858589408     1.007825032230
         H            0.113388241094     1.340726251130    -1.207174989408     1.007825032230
         H            3.787189241094    -0.857185748870     0.183780010592     1.007825032230
         H            4.358854241094     0.749769251130     0.673729010592     1.007825032230
         H            3.149887241094    -0.111329748870     1.645678010592     1.007825032230
         H           -3.547952758906    -0.278243748870     1.106326010592     1.007825032230

  Basis Set: AUG-CC-PVTZ
    Blend: AUG-CC-PVTZ
  Basis Set: (AUG-CC-PVTZ AUX)
    Blend: AUG-CC-PVTZ-JKFIT
	 Reference Energy          =    -473.8394068267917305 [Eh]
	 Singles Energy            =      -0.0000000000000000 [Eh]
	 Same-Spin Energy          =      -0.4668197701931628 [Eh]
	 Opposite-Spin Energy      =      -1.4575859795153168 [Eh]
	 Correlation Energy        =      -1.9244057497084794 [Eh]
	 Total Energy              =    -475.7638125765001860 [Eh]

	 ================> DF-SCS-MP2 Energies <==================
	-----------------------------------------------------------
	 SCS Same-Spin Scale       =       0.3333333333333333 [-]
	 SCS Opposite-Spin Scale   =       1.2000000000000000 [-]
	 SCS Same-Spin Energy      =      -0.1556065900643876 [Eh]
	 SCS Opposite-Spin Energy  =      -1.7491031754183801 [Eh]
	 SCS Correlation Energy    =      -1.9047097654827678 [Eh]
	 SCS Total Energy          =    -475.7441165922745085 [Eh]
	-----------------------------------------------------------

  Dipole Moment: [D]
     X:    -1.0311      Y:     1.9237      Z:    -1.8393     Total:     2.8543

*** Psi4 exiting successfully. Buy a developer a beer!
