                               Psi4 1.3.2 release

  ==> Input File <==

--------------------------------------------------------------------------
#psi4
#
memory 32 gb

molecule  {
0 1
  O        1.0830410    -1.2590340     0.2697030
  O       -3.0460190    -0.6564700     0.3579990
  O       -1.7208190     1.1319200     0.8547670
  N        0.1334480     0.3363350    -1.0591540
  C        2.3767950     0.7348440    -0.1800510
  C        1.1530800    -0.1541890    -0.2667860
  C       -1.1420340    -0.3248900    -0.9988550
  C        3.4883670     0.0910310     0.6318210
  C       -1.9381451     0.0988323     0.1341011
  H        2.7160870     0.9611190    -1.1975940
  H        2.0743670     1.6930220     0.2624750
  H       -0.9793980    -1.4015010    -0.9274340
  H       -1.7176060    -0.1322810    -1.9133280
  H        0.1138710     1.3396710    -1.2046940
  H        3.7876720    -0.8582410     0.1862610
  H        4.3593370     0.7487140     0.6762100
  H        3.1503700    -0.1123850     1.6481590
  H       -3.5818212    -0.3168529     1.1029822
units angstrom
no_reorient  #important for SAPT in psi4, default
symmetry c1  #important for SAPT in psi4, default
}

set PROPERTIES_ORIGIN ["COM"]
properties('MP2/aug-cc-pvtz', properties = ['dipole'])
--------------------------------------------------------------------------

    Molecular point group: c1
  Charge       = 0
  Multiplicity = 1
  Basis Set: AUG-CC-PVTZ
    Blend: AUG-CC-PVTZ
  Basis Set: (AUG-CC-PVTZ AUX)
    Blend: AUG-CC-PVTZ-JKFIT

    Orbital Energies [Eh]
    ---------------------

    Doubly Occupied:

       1A    -20.625663     2A    -20.553980     3A    -20.530650
       4A    -15.596015     5A    -11.405857     6A    -11.358173
       7A    -11.294419     8A    -11.245123     9A    -11.217040
      10A     -1.457153    11A     -1.386742    12A     -1.334756
      13A     -1.245677    14A     -1.068617    15A     -1.023255
      16A     -0.894121    17A     -0.831247    18A     -0.788947
      19A     -0.721173    20A     -0.709260    21A     -0.695883
      22A     -0.655947    23A     -0.643798    24A     -0.636471
      25A     -0.602611    26A     -0.586859    27A     -0.561556
      28A     -0.541679    29A     -0.526667    30A     -0.518143
      31A     -0.494820    32A     -0.471303    33A     -0.463183
      34A     -0.436513    35A     -0.415498

  @DF-RHF Final Energy:  -473.82560357313469

   => Energetics <=

    Nuclear Repulsion Energy =            457.9148738022576026
    One-Electron Energy =               -1556.4033596044980641
    Two-Electron Energy =                 624.6628822291058896
    Total Energy =                       -473.8256035731346856
  Basis Set: (AUG-CC-PVTZ AUX)
    Blend: AUG-CC-PVTZ-RI
    Molecular point group: c1

    Geometry (in Angstrom), charge = 0, multiplicity = 1:

       Center              X                  Y                   Z               Mass
    ------------   -----------------  -----------------  -----------------  -----------------
         O            1.081484866098    -1.254915246325     0.274695779356    15.994914619570
         O           -3.047575133902    -0.652351246325     0.362991779356    15.994914619570
         O           -1.722375133902     1.136038753675     0.859759779356    15.994914619570
         N            0.131891866098     0.340453753675    -1.054161220644    14.003074004430
         C            2.375238866098     0.738962753675    -0.175058220644    12.000000000000
         C            1.151523866098    -0.150070246325    -0.261793220644    12.000000000000
         C           -1.143590133902    -0.320771246325    -0.993862220644    12.000000000000
         C            3.486810866098     0.095149753675     0.636813779356    12.000000000000
         C           -1.939701233902     0.102951053675     0.139093879356    12.000000000000
         H            2.714530866098     0.965237753675    -1.192601220644     1.007825032230
         H            2.072810866098     1.697140753675     0.267467779356     1.007825032230
         H           -0.980954133902    -1.397382246325    -0.922441220644     1.007825032230
         H           -1.719162133902    -0.128162246325    -1.908335220644     1.007825032230
         H            0.112314866098     1.343789753675    -1.199701220644     1.007825032230
         H            3.786115866098    -0.854122246325     0.191253779356     1.007825032230
         H            4.357780866098     0.752832753675     0.681202779356     1.007825032230
         H            3.148813866098    -0.108266246325     1.653151779356     1.007825032230
         H           -3.583377333902    -0.312734146325     1.107974979356     1.007825032230

  Basis Set: AUG-CC-PVTZ
    Blend: AUG-CC-PVTZ
  Basis Set: (AUG-CC-PVTZ AUX)
    Blend: AUG-CC-PVTZ-JKFIT
	 Reference Energy          =    -473.8256035731346856 [Eh]
	 Singles Energy            =      -0.0000000000000000 [Eh]
	 Same-Spin Energy          =      -0.4682375630040906 [Eh]
	 Opposite-Spin Energy      =      -1.4605727294055890 [Eh]
	 Correlation Energy        =      -1.9288102924096795 [Eh]
	 Total Energy              =    -475.7544138655443930 [Eh]

	 ================> DF-SCS-MP2 Energies <==================
	-----------------------------------------------------------
	 SCS Same-Spin Scale       =       0.3333333333333333 [-]
	 SCS Opposite-Spin Scale   =       1.2000000000000000 [-]
	 SCS Same-Spin Energy      =      -0.1560791876680302 [Eh]
	 SCS Opposite-Spin Energy  =      -1.7526872752867069 [Eh]
	 SCS Correlation Energy    =      -1.9087664629547372 [Eh]
	 SCS Total Energy          =    -475.7343700360894445 [Eh]
	-----------------------------------------------------------

  Dipole Moment: [D]
     X:    -0.9044      Y:     1.6037      Z:    -1.9820     Total:     2.7052

*** Psi4 exiting successfully. Buy a developer a beer!
