                               Psi4 1.4a3.dev225

  ==> Input File <==

--------------------------------------------------------------------------
#psi4
#
memory 32 gb

molecule  {
0 1
  O        0.8764270    -0.2428500     1.2911470
  O       -3.1675390     0.0980960     0.5443480
  O       -1.5839830     1.3406500    -0.5070920
  N        0.0834400    -0.8734940    -0.7544630
  C        2.2681300     0.2178930    -0.6380450
  C        1.0330250    -0.3000120     0.0721840
  C       -1.2394860    -1.0499030    -0.2084880
  C        3.4385850     0.4137260     0.3159750
  C       -1.9347418     0.2757157    -0.1083285
  H        2.5310470    -0.4685700    -1.4513520
  H        1.9929790     1.1708880    -1.1091590
  H       -1.1549390    -1.4972460     0.7835340
  H       -1.8230450    -1.7308360    -0.8360530
  H        0.1282230    -0.6025030    -1.7308050
  H        3.7379630    -0.5375510     0.7615240
  H        4.2975370     0.8343390    -0.2133880
  H        3.1581410     1.0869690     1.1269820
  H       -3.5812870     0.9851770     0.5837010
units angstrom
no_reorient  #important for SAPT in psi4, default
symmetry c1  #important for SAPT in psi4, default
}

set PROPERTIES_ORIGIN ["COM"]
properties('MP2/aug-cc-pvtz', properties = ['dipole'])
--------------------------------------------------------------------------

    Molecular point group: c1
  Charge       = 0
  Multiplicity = 1
  Basis Set: AUG-CC-PVTZ
    Blend: AUG-CC-PVTZ
  Basis Set: (AUG-CC-PVTZ AUX)
    Blend: AUG-CC-PVTZ-JKFIT

    Orbital Energies [Eh]
    ---------------------

    Doubly Occupied:

       1A    -20.610001     2A    -20.569177     3A    -20.529522
       4A    -15.594991     5A    -11.396895     6A    -11.356995
       7A    -11.293501     8A    -11.245261     9A    -11.218626
      10A     -1.463062    11A     -1.385188    12A     -1.367458
      13A     -1.244535    14A     -1.064372    15A     -1.008042
      16A     -0.888561    17A     -0.814560    18A     -0.785496
      19A     -0.716732    20A     -0.709900    21A     -0.698595
      22A     -0.652286    23A     -0.642330    24A     -0.630271
      25A     -0.607601    26A     -0.600623    27A     -0.557252
      28A     -0.546674    29A     -0.525394    30A     -0.516558
      31A     -0.499284    32A     -0.493937    33A     -0.472774
      34A     -0.434028    35A     -0.413121

  @DF-RHF Final Energy:  -473.83737301812249

   => Energetics <=

    Nuclear Repulsion Energy =            460.8093289430709660
    One-Electron Energy =               -1562.1861937283276802
    Two-Electron Energy =                 627.5394917671341091
    Total Energy =                       -473.8373730181225483
  Basis Set: (AUG-CC-PVTZ AUX)
    Blend: AUG-CC-PVTZ-RI
    Molecular point group: c1

    Geometry (in Angstrom), charge = 0, multiplicity = 1:

       Center              X                  Y                   Z               Mass
    ------------   -----------------  -----------------  -----------------  -----------------
         O            0.942565256330    -0.249109925851     1.277556629928    15.994914619570
         O           -3.101400743670     0.091836074149     0.530757629928    15.994914619570
         O           -1.517844743670     1.334390074149    -0.520682370072    15.994914619570
         N            0.149578256330    -0.879753925851    -0.768053370072    14.003074004430
         C            2.334268256330     0.211633074149    -0.651635370072    12.000000000000
         C            1.099163256330    -0.306271925851     0.058593629928    12.000000000000
         C           -1.173347743670    -1.056162925851    -0.222078370072    12.000000000000
         C            3.504723256330     0.407466074149     0.302384629928    12.000000000000
         C           -1.868603543670     0.269455774149    -0.121918870072    12.000000000000
         H            2.597185256330    -0.474829925851    -1.464942370072     1.007825032230
         H            2.059117256330     1.164628074149    -1.122749370072     1.007825032230
         H           -1.088800743670    -1.503505925851     0.769943629928     1.007825032230
         H           -1.756906743670    -1.737095925851    -0.849643370072     1.007825032230
         H            0.194361256330    -0.608762925851    -1.744395370072     1.007825032230
         H            3.804101256330    -0.543810925851     0.747933629928     1.007825032230
         H            4.363675256330     0.828079074149    -0.226978370072     1.007825032230
         H            3.224279256330     1.080709074149     1.113391629928     1.007825032230
         H           -3.515148743670     0.978917074149     0.570110629928     1.007825032230

  Basis Set: AUG-CC-PVTZ
    Blend: AUG-CC-PVTZ
  Basis Set: (AUG-CC-PVTZ AUX)
    Blend: AUG-CC-PVTZ-JKFIT
	 Reference Energy          =    -473.8373730181224914 [Eh]
	 Singles Energy            =      -0.0000000000000000 [Eh]
	 Same-Spin Energy          =      -0.4667161552157680 [Eh]
	 Opposite-Spin Energy      =      -1.4581025605704467 [Eh]
	 Correlation Energy        =      -1.9248187157862149 [Eh]
	 Total Energy              =    -475.7621917339087076 [Eh]

	 ================> DF-SCS-MP2 Energies <==================
	-----------------------------------------------------------
	 SCS Same-Spin Scale       =       0.3333333333333333 [-]
	 SCS Opposite-Spin Scale   =       1.2000000000000000 [-]
	 SCS Same-Spin Energy      =      -0.1555720517385893 [Eh]
	 SCS Opposite-Spin Energy  =      -1.7497230726845361 [Eh]
	 SCS Correlation Energy    =      -1.9052951244231253 [Eh]
	 SCS Total Energy          =    -475.7426681425455968 [Eh]
	-----------------------------------------------------------

  Dipole Moment: [D]
     X:    -0.5130      Y:    -0.7232      Z:    -2.8598     Total:     2.9941

*** Psi4 exiting successfully. Buy a developer a beer!
