                               Psi4 1.3.2 release

  ==> Input File <==

--------------------------------------------------------------------------
#psi4
#
memory 32 gb

molecule  {
0 1
  O        1.0830410    -1.2590340     0.2697030
  O       -3.0460190    -0.6564700     0.3579990
  O       -1.7208190     1.1319200     0.8547670
  N        0.1334480     0.3363350    -1.0591540
  C        2.3767950     0.7348440    -0.1800510
  C        0.9915390    -0.2715491    -0.2782358
  C       -1.1420340    -0.3248900    -0.9988550
  C        3.4883670     0.0910310     0.6318210
  C       -1.9580260     0.1406600     0.1881420
  H        2.7160870     0.9611190    -1.1975940
  H        2.0743670     1.6930220     0.2624750
  H       -0.9793980    -1.4015010    -0.9274340
  H       -1.7176060    -0.1322810    -1.9133280
  H        0.1138710     1.3396710    -1.2046940
  H        3.7876720    -0.8582410     0.1862610
  H        4.3593370     0.7487140     0.6762100
  H        3.1503700    -0.1123850     1.6481590
  H       -3.5474700    -0.2792990     1.1088070
units angstrom
no_reorient  #important for SAPT in psi4, default
symmetry c1  #important for SAPT in psi4, default
}

set PROPERTIES_ORIGIN ["COM"]
properties('MP2/aug-cc-pvtz', properties = ['dipole'])
--------------------------------------------------------------------------

    Molecular point group: c1
  Charge       = 0
  Multiplicity = 1
  Basis Set: AUG-CC-PVTZ
    Blend: AUG-CC-PVTZ
  Basis Set: (AUG-CC-PVTZ AUX)
    Blend: AUG-CC-PVTZ-JKFIT

    Orbital Energies [Eh]
    ---------------------

    Doubly Occupied:

       1A    -20.630948     2A    -20.569669     3A    -20.540167
       4A    -15.601419     5A    -11.405480     6A    -11.348863
       7A    -11.296782     8A    -11.223829     9A    -11.203678
      10A     -1.474799    11A     -1.451701    12A     -1.375612
      13A     -1.282002    14A     -1.036784    15A     -1.004446
      16A     -0.866709    17A     -0.820527    18A     -0.819142
      19A     -0.723302    20A     -0.718615    21A     -0.700608
      22A     -0.670593    23A     -0.650431    24A     -0.632526
      25A     -0.612435    26A     -0.602352    27A     -0.571881
      28A     -0.567082    29A     -0.524622    30A     -0.503242
      31A     -0.498810    32A     -0.483587    33A     -0.478704
      34A     -0.433314    35A     -0.382979

  @DF-RHF Final Energy:  -473.80039948513974

   => Energetics <=

    Nuclear Repulsion Energy =            459.8210736211198650
    One-Electron Energy =               -1559.8276668548305679
    Two-Electron Energy =                 626.2061937485708540
    Total Energy =                       -473.8003994851397920
  Basis Set: (AUG-CC-PVTZ AUX)
    Blend: AUG-CC-PVTZ-RI
    Molecular point group: c1

    Geometry (in Angstrom), charge = 0, multiplicity = 1:

       Center              X                  Y                   Z               Mass
    ------------   -----------------  -----------------  -----------------  -----------------
         O            1.097832123235    -1.248288108507     0.270751246248    15.994914619570
         O           -3.031227876765    -0.645724108507     0.359047246248    15.994914619570
         O           -1.706027876765     1.142665891493     0.855815246248    15.994914619570
         N            0.148239123235     0.347080891493    -1.058105753752    14.003074004430
         C            2.391586123235     0.745589891493    -0.179002753752    12.000000000000
         C            1.006330123235    -0.260803208507    -0.277187553752    12.000000000000
         C           -1.127242876765    -0.314144108507    -0.997806753752    12.000000000000
         C            3.503158123235     0.101776891493     0.632869246248    12.000000000000
         C           -1.943234876765     0.151405891493     0.189190246248    12.000000000000
         H            2.730878123235     0.971864891493    -1.196545753752     1.007825032230
         H            2.089158123235     1.703767891493     0.263523246248     1.007825032230
         H           -0.964606876765    -1.390755108507    -0.926385753752     1.007825032230
         H           -1.702814876765    -0.121535108507    -1.912279753752     1.007825032230
         H            0.128662123235     1.350416891493    -1.203645753752     1.007825032230
         H            3.802463123235    -0.847495108507     0.187309246248     1.007825032230
         H            4.374128123235     0.759459891493     0.677258246248     1.007825032230
         H            3.165161123235    -0.101639108507     1.649207246248     1.007825032230
         H           -3.532678876765    -0.268553108507     1.109855246248     1.007825032230

  Basis Set: AUG-CC-PVTZ
    Blend: AUG-CC-PVTZ
  Basis Set: (AUG-CC-PVTZ AUX)
    Blend: AUG-CC-PVTZ-JKFIT
	 Reference Energy          =    -473.8003994851397351 [Eh]
	 Singles Energy            =      -0.0000000000000000 [Eh]
	 Same-Spin Energy          =      -0.4658718994356237 [Eh]
	 Opposite-Spin Energy      =      -1.4558063347251085 [Eh]
	 Correlation Energy        =      -1.9216782341607321 [Eh]
	 Total Energy              =    -475.7220777193004437 [Eh]

	 ================> DF-SCS-MP2 Energies <==================
	-----------------------------------------------------------
	 SCS Same-Spin Scale       =       0.3333333333333333 [-]
	 SCS Opposite-Spin Scale   =       1.2000000000000000 [-]
	 SCS Same-Spin Energy      =      -0.1552906331452079 [Eh]
	 SCS Opposite-Spin Energy  =      -1.7469676016701301 [Eh]
	 SCS Correlation Energy    =      -1.9022582348153381 [Eh]
	 SCS Total Energy          =    -475.7026577199550843 [Eh]
	-----------------------------------------------------------

  Dipole Moment: [D]
     X:    -2.0464      Y:     1.2957      Z:    -1.8709     Total:     3.0605

*** Psi4 exiting successfully. Buy a developer a beer!
