                               Psi4 1.3.2 release

  ==> Input File <==

--------------------------------------------------------------------------
#psi4
#
memory 32 gb

molecule  {
0 1
  O        1.0830410    -1.2590340     0.2697030
  O       -3.0460190    -0.6564700     0.3579990
  O       -1.7208190     1.1319200     0.8547670
  N        0.1334480     0.3363350    -1.0591540
  C        2.3767950     0.7348440    -0.1800510
  C        1.1508876    -0.1547530    -0.2139519
  C       -1.1420340    -0.3248900    -0.9988550
  C        3.4883670     0.0910310     0.6318210
  C       -1.9580260     0.1406600     0.1881420
  H        2.7445016     0.9820113    -1.1827540
  H        2.0743670     1.6930220     0.2624750
  H       -0.9793980    -1.4015010    -0.9274340
  H       -1.7176060    -0.1322810    -1.9133280
  H        0.1138710     1.3396710    -1.2046940
  H        3.7876720    -0.8582410     0.1862610
  H        4.3593370     0.7487140     0.6762100
  H        3.1503700    -0.1123850     1.6481590
  H       -3.5474700    -0.2792990     1.1088070
units angstrom
no_reorient  #important for SAPT in psi4, default
symmetry c1  #important for SAPT in psi4, default
}

set PROPERTIES_ORIGIN ["COM"]
properties('MP2/aug-cc-pvtz', properties = ['dipole'])
--------------------------------------------------------------------------

    Molecular point group: c1
  Charge       = 0
  Multiplicity = 1
  Basis Set: AUG-CC-PVTZ
    Blend: AUG-CC-PVTZ
  Basis Set: (AUG-CC-PVTZ AUX)
    Blend: AUG-CC-PVTZ-JKFIT

    Orbital Energies [Eh]
    ---------------------

    Doubly Occupied:

       1A    -20.624551     2A    -20.561971     3A    -20.535691
       4A    -15.587657     5A    -11.397379     6A    -11.357008
       7A    -11.288137     8A    -11.244066     9A    -11.216790
      10A     -1.467568    11A     -1.400123    12A     -1.368047
      13A     -1.235037    14A     -1.063573    15A     -1.001743
      16A     -0.888269    17A     -0.821938    18A     -0.779607
      19A     -0.715063    20A     -0.714017    21A     -0.699655
      22A     -0.651449    23A     -0.645519    24A     -0.636496
      25A     -0.608585    26A     -0.600528    27A     -0.557699
      28A     -0.543560    29A     -0.526238    30A     -0.518177
      31A     -0.495788    32A     -0.491245    33A     -0.469283
      34A     -0.436893    35A     -0.409732

  @DF-RHF Final Energy:  -473.83805938879732

   => Energetics <=

    Nuclear Repulsion Energy =            458.0924584377655719
    One-Electron Energy =               -1556.7428746555829093
    Two-Electron Energy =                 624.8123568290200183
    Total Energy =                       -473.8380593887973191
  Basis Set: (AUG-CC-PVTZ AUX)
    Blend: AUG-CC-PVTZ-RI
    Molecular point group: c1

    Geometry (in Angstrom), charge = 0, multiplicity = 1:

       Center              X                  Y                   Z               Mass
    ------------   -----------------  -----------------  -----------------  -----------------
         O            1.083023286351    -1.259142892981     0.264751143511    15.994914619570
         O           -3.046036713649    -0.656578892981     0.353047143511    15.994914619570
         O           -1.720836713649     1.131811107019     0.849815143511    15.994914619570
         N            0.133430286351     0.336226107019    -1.064105856489    14.003074004430
         C            2.376777286351     0.734735107019    -0.185002856489    12.000000000000
         C            1.150869886351    -0.154861892981    -0.218903756489    12.000000000000
         C           -1.142051713649    -0.324998892981    -1.003806856489    12.000000000000
         C            3.488349286351     0.090922107019     0.626869143511    12.000000000000
         C           -1.958043713649     0.140551107019     0.183190143511    12.000000000000
         H            2.744483886351     0.981902407019    -1.187705856489     1.007825032230
         H            2.074349286351     1.692913107019     0.257523143511     1.007825032230
         H           -0.979415713649    -1.401609892981    -0.932385856489     1.007825032230
         H           -1.717623713649    -0.132389892981    -1.918279856489     1.007825032230
         H            0.113853286351     1.339562107019    -1.209645856489     1.007825032230
         H            3.787654286351    -0.858349892981     0.181309143511     1.007825032230
         H            4.359319286351     0.748605107019     0.671258143511     1.007825032230
         H            3.150352286351    -0.112493892981     1.643207143511     1.007825032230
         H           -3.547487713649    -0.279407892981     1.103855143511     1.007825032230

  Basis Set: AUG-CC-PVTZ
    Blend: AUG-CC-PVTZ
  Basis Set: (AUG-CC-PVTZ AUX)
    Blend: AUG-CC-PVTZ-JKFIT
	 Reference Energy          =    -473.8380593887973191 [Eh]
	 Singles Energy            =      -0.0000000000000000 [Eh]
	 Same-Spin Energy          =      -0.4664191542047340 [Eh]
	 Opposite-Spin Energy      =      -1.4572613983296860 [Eh]
	 Correlation Energy        =      -1.9236805525344201 [Eh]
	 Total Energy              =    -475.7617399413317116 [Eh]

	 ================> DF-SCS-MP2 Energies <==================
	-----------------------------------------------------------
	 SCS Same-Spin Scale       =       0.3333333333333333 [-]
	 SCS Opposite-Spin Scale   =       1.2000000000000000 [-]
	 SCS Same-Spin Energy      =      -0.1554730514015780 [Eh]
	 SCS Opposite-Spin Energy  =      -1.7487136779956232 [Eh]
	 SCS Correlation Energy    =      -1.9041867293972012 [Eh]
	 SCS Total Energy          =    -475.7422461181945437 [Eh]
	-----------------------------------------------------------

  Dipole Moment: [D]
     X:    -0.8041      Y:     1.7625      Z:    -1.5928     Total:     2.5080

*** Psi4 exiting successfully. Buy a developer a beer!
