                               Psi4 1.4a3.dev225

  ==> Input File <==

--------------------------------------------------------------------------
#psi4
#
memory 32 gb

molecule  {
0 1
  O        0.8764270    -0.2428500     1.2911470
  O       -3.1675390     0.0980960     0.5443480
  O       -1.5839830     1.3406500    -0.5070920
  N        0.0834400    -0.8734940    -0.7544630
  C        2.2681300     0.2178930    -0.6380450
  C        1.0330250    -0.3000120     0.0721840
  C       -1.2394860    -1.0499030    -0.2084880
  C        3.4385850     0.4137260     0.3159750
  C       -1.9947874     0.2253918    -0.0677859
  H        2.5310470    -0.4685700    -1.4513520
  H        1.9929790     1.1708880    -1.1091590
  H       -1.1549390    -1.4972460     0.7835340
  H       -1.8230450    -1.7308360    -0.8360530
  H        0.1282230    -0.6025030    -1.7308050
  H        3.7379630    -0.5375510     0.7615240
  H        4.2975370     0.8343390    -0.2133880
  H        3.1581410     1.0869690     1.1269820
  H       -3.5812870     0.9851770     0.5837010
units angstrom
no_reorient  #important for SAPT in psi4, default
symmetry c1  #important for SAPT in psi4, default
}

set PROPERTIES_ORIGIN ["COM"]
properties('MP2/aug-cc-pvtz', properties = ['dipole'])
--------------------------------------------------------------------------

    Molecular point group: c1
  Charge       = 0
  Multiplicity = 1
  Basis Set: AUG-CC-PVTZ
    Blend: AUG-CC-PVTZ
  Basis Set: (AUG-CC-PVTZ AUX)
    Blend: AUG-CC-PVTZ-JKFIT

    Orbital Energies [Eh]
    ---------------------

    Doubly Occupied:

       1A    -20.633189     2A    -20.551558     3A    -20.527668
       4A    -15.594532     5A    -11.402002     6A    -11.355478
       7A    -11.293778     8A    -11.243418     9A    -11.217136
      10A     -1.474928    11A     -1.383635    12A     -1.340830
      13A     -1.241497    14A     -1.063535    15A     -1.013412
      16A     -0.892095    17A     -0.833453    18A     -0.785719
      19A     -0.714281    20A     -0.713675    21A     -0.698716
      22A     -0.655198    23A     -0.649735    24A     -0.629858
      25A     -0.602892    26A     -0.589154    27A     -0.562527
      28A     -0.543534    29A     -0.523700    30A     -0.514662
      31A     -0.492909    32A     -0.473636    33A     -0.462728
      34A     -0.433358    35A     -0.413100

  @DF-RHF Final Energy:  -473.83238445687005

   => Energetics <=

    Nuclear Repulsion Energy =            460.2647913283929597
    One-Electron Energy =               -1561.1512985656063393
    Two-Electron Energy =                 627.0541227803433912
    Total Energy =                       -473.8323844568700451
  Basis Set: (AUG-CC-PVTZ AUX)
    Blend: AUG-CC-PVTZ-RI
    Molecular point group: c1

    Geometry (in Angstrom), charge = 0, multiplicity = 1:

       Center              X                  Y                   Z               Mass
    ------------   -----------------  -----------------  -----------------  -----------------
         O            0.948063172239    -0.244502151586     1.273844454423    15.994914619570
         O           -3.095902827761     0.096443848414     0.527045454423    15.994914619570
         O           -1.512346827761     1.338997848414    -0.524394545577    15.994914619570
         N            0.155076172239    -0.875146151586    -0.771765545577    14.003074004430
         C            2.339766172239     0.216240848414    -0.655347545577    12.000000000000
         C            1.104661172239    -0.301664151586     0.054881454423    12.000000000000
         C           -1.167849827761    -1.051555151586    -0.225790545577    12.000000000000
         C            3.510221172239     0.412073848414     0.298672454423    12.000000000000
         C           -1.923151227761     0.223739648414    -0.085088445577    12.000000000000
         H            2.602683172239    -0.470222151586    -1.468654545577     1.007825032230
         H            2.064615172239     1.169235848414    -1.126461545577     1.007825032230
         H           -1.083302827761    -1.498898151586     0.766231454423     1.007825032230
         H           -1.751408827761    -1.732488151586    -0.853355545577     1.007825032230
         H            0.199859172239    -0.604155151586    -1.748107545577     1.007825032230
         H            3.809599172239    -0.539203151586     0.744221454423     1.007825032230
         H            4.369173172239     0.832686848414    -0.230690545577     1.007825032230
         H            3.229777172239     1.085316848414     1.109679454423     1.007825032230
         H           -3.509650827761     0.983524848414     0.566398454423     1.007825032230

  Basis Set: AUG-CC-PVTZ
    Blend: AUG-CC-PVTZ
  Basis Set: (AUG-CC-PVTZ AUX)
    Blend: AUG-CC-PVTZ-JKFIT
	 Reference Energy          =    -473.8323844568700451 [Eh]
	 Singles Energy            =      -0.0000000000000000 [Eh]
	 Same-Spin Energy          =      -0.4677551454326075 [Eh]
	 Opposite-Spin Energy      =      -1.4595769755435857 [Eh]
	 Correlation Energy        =      -1.9273321209761933 [Eh]
	 Total Energy              =    -475.7597165778462340 [Eh]

	 ================> DF-SCS-MP2 Energies <==================
	-----------------------------------------------------------
	 SCS Same-Spin Scale       =       0.3333333333333333 [-]
	 SCS Opposite-Spin Scale   =       1.2000000000000000 [-]
	 SCS Same-Spin Energy      =      -0.1559183818108692 [Eh]
	 SCS Opposite-Spin Energy  =      -1.7514923706523027 [Eh]
	 SCS Correlation Energy    =      -1.9074107524631718 [Eh]
	 SCS Total Energy          =    -475.7397952093332378 [Eh]
	-----------------------------------------------------------

  Dipole Moment: [D]
     X:    -1.0664      Y:    -1.0109      Z:    -2.5165     Total:     2.9140

*** Psi4 exiting successfully. Buy a developer a beer!
