                               Psi4 1.3.2 release

  ==> Input File <==

--------------------------------------------------------------------------
#psi4
#
memory 32 gb

molecule  {
0 1
  O        1.0830410    -1.2590340     0.2697030
  O       -3.0460190    -0.6564700     0.3579990
  O       -1.7208190     1.1319200     0.8547670
  N        0.1334480     0.3363350    -1.0591540
  C        2.3767950     0.7348440    -0.1800510
  C        1.1530800    -0.1541890    -0.2667860
  C       -1.0533328    -0.2789062    -1.0030484
  C        3.4883670     0.0910310     0.6318210
  C       -1.9580260     0.1406600     0.1881420
  H        2.7160870     0.9611190    -1.1975940
  H        2.0743670     1.6930220     0.2624750
  H       -0.9793980    -1.4015010    -0.9274340
  H       -1.7176060    -0.1322810    -1.9133280
  H        0.1138710     1.3396710    -1.2046940
  H        3.7876720    -0.8582410     0.1862610
  H        4.3593370     0.7487140     0.6762100
  H        3.1503700    -0.1123850     1.6481590
  H       -3.5474700    -0.2792990     1.1088070
units angstrom
no_reorient  #important for SAPT in psi4, default
symmetry c1  #important for SAPT in psi4, default
}

set PROPERTIES_ORIGIN ["COM"]
properties('MP2/aug-cc-pvtz', properties = ['dipole'])
--------------------------------------------------------------------------

    Molecular point group: c1
  Charge       = 0
  Multiplicity = 1
  Basis Set: AUG-CC-PVTZ
    Blend: AUG-CC-PVTZ
  Basis Set: (AUG-CC-PVTZ AUX)
    Blend: AUG-CC-PVTZ-JKFIT

    Orbital Energies [Eh]
    ---------------------

    Doubly Occupied:

       1A    -20.624663     2A    -20.557799     3A    -20.533543
       4A    -15.594956     5A    -11.394307     6A    -11.360164
       7A    -11.291269     8A    -11.246942     9A    -11.218424
      10A     -1.464932    11A     -1.392190    12A     -1.365422
      13A     -1.269027    14A     -1.066419    15A     -0.994437
      16A     -0.893385    17A     -0.825395    18A     -0.795624
      19A     -0.719717    20A     -0.712233    21A     -0.697588
      22A     -0.670415    23A     -0.641509    24A     -0.637197
      25A     -0.609287    26A     -0.599917    27A     -0.544502
      28A     -0.539355    29A     -0.524012    30A     -0.519702
      31A     -0.496960    32A     -0.488662    33A     -0.466094
      34A     -0.438553    35A     -0.406474

  @DF-RHF Final Energy:  -473.82792651833620

   => Energetics <=

    Nuclear Repulsion Energy =            459.1067776117188259
    One-Electron Energy =               -1558.6672585898020316
    Two-Electron Energy =                 625.7325544597470071
    Total Energy =                       -473.8279265183361986
  Basis Set: (AUG-CC-PVTZ AUX)
    Blend: AUG-CC-PVTZ-RI
    Molecular point group: c1

    Geometry (in Angstrom), charge = 0, multiplicity = 1:

       Center              X                  Y                   Z               Mass
    ------------   -----------------  -----------------  -----------------  -----------------
         O            1.074919360727    -1.263244258939     0.270086833252    15.994914619570
         O           -3.054140639273    -0.660680258939     0.358382833252    15.994914619570
         O           -1.728940639273     1.127709741061     0.855150833252    15.994914619570
         N            0.125326360727     0.332124741061    -1.058770166748    14.003074004430
         C            2.368673360727     0.730633741061    -0.179667166748    12.000000000000
         C            1.144958360727    -0.158399258939    -0.266402166748    12.000000000000
         C           -1.061454439273    -0.283116458939    -1.002664566748    12.000000000000
         C            3.480245360727     0.086820741061     0.632204833252    12.000000000000
         C           -1.966147639273     0.136449741061     0.188525833252    12.000000000000
         H            2.707965360727     0.956908741061    -1.197210166748     1.007825032230
         H            2.066245360727     1.688811741061     0.262858833252     1.007825032230
         H           -0.987519639273    -1.405711258939    -0.927050166748     1.007825032230
         H           -1.725727639273    -0.136491258939    -1.912944166748     1.007825032230
         H            0.105749360727     1.335460741061    -1.204310166748     1.007825032230
         H            3.779550360727    -0.862451258939     0.186644833252     1.007825032230
         H            4.351215360727     0.744503741061     0.676593833252     1.007825032230
         H            3.142248360727    -0.116595258939     1.648542833252     1.007825032230
         H           -3.555591639273    -0.283509258939     1.109190833252     1.007825032230

  Basis Set: AUG-CC-PVTZ
    Blend: AUG-CC-PVTZ
  Basis Set: (AUG-CC-PVTZ AUX)
    Blend: AUG-CC-PVTZ-JKFIT
	 Reference Energy          =    -473.8279265183361986 [Eh]
	 Singles Energy            =      -0.0000000000000000 [Eh]
	 Same-Spin Energy          =      -0.4675245048191259 [Eh]
	 Opposite-Spin Energy      =      -1.4580031809714820 [Eh]
	 Correlation Energy        =      -1.9255276857906078 [Eh]
	 Total Energy              =    -475.7534542041267969 [Eh]

	 ================> DF-SCS-MP2 Energies <==================
	-----------------------------------------------------------
	 SCS Same-Spin Scale       =       0.3333333333333333 [-]
	 SCS Opposite-Spin Scale   =       1.2000000000000000 [-]
	 SCS Same-Spin Energy      =      -0.1558415016063753 [Eh]
	 SCS Opposite-Spin Energy  =      -1.7496038171657784 [Eh]
	 SCS Correlation Energy    =      -1.9054453187721536 [Eh]
	 SCS Total Energy          =    -475.7333718371083364 [Eh]
	-----------------------------------------------------------

  Dipole Moment: [D]
     X:    -0.6175      Y:     1.9019      Z:    -1.7434     Total:     2.6530

*** Psi4 exiting successfully. Buy a developer a beer!
