                               Psi4 1.3.2 release

  ==> Input File <==

--------------------------------------------------------------------------
#psi4
#
memory 32 gb

molecule  {
0 1
  O        1.0830410    -1.2590340     0.2697030
  O       -3.0460190    -0.6564700     0.3579990
  O       -1.7208190     1.1319200     0.8547670
  N        0.1334480     0.3363350    -1.0591540
  C        2.3767950     0.7348440    -0.1800510
  C        1.1530800    -0.1541890    -0.2667860
  C       -1.1420340    -0.3248900    -0.9988550
  C        3.4883670     0.0910310     0.6318210
  C       -1.9483142     0.1368419     0.1962422
  H        2.7160870     0.9611190    -1.1975940
  H        2.0743670     1.6930220     0.2624750
  H       -0.9793980    -1.4015010    -0.9274340
  H       -1.7104642    -0.1359549    -1.9185467
  H        0.1138710     1.3396710    -1.2046940
  H        3.7876720    -0.8582410     0.1862610
  H        4.3593370     0.7487140     0.6762100
  H        3.1503700    -0.1123850     1.6481590
  H       -3.5474700    -0.2792990     1.1088070
units angstrom
no_reorient  #important for SAPT in psi4, default
symmetry c1  #important for SAPT in psi4, default
}

set PROPERTIES_ORIGIN ["COM"]
properties('MP2/aug-cc-pvtz', properties = ['dipole'])
--------------------------------------------------------------------------

    Molecular point group: c1
  Charge       = 0
  Multiplicity = 1
  Basis Set: AUG-CC-PVTZ
    Blend: AUG-CC-PVTZ
  Basis Set: (AUG-CC-PVTZ AUX)
    Blend: AUG-CC-PVTZ-JKFIT

    Orbital Energies [Eh]
    ---------------------

    Doubly Occupied:

       1A    -20.624229     2A    -20.563949     3A    -20.528945
       4A    -15.592773     5A    -11.399050     6A    -11.356171
       7A    -11.290917     8A    -11.244324     9A    -11.216576
      10A     -1.467567    11A     -1.385032    12A     -1.369597
      13A     -1.242085    14A     -1.063575    15A     -1.005813
      16A     -0.889487    17A     -0.823817    18A     -0.785687
      19A     -0.716259    20A     -0.712661    21A     -0.698637
      22A     -0.652600    23A     -0.643938    24A     -0.636968
      25A     -0.604717    26A     -0.599906    27A     -0.559028
      28A     -0.540885    29A     -0.525265    30A     -0.517529
      31A     -0.495978    32A     -0.492422    33A     -0.469854
      34A     -0.434147    35A     -0.410352

  @DF-RHF Final Energy:  -473.83946715823464

   => Energetics <=

    Nuclear Repulsion Energy =            458.0869567084416758
    One-Electron Energy =               -1556.7313626882983044
    Two-Electron Energy =                 624.8049388216220450
    Total Energy =                       -473.8394671582345836
  Basis Set: (AUG-CC-PVTZ AUX)
    Blend: AUG-CC-PVTZ-RI
    Molecular point group: c1

    Geometry (in Angstrom), charge = 0, multiplicity = 1:

       Center              X                  Y                   Z               Mass
    ------------   -----------------  -----------------  -----------------  -----------------
         O            1.082096895635    -1.258656028288     0.269001333705    15.994914619570
         O           -3.046963104365    -0.656092028288     0.357297333705    15.994914619570
         O           -1.721763104365     1.132297971712     0.854065333705    15.994914619570
         N            0.132503895635     0.336712971712    -1.059855666295    14.003074004430
         C            2.375850895635     0.735221971712    -0.180752666295    12.000000000000
         C            1.152135895635    -0.153811028288    -0.267487666295    12.000000000000
         C           -1.142978104365    -0.324512028288    -0.999556666295    12.000000000000
         C            3.487422895635     0.091408971712     0.631119333705    12.000000000000
         C           -1.949258304365     0.137219871712     0.195540533705    12.000000000000
         H            2.715142895635     0.961496971712    -1.198295666295     1.007825032230
         H            2.073422895635     1.693399971712     0.261773333705     1.007825032230
         H           -0.980342104365    -1.401123028288    -0.928135666295     1.007825032230
         H           -1.711408304365    -0.135576928288    -1.919248366295     1.007825032230
         H            0.112926895635     1.340048971712    -1.205395666295     1.007825032230
         H            3.786727895635    -0.857863028288     0.185559333705     1.007825032230
         H            4.358392895635     0.749091971712     0.675508333705     1.007825032230
         H            3.149425895635    -0.112007028288     1.647457333705     1.007825032230
         H           -3.548414104365    -0.278921028288     1.108105333705     1.007825032230

  Basis Set: AUG-CC-PVTZ
    Blend: AUG-CC-PVTZ
  Basis Set: (AUG-CC-PVTZ AUX)
    Blend: AUG-CC-PVTZ-JKFIT
	 Reference Energy          =    -473.8394671582346405 [Eh]
	 Singles Energy            =      -0.0000000000000000 [Eh]
	 Same-Spin Energy          =      -0.4667289099476076 [Eh]
	 Opposite-Spin Energy      =      -1.4577765557575417 [Eh]
	 Correlation Energy        =      -1.9245054657051492 [Eh]
	 Total Energy              =    -475.7639726239397646 [Eh]

	 ================> DF-SCS-MP2 Energies <==================
	-----------------------------------------------------------
	 SCS Same-Spin Scale       =       0.3333333333333333 [-]
	 SCS Opposite-Spin Scale   =       1.2000000000000000 [-]
	 SCS Same-Spin Energy      =      -0.1555763033158692 [Eh]
	 SCS Opposite-Spin Energy  =      -1.7493318669090501 [Eh]
	 SCS Correlation Energy    =      -1.9049081702249193 [Eh]
	 SCS Total Energy          =    -475.7443753284595687 [Eh]
	-----------------------------------------------------------

  Dipole Moment: [D]
     X:    -0.9154      Y:     1.8949      Z:    -1.7403     Total:     2.7308

*** Psi4 exiting successfully. Buy a developer a beer!
