                               Psi4 1.3.2 release

  ==> Input File <==

--------------------------------------------------------------------------
#psi4
#
memory 32 gb

molecule  {
0 1
  O        1.0927473    -1.2574983     0.2740253
  O       -3.0460190    -0.6564700     0.3579990
  O       -1.7208190     1.1319200     0.8547670
  N        0.1398126     0.3464005    -1.0610213
  C        2.3767950     0.7348440    -0.1800510
  C        1.1530800    -0.1541890    -0.2667860
  C       -1.1420340    -0.3248900    -0.9988550
  C        3.4883670     0.0910310     0.6318210
  C       -1.9580260     0.1406600     0.1881420
  H        2.7160870     0.9611190    -1.1975940
  H        2.0743670     1.6930220     0.2624750
  H       -0.9793980    -1.4015010    -0.9274340
  H       -1.7176060    -0.1322810    -1.9133280
  H        0.1138710     1.3396710    -1.2046940
  H        3.7876720    -0.8582410     0.1862610
  H        4.3593370     0.7487140     0.6762100
  H        3.1503700    -0.1123850     1.6481590
  H       -3.5474700    -0.2792990     1.1088070
units angstrom
no_reorient  #important for SAPT in psi4, default
symmetry c1  #important for SAPT in psi4, default
}

set PROPERTIES_ORIGIN ["COM"]
properties('MP2/aug-cc-pvtz', properties = ['dipole'])
--------------------------------------------------------------------------

    Molecular point group: c1
  Charge       = 0
  Multiplicity = 1
  Basis Set: AUG-CC-PVTZ
    Blend: AUG-CC-PVTZ
  Basis Set: (AUG-CC-PVTZ AUX)
    Blend: AUG-CC-PVTZ-JKFIT

    Orbital Energies [Eh]
    ---------------------

    Doubly Occupied:

       1A    -20.625990     2A    -20.563351     3A    -20.529348
       4A    -15.593130     5A    -11.399666     6A    -11.356189
       7A    -11.292190     8A    -11.243053     9A    -11.215737
      10A     -1.468998    11A     -1.384579    12A     -1.369028
      13A     -1.241889    14A     -1.062623    15A     -1.006626
      16A     -0.889262    17A     -0.824298    18A     -0.788589
      19A     -0.716473    20A     -0.712500    21A     -0.698005
      22A     -0.652286    23A     -0.644648    24A     -0.636649
      25A     -0.604314    26A     -0.599618    27A     -0.561618
      28A     -0.540470    29A     -0.524102    30A     -0.516761
      31A     -0.495236    32A     -0.491802    33A     -0.469555
      34A     -0.433799    35A     -0.411390

  @DF-RHF Final Energy:  -473.83961447427043

   => Energetics <=

    Nuclear Repulsion Energy =            457.8395976249062187
    One-Electron Energy =               -1556.2308799841155178
    Two-Electron Energy =                 624.5516678849388654
    Total Energy =                       -473.8396144742704337
  Basis Set: (AUG-CC-PVTZ AUX)
    Blend: AUG-CC-PVTZ-RI
    Molecular point group: c1

    Geometry (in Angstrom), charge = 0, multiplicity = 1:

       Center              X                  Y                   Z               Mass
    ------------   -----------------  -----------------  -----------------  -----------------
         O            1.090882718473    -1.258761058203     0.273697177429    15.994914619570
         O           -3.047883581527    -0.657732758203     0.357670877429    15.994914619570
         O           -1.722683581527     1.130657241797     0.854438877429    15.994914619570
         N            0.137948018473     0.345137741797    -1.061349422571    14.003074004430
         C            2.374930418473     0.733581241797    -0.180379122571    12.000000000000
         C            1.151215418473    -0.155451758203    -0.267114122571    12.000000000000
         C           -1.143898581527    -0.326152758203    -0.999183122571    12.000000000000
         C            3.486502418473     0.089768241797     0.631492877429    12.000000000000
         C           -1.959890581527     0.139397241797     0.187813877429    12.000000000000
         H            2.714222418473     0.959856241797    -1.197922122571     1.007825032230
         H            2.072502418473     1.691759241797     0.262146877429     1.007825032230
         H           -0.981262581527    -1.402763758203    -0.927762122571     1.007825032230
         H           -1.719470581527    -0.133543758203    -1.913656122571     1.007825032230
         H            0.112006418473     1.338408241797    -1.205022122571     1.007825032230
         H            3.785807418473    -0.859503758203     0.185932877429     1.007825032230
         H            4.357472418473     0.747451241797     0.675881877429     1.007825032230
         H            3.148505418473    -0.113647758203     1.647830877429     1.007825032230
         H           -3.549334581527    -0.280561758203     1.108478877429     1.007825032230

  Basis Set: AUG-CC-PVTZ
    Blend: AUG-CC-PVTZ
  Basis Set: (AUG-CC-PVTZ AUX)
    Blend: AUG-CC-PVTZ-JKFIT
	 Reference Energy          =    -473.8396144742704337 [Eh]
	 Singles Energy            =      -0.0000000000000000 [Eh]
	 Same-Spin Energy          =      -0.4666471648224833 [Eh]
	 Opposite-Spin Energy      =      -1.4576766424562941 [Eh]
	 Correlation Energy        =      -1.9243238072787774 [Eh]
	 Total Energy              =    -475.7639382815492013 [Eh]

	 ================> DF-SCS-MP2 Energies <==================
	-----------------------------------------------------------
	 SCS Same-Spin Scale       =       0.3333333333333333 [-]
	 SCS Opposite-Spin Scale   =       1.2000000000000000 [-]
	 SCS Same-Spin Energy      =      -0.1555490549408278 [Eh]
	 SCS Opposite-Spin Energy  =      -1.7492119709475529 [Eh]
	 SCS Correlation Energy    =      -1.9047610258883807 [Eh]
	 SCS Total Energy          =    -475.7443755001588102 [Eh]
	-----------------------------------------------------------

  Dipole Moment: [D]
     X:    -1.0118      Y:     1.8560      Z:    -1.7531     Total:     2.7462

*** Psi4 exiting successfully. Buy a developer a beer!
