                               Psi4 1.3.2 release

  ==> Input File <==

--------------------------------------------------------------------------
#psi4
#
memory 32 gb

molecule  {
0 1
  O        1.0830410    -1.2590340     0.2697030
  O       -3.0460190    -0.6564700     0.3579990
  O       -1.7208190     1.1319200     0.8547670
  N        0.1334480     0.3363350    -1.0591540
  C        2.3767950     0.7348440    -0.1800510
  C        1.1530800    -0.1541890    -0.2667860
  C       -1.1420340    -0.3248900    -0.9988550
  C        3.4883670     0.0910310     0.6318210
  C       -2.0119301     0.1714141     0.2665546
  H        2.7160870     0.9611190    -1.1975940
  H        2.0743670     1.6930220     0.2624750
  H       -0.9793980    -1.4015010    -0.9274340
  H       -1.7176060    -0.1322810    -1.9133280
  H        0.1138710     1.3396710    -1.2046940
  H        3.7876720    -0.8582410     0.1862610
  H        4.3593370     0.7487140     0.6762100
  H        3.1503700    -0.1123850     1.6481590
  H       -3.5474700    -0.2792990     1.1088070
units angstrom
no_reorient  #important for SAPT in psi4, default
symmetry c1  #important for SAPT in psi4, default
}

set PROPERTIES_ORIGIN ["COM"]
properties('MP2/aug-cc-pvtz', properties = ['dipole'])
--------------------------------------------------------------------------

    Molecular point group: c1
  Charge       = 0
  Multiplicity = 1
  Basis Set: AUG-CC-PVTZ
    Blend: AUG-CC-PVTZ
  Basis Set: (AUG-CC-PVTZ AUX)
    Blend: AUG-CC-PVTZ-JKFIT

    Orbital Energies [Eh]
    ---------------------

    Doubly Occupied:

       1A    -20.634565     2A    -20.568416     3A    -20.524865
       4A    -15.587642     5A    -11.392746     6A    -11.351950
       7A    -11.282420     8A    -11.241861     9A    -11.214811
      10A     -1.494665    11A     -1.406660    12A     -1.379881
      13A     -1.234145    14A     -1.058224    15A     -0.982812
      16A     -0.884756    17A     -0.826495    18A     -0.780305
      19A     -0.730896    20A     -0.711897    21A     -0.696552
      22A     -0.659964    23A     -0.645123    24A     -0.636373
      25A     -0.609670    26A     -0.598503    27A     -0.554755
      28A     -0.539100    29A     -0.522307    30A     -0.515428
      31A     -0.513070    32A     -0.493264    33A     -0.464122
      34A     -0.429221    35A     -0.397555

  @DF-RHF Final Energy:  -473.83219398134565

   => Energetics <=

    Nuclear Repulsion Energy =            457.9194315425201012
    One-Electron Energy =               -1556.3732158824402632
    Two-Electron Energy =                 624.6215903585746219
    Total Energy =                       -473.8321939813456538
  Basis Set: (AUG-CC-PVTZ AUX)
    Blend: AUG-CC-PVTZ-RI
    Molecular point group: c1

    Geometry (in Angstrom), charge = 0, multiplicity = 1:

       Center              X                  Y                   Z               Mass
    ------------   -----------------  -----------------  -----------------  -----------------
         O            1.087976636324    -1.261849791902     0.262523234228    15.994914619570
         O           -3.041083363676    -0.659285791902     0.350819234228    15.994914619570
         O           -1.715883363676     1.129104208098     0.847587234228    15.994914619570
         N            0.138383636324     0.333519208098    -1.066333765772    14.003074004430
         C            2.381730636324     0.732028208098    -0.187230765772    12.000000000000
         C            1.158015636324    -0.157004791902    -0.273965765772    12.000000000000
         C           -1.137098363676    -0.327705791902    -1.006034765772    12.000000000000
         C            3.493302636324     0.088215208098     0.624641234228    12.000000000000
         C           -2.006994463676     0.168598308098     0.259374834228    12.000000000000
         H            2.721022636324     0.958303208098    -1.204773765772     1.007825032230
         H            2.079302636324     1.690206208098     0.255295234228     1.007825032230
         H           -0.974462363676    -1.404316791902    -0.934613765772     1.007825032230
         H           -1.712670363676    -0.135096791902    -1.920507765772     1.007825032230
         H            0.118806636324     1.336855208098    -1.211873765772     1.007825032230
         H            3.792607636324    -0.861056791902     0.179081234228     1.007825032230
         H            4.364272636324     0.745898208098     0.669030234228     1.007825032230
         H            3.155305636324    -0.115200791902     1.640979234228     1.007825032230
         H           -3.542534363676    -0.282114791902     1.101627234228     1.007825032230

  Basis Set: AUG-CC-PVTZ
    Blend: AUG-CC-PVTZ
  Basis Set: (AUG-CC-PVTZ AUX)
    Blend: AUG-CC-PVTZ-JKFIT
	 Reference Energy          =    -473.8321939813456538 [Eh]
	 Singles Energy            =      -0.0000000000000000 [Eh]
	 Same-Spin Energy          =      -0.4657447720562884 [Eh]
	 Opposite-Spin Energy      =      -1.4555732796321910 [Eh]
	 Correlation Energy        =      -1.9213180516884794 [Eh]
	 Total Energy              =    -475.7535120330341556 [Eh]

	 ================> DF-SCS-MP2 Energies <==================
	-----------------------------------------------------------
	 SCS Same-Spin Scale       =       0.3333333333333333 [-]
	 SCS Opposite-Spin Scale   =       1.2000000000000000 [-]
	 SCS Same-Spin Energy      =      -0.1552482573520961 [Eh]
	 SCS Opposite-Spin Energy  =      -1.7466879355586291 [Eh]
	 SCS Correlation Energy    =      -1.9019361929107252 [Eh]
	 SCS Total Energy          =    -475.7341301742563928 [Eh]
	-----------------------------------------------------------

  Dipole Moment: [D]
     X:    -1.3476      Y:     2.0313      Z:    -1.3521     Total:     2.7876

*** Psi4 exiting successfully. Buy a developer a beer!
