                               Psi4 1.3.2 release

  ==> Input File <==

--------------------------------------------------------------------------
#psi4
#
memory 32 gb

molecule  {
0 1
  O        1.0830410    -1.2590340     0.2697030
  O       -3.0460190    -0.6564700     0.3579990
  O       -1.7208190     1.1319200     0.8547670
  N        0.1334480     0.3363350    -1.0591540
  C        2.3767950     0.7348440    -0.1800510
  C        1.1229027    -0.1880166    -0.2503616
  C       -1.1228900    -0.3568458    -0.9652169
  C        3.4883670     0.0910310     0.6318210
  C       -1.9580260     0.1406600     0.1881420
  H        2.7160870     0.9611190    -1.1975940
  H        2.0743670     1.6930220     0.2624750
  H       -0.9793980    -1.4015010    -0.9274340
  H       -1.7176060    -0.1322810    -1.9133280
  H        0.1138710     1.3396710    -1.2046940
  H        3.7876720    -0.8582410     0.1862610
  H        4.3593370     0.7487140     0.6762100
  H        3.1503700    -0.1123850     1.6481590
  H       -3.5474700    -0.2792990     1.1088070
units angstrom
no_reorient  #important for SAPT in psi4, default
symmetry c1  #important for SAPT in psi4, default
}

set PROPERTIES_ORIGIN ["COM"]
properties('MP2/aug-cc-pvtz', properties = ['dipole'])
--------------------------------------------------------------------------

    Molecular point group: c1
  Charge       = 0
  Multiplicity = 1
  Basis Set: AUG-CC-PVTZ
    Blend: AUG-CC-PVTZ
  Basis Set: (AUG-CC-PVTZ AUX)
    Blend: AUG-CC-PVTZ-JKFIT

    Orbital Energies [Eh]
    ---------------------

    Doubly Occupied:

       1A    -20.625663     2A    -20.563644     3A    -20.534450
       4A    -15.591085     5A    -11.399388     6A    -11.352388
       7A    -11.291061     8A    -11.240878     9A    -11.214136
      10A     -1.469170    11A     -1.410208    12A     -1.369683
      13A     -1.246269    14A     -1.055082    15A     -1.005067
      16A     -0.882378    17A     -0.822248    18A     -0.791521
      19A     -0.717127    20A     -0.714620    21A     -0.695911
      22A     -0.654267    23A     -0.648300    24A     -0.633872
      25A     -0.608798    26A     -0.602385    27A     -0.563544
      28A     -0.546440    29A     -0.523345    30A     -0.516033
      31A     -0.495111    32A     -0.492631    33A     -0.471697
      34A     -0.430877    35A     -0.412400

  @DF-RHF Final Energy:  -473.83644752874375

   => Energetics <=

    Nuclear Repulsion Energy =            458.8007045051813293
    One-Electron Energy =               -1558.0909501855760482
    Two-Electron Energy =                 625.4537981516509717
    Total Energy =                       -473.8364475287437472
  Basis Set: (AUG-CC-PVTZ AUX)
    Blend: AUG-CC-PVTZ-RI
    Molecular point group: c1

    Geometry (in Angstrom), charge = 0, multiplicity = 1:

       Center              X                  Y                   Z               Mass
    ------------   -----------------  -----------------  -----------------  -----------------
         O            1.084051285368    -1.253010592077     0.265119035849    15.994914619570
         O           -3.045008714632    -0.650446592077     0.353415035849    15.994914619570
         O           -1.719808714632     1.137943407923     0.850183035849    15.994914619570
         N            0.134458285368     0.342358407923    -1.063737964151    14.003074004430
         C            2.377805285368     0.740867407923    -0.184634964151    12.000000000000
         C            1.123912985368    -0.181993192077    -0.254945564151    12.000000000000
         C           -1.121879714632    -0.350822392077    -0.969800864151    12.000000000000
         C            3.489377285368     0.097054407923     0.627237035849    12.000000000000
         C           -1.957015714632     0.146683407923     0.183558035849    12.000000000000
         H            2.717097285368     0.967142407923    -1.202177964151     1.007825032230
         H            2.075377285368     1.699045407923     0.257891035849     1.007825032230
         H           -0.978387714632    -1.395477592077    -0.932017964151     1.007825032230
         H           -1.716595714632    -0.126257592077    -1.917911964151     1.007825032230
         H            0.114881285368     1.345694407923    -1.209277964151     1.007825032230
         H            3.788682285368    -0.852217592077     0.181677035849     1.007825032230
         H            4.360347285368     0.754737407923     0.671626035849     1.007825032230
         H            3.151380285368    -0.106361592077     1.643575035849     1.007825032230
         H           -3.546459714632    -0.273275592077     1.104223035849     1.007825032230

  Basis Set: AUG-CC-PVTZ
    Blend: AUG-CC-PVTZ
  Basis Set: (AUG-CC-PVTZ AUX)
    Blend: AUG-CC-PVTZ-JKFIT
	 Reference Energy          =    -473.8364475287437472 [Eh]
	 Singles Energy            =      -0.0000000000000000 [Eh]
	 Same-Spin Energy          =      -0.4659088438919654 [Eh]
	 Opposite-Spin Energy      =      -1.4561156955656605 [Eh]
	 Correlation Energy        =      -1.9220245394576259 [Eh]
	 Total Energy              =    -475.7584720682013995 [Eh]

	 ================> DF-SCS-MP2 Energies <==================
	-----------------------------------------------------------
	 SCS Same-Spin Scale       =       0.3333333333333333 [-]
	 SCS Opposite-Spin Scale   =       1.2000000000000000 [-]
	 SCS Same-Spin Energy      =      -0.1553029479639885 [Eh]
	 SCS Opposite-Spin Energy  =      -1.7473388346787926 [Eh]
	 SCS Correlation Energy    =      -1.9026417826427811 [Eh]
	 SCS Total Energy          =    -475.7390893113865218 [Eh]
	-----------------------------------------------------------

  Dipole Moment: [D]
     X:    -1.0455      Y:     1.6686      Z:    -1.6675     Total:     2.5802

*** Psi4 exiting successfully. Buy a developer a beer!
