                               Psi4 1.4a3.dev225

  ==> Input File <==

--------------------------------------------------------------------------
#psi4
#
memory 32 gb

molecule  {
0 1
  O        0.8764270    -0.2428500     1.2911470
  O       -3.1675390     0.0980960     0.5443480
  O       -1.5839830     1.3406500    -0.5070920
  N        0.0834400    -0.8734940    -0.7544630
  C        2.2681300     0.2178930    -0.6380450
  C        1.0330250    -0.3000120     0.0721840
  C       -1.2394860    -1.0499030    -0.2084880
  C        3.4385850     0.4137260     0.3159750
  C       -1.9883195     0.2867908    -0.0834948
  H        2.5310470    -0.4685700    -1.4513520
  H        1.9929790     1.1708880    -1.1091590
  H       -1.1549390    -1.4972460     0.7835340
  H       -1.8230450    -1.7308360    -0.8360530
  H        0.1282230    -0.6025030    -1.7308050
  H        3.7379630    -0.5375510     0.7615240
  H        4.2975370     0.8343390    -0.2133880
  H        3.1581410     1.0869690     1.1269820
  H       -3.5812870     0.9851770     0.5837010
units angstrom
no_reorient  #important for SAPT in psi4, default
symmetry c1  #important for SAPT in psi4, default
}

set PROPERTIES_ORIGIN ["COM"]
properties('MP2/aug-cc-pvtz', properties = ['dipole'])
--------------------------------------------------------------------------

    Molecular point group: c1
  Charge       = 0
  Multiplicity = 1
  Basis Set: AUG-CC-PVTZ
    Blend: AUG-CC-PVTZ
  Basis Set: (AUG-CC-PVTZ AUX)
    Blend: AUG-CC-PVTZ-JKFIT

    Orbital Energies [Eh]
    ---------------------

    Doubly Occupied:

       1A    -20.626387     2A    -20.561789     3A    -20.526925
       4A    -15.592438     5A    -11.396088     6A    -11.354477
       7A    -11.290596     8A    -11.243327     9A    -11.217142
      10A     -1.474392    11A     -1.383586    12A     -1.373614
      13A     -1.239529    14A     -1.060961    15A     -1.000084
      16A     -0.888072    17A     -0.824995    18A     -0.783392
      19A     -0.717974    20A     -0.710192    21A     -0.698144
      22A     -0.652467    23A     -0.647956    24A     -0.630095
      25A     -0.604969    26A     -0.599449    27A     -0.558090
      28A     -0.543769    29A     -0.523386    30A     -0.514758
      31A     -0.496857    32A     -0.491678    33A     -0.468767
      34A     -0.431635    35A     -0.409131

  @DF-RHF Final Energy:  -473.84059289691305

   => Energetics <=

    Nuclear Repulsion Energy =            460.4485280951381014
    One-Electron Energy =               -1561.5040232083201772
    Two-Electron Energy =                 627.2149022162691381
    Total Energy =                       -473.8405928969129945
  Basis Set: (AUG-CC-PVTZ AUX)
    Blend: AUG-CC-PVTZ-RI
    Molecular point group: c1

    Geometry (in Angstrom), charge = 0, multiplicity = 1:

       Center              X                  Y                   Z               Mass
    ------------   -----------------  -----------------  -----------------  -----------------
         O            0.947470956151    -0.250123987971     1.275282798136    15.994914619570
         O           -3.096495043849     0.090822012029     0.528483798136    15.994914619570
         O           -1.512939043849     1.333376012029    -0.522956201864    15.994914619570
         N            0.154483956151    -0.880767987971    -0.770327201864    14.003074004430
         C            2.339173956151     0.210619012029    -0.653909201864    12.000000000000
         C            1.104068956151    -0.307285987971     0.056319798136    12.000000000000
         C           -1.168442043849    -1.057176987971    -0.224352201864    12.000000000000
         C            3.509628956151     0.406452012029     0.300110798136    12.000000000000
         C           -1.917275543849     0.279516812029    -0.099359001864    12.000000000000
         H            2.602090956151    -0.475843987971    -1.467216201864     1.007825032230
         H            2.064022956151     1.163614012029    -1.125023201864     1.007825032230
         H           -1.083895043849    -1.504519987971     0.767669798136     1.007825032230
         H           -1.752001043849    -1.738109987971    -0.851917201864     1.007825032230
         H            0.199266956151    -0.609776987971    -1.746669201864     1.007825032230
         H            3.809006956151    -0.544824987971     0.745659798136     1.007825032230
         H            4.368580956151     0.827065012029    -0.229252201864     1.007825032230
         H            3.229184956151     1.079695012029     1.111117798136     1.007825032230
         H           -3.510243043849     0.977903012029     0.567836798136     1.007825032230

  Basis Set: AUG-CC-PVTZ
    Blend: AUG-CC-PVTZ
  Basis Set: (AUG-CC-PVTZ AUX)
    Blend: AUG-CC-PVTZ-JKFIT
	 Reference Energy          =    -473.8405928969130514 [Eh]
	 Singles Energy            =      -0.0000000000000000 [Eh]
	 Same-Spin Energy          =      -0.4665206813169405 [Eh]
	 Opposite-Spin Energy      =      -1.4573486102583246 [Eh]
	 Correlation Energy        =      -1.9238692915752651 [Eh]
	 Total Energy              =    -475.7644621884883236 [Eh]

	 ================> DF-SCS-MP2 Energies <==================
	-----------------------------------------------------------
	 SCS Same-Spin Scale       =       0.3333333333333333 [-]
	 SCS Opposite-Spin Scale   =       1.2000000000000000 [-]
	 SCS Same-Spin Energy      =      -0.1555068937723135 [Eh]
	 SCS Opposite-Spin Energy  =      -1.7488183323099895 [Eh]
	 SCS Correlation Energy    =      -1.9043252260823029 [Eh]
	 SCS Total Energy          =    -475.7449181229953297 [Eh]
	-----------------------------------------------------------

  Dipole Moment: [D]
     X:    -0.9768      Y:    -0.7013      Z:    -2.6558     Total:     2.9154

*** Psi4 exiting successfully. Buy a developer a beer!
