                               Psi4 1.4a3.dev225

  ==> Input File <==

--------------------------------------------------------------------------
#psi4
#
memory 32 gb

molecule  {
0 1
  O        0.8764270    -0.2428500     1.2911470
  O       -3.1675390     0.0980960     0.5443480
  O       -1.5839830     1.3406500    -0.5070920
  N        0.0834400    -0.8734940    -0.7544630
  C        2.2681300     0.2178930    -0.6380450
  C        1.0266608    -0.2976889     0.1217229
  C       -1.2394860    -1.0499030    -0.2084880
  C        3.4385850     0.4137260     0.3159750
  C       -1.9785770     0.2694000    -0.0851210
  H        2.5310470    -0.4685700    -1.4513520
  H        1.9929790     1.1708880    -1.1091590
  H       -1.1549390    -1.4972460     0.7835340
  H       -1.8230450    -1.7308360    -0.8360530
  H        0.1282230    -0.6025030    -1.7308050
  H        3.7379630    -0.5375510     0.7615240
  H        4.2975370     0.8343390    -0.2133880
  H        3.1581410     1.0869690     1.1269820
  H       -3.5812870     0.9851770     0.5837010
units angstrom
no_reorient  #important for SAPT in psi4, default
symmetry c1  #important for SAPT in psi4, default
}

set PROPERTIES_ORIGIN ["COM"]
properties('MP2/aug-cc-pvtz', properties = ['dipole'])
--------------------------------------------------------------------------

    Molecular point group: c1
  Charge       = 0
  Multiplicity = 1
  Basis Set: AUG-CC-PVTZ
    Blend: AUG-CC-PVTZ
  Basis Set: (AUG-CC-PVTZ AUX)
    Blend: AUG-CC-PVTZ-JKFIT

    Orbital Energies [Eh]
    ---------------------

    Doubly Occupied:

       1A    -20.623705     2A    -20.559966     3A    -20.537223
       4A    -15.586298     5A    -11.395987     6A    -11.353008
       7A    -11.288694     8A    -11.241719     9A    -11.216507
      10A     -1.468226    11A     -1.416841    12A     -1.366512
      13A     -1.235935    14A     -1.056637    15A     -0.999713
      16A     -0.883271    17A     -0.820636    18A     -0.781526
      19A     -0.714516    20A     -0.710323    21A     -0.700546
      22A     -0.653644    23A     -0.646616    24A     -0.629999
      25A     -0.612052    26A     -0.599417    27A     -0.558412
      28A     -0.552083    29A     -0.527195    30A     -0.515647
      31A     -0.496097    32A     -0.489836    33A     -0.469469
      34A     -0.432732    35A     -0.410202

  @DF-RHF Final Energy:  -473.83949087888311

   => Energetics <=

    Nuclear Repulsion Energy =            460.7513382275835738
    One-Electron Energy =               -1562.0792815847753445
    Two-Electron Energy =                 627.4884524783086590
    Total Energy =                       -473.8394908788831117
  Basis Set: (AUG-CC-PVTZ AUX)
    Blend: AUG-CC-PVTZ-RI
    Molecular point group: c1

    Geometry (in Angstrom), charge = 0, multiplicity = 1:

       Center              X                  Y                   Z               Mass
    ------------   -----------------  -----------------  -----------------  -----------------
         O            0.947161631083    -0.248744354034     1.270895798996    15.994914619570
         O           -3.096804368917     0.092201645966     0.524096798996    15.994914619570
         O           -1.513248368917     1.334755645966    -0.527343201004    15.994914619570
         N            0.154174631083    -0.879388354034    -0.774714201004    14.003074004430
         C            2.338864631083     0.211998645966    -0.658296201004    12.000000000000
         C            1.097395431083    -0.303583254034     0.101471698996    12.000000000000
         C           -1.168751368917    -1.055797354034    -0.228739201004    12.000000000000
         C            3.509319631083     0.407831645966     0.295723798996    12.000000000000
         C           -1.907842368917     0.263505645966    -0.105372201004    12.000000000000
         H            2.601781631083    -0.474464354034    -1.471603201004     1.007825032230
         H            2.063713631083     1.164993645966    -1.129410201004     1.007825032230
         H           -1.084204368917    -1.503140354034     0.763282798996     1.007825032230
         H           -1.752310368917    -1.736730354034    -0.856304201004     1.007825032230
         H            0.198957631083    -0.608397354034    -1.751056201004     1.007825032230
         H            3.808697631083    -0.543445354034     0.741272798996     1.007825032230
         H            4.368271631083     0.828444645966    -0.233639201004     1.007825032230
         H            3.228875631083     1.081074645966     1.106730798996     1.007825032230
         H           -3.510552368917     0.979282645966     0.563449798996     1.007825032230

  Basis Set: AUG-CC-PVTZ
    Blend: AUG-CC-PVTZ
  Basis Set: (AUG-CC-PVTZ AUX)
    Blend: AUG-CC-PVTZ-JKFIT
	 Reference Energy          =    -473.8394908788831117 [Eh]
	 Singles Energy            =      -0.0000000000000000 [Eh]
	 Same-Spin Energy          =      -0.4657232048058528 [Eh]
	 Opposite-Spin Energy      =      -1.4559140897992440 [Eh]
	 Correlation Energy        =      -1.9216372946050968 [Eh]
	 Total Energy              =    -475.7611281734882027 [Eh]

	 ================> DF-SCS-MP2 Energies <==================
	-----------------------------------------------------------
	 SCS Same-Spin Scale       =       0.3333333333333333 [-]
	 SCS Opposite-Spin Scale   =       1.2000000000000000 [-]
	 SCS Same-Spin Energy      =      -0.1552410682686176 [Eh]
	 SCS Opposite-Spin Energy  =      -1.7470969077590928 [Eh]
	 SCS Correlation Energy    =      -1.9023379760277104 [Eh]
	 SCS Total Energy          =    -475.7418288549108070 [Eh]
	-----------------------------------------------------------

  Dipole Moment: [D]
     X:    -0.8335      Y:    -0.7368      Z:    -2.3603     Total:     2.6093

*** Psi4 exiting successfully. Buy a developer a beer!
