                               Psi4 1.3.2 release

  ==> Input File <==

--------------------------------------------------------------------------
#psi4
#
memory 32 gb

molecule  {
0 1
  O        1.0830410    -1.2590340     0.2697030
  O       -3.0460190    -0.6564700     0.3579990
  O       -1.7208190     1.1319200     0.8547670
  N        0.1334480     0.3363350    -1.0591540
  C        2.3767950     0.7348440    -0.1800510
  C        1.1530800    -0.1541890    -0.2667860
  C       -1.1420340    -0.3248900    -0.9988550
  C        3.4883670     0.0910310     0.6318210
  C       -1.9385491     0.2220517     0.2428781
  H        2.7160870     0.9611190    -1.1975940
  H        2.0743670     1.6930220     0.2624750
  H       -0.9793980    -1.4015010    -0.9274340
  H       -1.7176060    -0.1322810    -1.9133280
  H        0.1138710     1.3396710    -1.2046940
  H        3.7876720    -0.8582410     0.1862610
  H        4.3593370     0.7487140     0.6762100
  H        3.1503700    -0.1123850     1.6481590
  H       -3.5474700    -0.2792990     1.1088070
units angstrom
no_reorient  #important for SAPT in psi4, default
symmetry c1  #important for SAPT in psi4, default
}

set PROPERTIES_ORIGIN ["COM"]
properties('MP2/aug-cc-pvtz', properties = ['dipole'])
--------------------------------------------------------------------------

    Molecular point group: c1
  Charge       = 0
  Multiplicity = 1
  Basis Set: AUG-CC-PVTZ
    Blend: AUG-CC-PVTZ
  Basis Set: (AUG-CC-PVTZ AUX)
    Blend: AUG-CC-PVTZ-JKFIT

    Orbital Energies [Eh]
    ---------------------

    Doubly Occupied:

       1A    -20.606637     2A    -20.581154     3A    -20.528119
       4A    -15.590845     5A    -11.389175     6A    -11.355168
       7A    -11.287116     8A    -11.244529     9A    -11.216864
      10A     -1.503837    11A     -1.383712    12A     -1.383223
      13A     -1.240264    14A     -1.061713    15A     -0.989856
      16A     -0.883660    17A     -0.807673    18A     -0.783677
      19A     -0.728257    20A     -0.715614    21A     -0.699588
      22A     -0.655780    23A     -0.645263    24A     -0.637191
      25A     -0.613325    26A     -0.600256    27A     -0.556906
      28A     -0.543508    29A     -0.524731    30A     -0.517815
      31A     -0.516234    32A     -0.496161    33A     -0.471671
      34A     -0.432090    35A     -0.402806

  @DF-RHF Final Energy:  -473.82630581238897

   => Energetics <=

    Nuclear Repulsion Energy =            458.5436705020759973
    One-Electron Energy =               -1557.5511139535117309
    Two-Electron Energy =                 625.1811376390468240
    Total Energy =                       -473.8263058123890232
  Basis Set: (AUG-CC-PVTZ AUX)
    Blend: AUG-CC-PVTZ-RI
    Molecular point group: c1

    Geometry (in Angstrom), charge = 0, multiplicity = 1:

       Center              X                  Y                   Z               Mass
    ------------   -----------------  -----------------  -----------------  -----------------
         O            1.081257699927    -1.266486289275     0.264691110076    15.994914619570
         O           -3.047802300073    -0.663922289275     0.352987110076    15.994914619570
         O           -1.722602300073     1.124467710725     0.849755110076    15.994914619570
         N            0.131664699927     0.328882710725    -1.064165889924    14.003074004430
         C            2.375011699927     0.727391710725    -0.185062889924    12.000000000000
         C            1.151296699927    -0.161641289275    -0.271797889924    12.000000000000
         C           -1.143817300073    -0.332342289275    -1.003866889924    12.000000000000
         C            3.486583699927     0.083578710725     0.626809110076    12.000000000000
         C           -1.940332400073     0.214599410725     0.237866210076    12.000000000000
         H            2.714303699927     0.953666710725    -1.202605889924     1.007825032230
         H            2.072583699927     1.685569710725     0.257463110076     1.007825032230
         H           -0.981181300073    -1.408953289275    -0.932445889924     1.007825032230
         H           -1.719389300073    -0.139733289275    -1.918339889924     1.007825032230
         H            0.112087699927     1.332218710725    -1.209705889924     1.007825032230
         H            3.785888699927    -0.865693289275     0.181249110076     1.007825032230
         H            4.357553699927     0.741261710725     0.671198110076     1.007825032230
         H            3.148586699927    -0.119837289275     1.643147110076     1.007825032230
         H           -3.549253300073    -0.286751289275     1.103795110076     1.007825032230

  Basis Set: AUG-CC-PVTZ
    Blend: AUG-CC-PVTZ
  Basis Set: (AUG-CC-PVTZ AUX)
    Blend: AUG-CC-PVTZ-JKFIT
	 Reference Energy          =    -473.8263058123889664 [Eh]
	 Singles Energy            =      -0.0000000000000000 [Eh]
	 Same-Spin Energy          =      -0.4652387706844329 [Eh]
	 Opposite-Spin Energy      =      -1.4551459764781118 [Eh]
	 Correlation Energy        =      -1.9203847471625448 [Eh]
	 Total Energy              =    -475.7466905595514959 [Eh]

	 ================> DF-SCS-MP2 Energies <==================
	-----------------------------------------------------------
	 SCS Same-Spin Scale       =       0.3333333333333333 [-]
	 SCS Opposite-Spin Scale   =       1.2000000000000000 [-]
	 SCS Same-Spin Energy      =      -0.1550795902281443 [Eh]
	 SCS Opposite-Spin Energy  =      -1.7461751717737342 [Eh]
	 SCS Correlation Energy    =      -1.9012547620018785 [Eh]
	 SCS Total Energy          =    -475.7275605743908500 [Eh]
	-----------------------------------------------------------

  Dipole Moment: [D]
     X:    -0.6765      Y:     2.4768      Z:    -1.4791     Total:     2.9631

*** Psi4 exiting successfully. Buy a developer a beer!
