                               Psi4 1.3.2 release

  ==> Input File <==

--------------------------------------------------------------------------
#psi4
#
memory 32 gb

molecule  {
0 1
  O        1.0830410    -1.2590340     0.2697030
  O       -3.0496752    -0.6495001     0.3668751
  O       -1.7297185     1.1302504     0.8603317
  N        0.1334480     0.3363350    -1.0591540
  C        2.3767950     0.7348440    -0.1800510
  C        1.1530800    -0.1541890    -0.2667860
  C       -1.1420340    -0.3248900    -0.9988550
  C        3.4883670     0.0910310     0.6318210
  C       -1.9580260     0.1406600     0.1881420
  H        2.7160870     0.9611190    -1.1975940
  H        2.0743670     1.6930220     0.2624750
  H       -0.9793980    -1.4015010    -0.9274340
  H       -1.7176060    -0.1322810    -1.9133280
  H        0.1138710     1.3396710    -1.2046940
  H        3.7876720    -0.8582410     0.1862610
  H        4.3593370     0.7487140     0.6762100
  H        3.1503700    -0.1123850     1.6481590
  H       -3.5474700    -0.2792990     1.1088070
units angstrom
no_reorient  #important for SAPT in psi4, default
symmetry c1  #important for SAPT in psi4, default
}

set PROPERTIES_ORIGIN ["COM"]
properties('MP2/aug-cc-pvtz', properties = ['dipole'])
--------------------------------------------------------------------------

    Molecular point group: c1
  Charge       = 0
  Multiplicity = 1
  Basis Set: AUG-CC-PVTZ
    Blend: AUG-CC-PVTZ
  Basis Set: (AUG-CC-PVTZ AUX)
    Blend: AUG-CC-PVTZ-JKFIT

    Orbital Energies [Eh]
    ---------------------

    Doubly Occupied:

       1A    -20.623064     2A    -20.562242     3A    -20.529212
       4A    -15.593529     5A    -11.398912     6A    -11.356543
       7A    -11.292071     8A    -11.244535     9A    -11.216703
      10A     -1.469548    11A     -1.385299    12A     -1.367909
      13A     -1.242570    14A     -1.063903    15A     -1.007030
      16A     -0.890364    17A     -0.826705    18A     -0.786338
      19A     -0.716025    20A     -0.713642    21A     -0.698511
      22A     -0.653573    23A     -0.644545    24A     -0.637200
      25A     -0.604258    26A     -0.599670    27A     -0.560177
      28A     -0.540879    29A     -0.525605    30A     -0.517687
      31A     -0.495469    32A     -0.491145    33A     -0.469236
      34A     -0.434503    35A     -0.410858

  @DF-RHF Final Energy:  -473.84059286561705

   => Energetics <=

    Nuclear Repulsion Energy =            457.9493517826819584
    One-Electron Energy =               -1556.4409754206121761
    Two-Electron Energy =                 624.6510307723131064
    Total Energy =                       -473.8405928656170545
  Basis Set: (AUG-CC-PVTZ AUX)
    Blend: AUG-CC-PVTZ-RI
    Molecular point group: c1

    Geometry (in Angstrom), charge = 0, multiplicity = 1:

       Center              X                  Y                   Z               Mass
    ------------   -----------------  -----------------  -----------------  -----------------
         O            1.084573402465    -1.259680745933     0.267940458050    15.994914619570
         O           -3.048142797535    -0.650146845933     0.365112558050    15.994914619570
         O           -1.728186097535     1.129603654067     0.858569158050    15.994914619570
         N            0.134980402465     0.335688254067    -1.060916541950    14.003074004430
         C            2.378327402465     0.734197254067    -0.181813541950    12.000000000000
         C            1.154612402465    -0.154835745933    -0.268548541950    12.000000000000
         C           -1.140501597535    -0.325536745933    -1.000617541950    12.000000000000
         C            3.489899402465     0.090384254067     0.630058458050    12.000000000000
         C           -1.956493597535     0.140013254067     0.186379458050    12.000000000000
         H            2.717619402465     0.960472254067    -1.199356541950     1.007825032230
         H            2.075899402465     1.692375254067     0.260712458050     1.007825032230
         H           -0.977865597535    -1.402147745933    -0.929196541950     1.007825032230
         H           -1.716073597535    -0.132927745933    -1.915090541950     1.007825032230
         H            0.115403402465     1.339024254067    -1.206456541950     1.007825032230
         H            3.789204402465    -0.858887745933     0.184498458050     1.007825032230
         H            4.360869402465     0.748067254067     0.674447458050     1.007825032230
         H            3.151902402465    -0.113031745933     1.646396458050     1.007825032230
         H           -3.545937597535    -0.279945745933     1.107044458050     1.007825032230

  Basis Set: AUG-CC-PVTZ
    Blend: AUG-CC-PVTZ
  Basis Set: (AUG-CC-PVTZ AUX)
    Blend: AUG-CC-PVTZ-JKFIT
	 Reference Energy          =    -473.8405928656170545 [Eh]
	 Singles Energy            =      -0.0000000000000000 [Eh]
	 Same-Spin Energy          =      -0.4664903440932514 [Eh]
	 Opposite-Spin Energy      =      -1.4572037194320222 [Eh]
	 Correlation Energy        =      -1.9236940635252737 [Eh]
	 Total Energy              =    -475.7642869291423153 [Eh]

	 ================> DF-SCS-MP2 Energies <==================
	-----------------------------------------------------------
	 SCS Same-Spin Scale       =       0.3333333333333333 [-]
	 SCS Opposite-Spin Scale   =       1.2000000000000000 [-]
	 SCS Same-Spin Energy      =      -0.1554967813644171 [Eh]
	 SCS Opposite-Spin Energy  =      -1.7486444633184266 [Eh]
	 SCS Correlation Energy    =      -1.9041412446828438 [Eh]
	 SCS Total Energy          =    -475.7447341102998735 [Eh]
	-----------------------------------------------------------

  Dipole Moment: [D]
     X:    -0.8997      Y:     1.8710      Z:    -1.7811     Total:     2.7354

*** Psi4 exiting successfully. Buy a developer a beer!
