                               Psi4 1.3.2 release

  ==> Input File <==

--------------------------------------------------------------------------
#psi4
#
memory 32 gb

molecule  {
0 1
  O        1.0830410    -1.2590340     0.2697030
  O       -3.0460190    -0.6564700     0.3579990
  O       -1.7208190     1.1319200     0.8547670
  N        0.1334480     0.3363350    -1.0591540
  C        2.3767950     0.7348440    -0.1800510
  C        1.1530800    -0.1541890    -0.2667860
  C       -1.1420340    -0.3248900    -0.9988550
  C        3.4883670     0.0910310     0.6318210
  C       -1.9580260     0.1406600     0.1881420
  H        2.7160870     0.9611190    -1.1975940
  H        2.0743670     1.6930220     0.2624750
  H       -0.9793980    -1.4015010    -0.9274340
  H       -1.6651650    -0.1498298    -1.8300094
  H        0.1138710     1.3396710    -1.2046940
  H        3.7876720    -0.8582410     0.1862610
  H        4.3593370     0.7487140     0.6762100
  H        3.1503700    -0.1123850     1.6481590
  H       -3.5474700    -0.2792990     1.1088070
units angstrom
no_reorient  #important for SAPT in psi4, default
symmetry c1  #important for SAPT in psi4, default
}

set PROPERTIES_ORIGIN ["COM"]
properties('MP2/aug-cc-pvtz', properties = ['dipole'])
--------------------------------------------------------------------------

    Molecular point group: c1
  Charge       = 0
  Multiplicity = 1
  Basis Set: AUG-CC-PVTZ
    Blend: AUG-CC-PVTZ
  Basis Set: (AUG-CC-PVTZ AUX)
    Blend: AUG-CC-PVTZ-JKFIT

    Orbital Energies [Eh]
    ---------------------

    Doubly Occupied:

       1A    -20.625789     2A    -20.562892     3A    -20.528329
       4A    -15.592059     5A    -11.398522     6A    -11.355525
       7A    -11.279304     8A    -11.243889     9A    -11.216234
      10A     -1.468720    11A     -1.384414    12A     -1.368619
      13A     -1.242367    14A     -1.064746    15A     -1.012446
      16A     -0.889427    17A     -0.829334    18A     -0.785198
      19A     -0.717939    20A     -0.712727    21A     -0.705516
      22A     -0.656158    23A     -0.644001    24A     -0.637277
      25A     -0.604147    26A     -0.602548    27A     -0.564980
      28A     -0.541046    29A     -0.525848    30A     -0.517177
      31A     -0.495548    32A     -0.491785    33A     -0.469245
      34A     -0.433598    35A     -0.410399

  @DF-RHF Final Energy:  -473.83435201590567

   => Energetics <=

    Nuclear Repulsion Energy =            458.6007355879505667
    One-Electron Energy =               -1557.7146695330454804
    Two-Electron Energy =                 625.2795819291892485
    Total Energy =                       -473.8343520159056652
  Basis Set: (AUG-CC-PVTZ AUX)
    Blend: AUG-CC-PVTZ-RI
    Molecular point group: c1

    Geometry (in Angstrom), charge = 0, multiplicity = 1:

       Center              X                  Y                   Z               Mass
    ------------   -----------------  -----------------  -----------------  -----------------
         O            1.082637784408    -1.258898925855     0.269062163857    15.994914619570
         O           -3.046422215592    -0.656334925855     0.357358163857    15.994914619570
         O           -1.721222215592     1.132055074145     0.854126163857    15.994914619570
         N            0.133044784408     0.336470074145    -1.059794836143    14.003074004430
         C            2.376391784408     0.734979074145    -0.180691836143    12.000000000000
         C            1.152676784408    -0.154053925855    -0.267426836143    12.000000000000
         C           -1.142437215592    -0.324754925855    -0.999495836143    12.000000000000
         C            3.487963784408     0.091166074145     0.631180163857    12.000000000000
         C           -1.958429215592     0.140795074145     0.187501163857    12.000000000000
         H            2.715683784408     0.961254074145    -1.198234836143     1.007825032230
         H            2.073963784408     1.693157074145     0.261834163857     1.007825032230
         H           -0.979801215592    -1.401365925855    -0.928074836143     1.007825032230
         H           -1.665568215592    -0.149694725855    -1.830650236143     1.007825032230
         H            0.113467784408     1.339806074145    -1.205334836143     1.007825032230
         H            3.787268784408    -0.858105925855     0.185620163857     1.007825032230
         H            4.358933784408     0.748849074145     0.675569163857     1.007825032230
         H            3.149966784408    -0.112249925855     1.647518163857     1.007825032230
         H           -3.547873215592    -0.279163925855     1.108166163857     1.007825032230

  Basis Set: AUG-CC-PVTZ
    Blend: AUG-CC-PVTZ
  Basis Set: (AUG-CC-PVTZ AUX)
    Blend: AUG-CC-PVTZ-JKFIT
	 Reference Energy          =    -473.8343520159056652 [Eh]
	 Singles Energy            =      -0.0000000000000000 [Eh]
	 Same-Spin Energy          =      -0.4666856697256595 [Eh]
	 Opposite-Spin Energy      =      -1.4572202664852865 [Eh]
	 Correlation Energy        =      -1.9239059362109461 [Eh]
	 Total Energy              =    -475.7582579521165940 [Eh]

	 ================> DF-SCS-MP2 Energies <==================
	-----------------------------------------------------------
	 SCS Same-Spin Scale       =       0.3333333333333333 [-]
	 SCS Opposite-Spin Scale   =       1.2000000000000000 [-]
	 SCS Same-Spin Energy      =      -0.1555618899085532 [Eh]
	 SCS Opposite-Spin Energy  =      -1.7486643197823437 [Eh]
	 SCS Correlation Energy    =      -1.9042262096908968 [Eh]
	 SCS Total Energy          =    -475.7385782255965410 [Eh]
	-----------------------------------------------------------

  Dipole Moment: [D]
     X:    -0.9794      Y:     1.8707      Z:    -1.7489     Total:     2.7418

*** Psi4 exiting successfully. Buy a developer a beer!
