                               Psi4 1.3.2 release

  ==> Input File <==

--------------------------------------------------------------------------
#psi4
#
memory 32 gb

molecule  {
0 1
  O        1.0830410    -1.2590340     0.2697030
  O       -3.0667036    -0.6137588     0.4110380
  O       -1.7744633     1.1207745     0.8873793
  N        0.1334480     0.3363350    -1.0591540
  C        2.3767950     0.7348440    -0.1800510
  C        1.1530800    -0.1541890    -0.2667860
  C       -1.1420340    -0.3248900    -0.9988550
  C        3.4883670     0.0910310     0.6318210
  C       -1.9580260     0.1406600     0.1881420
  H        2.7160870     0.9611190    -1.1975940
  H        2.0743670     1.6930220     0.2624750
  H       -0.9793980    -1.4015010    -0.9274340
  H       -1.7176060    -0.1322810    -1.9133280
  H        0.1138710     1.3396710    -1.2046940
  H        3.7876720    -0.8582410     0.1862610
  H        4.3593370     0.7487140     0.6762100
  H        3.1503700    -0.1123850     1.6481590
  H       -3.5474700    -0.2792990     1.1088070
units angstrom
no_reorient  #important for SAPT in psi4, default
symmetry c1  #important for SAPT in psi4, default
}

set PROPERTIES_ORIGIN ["COM"]
properties('MP2/aug-cc-pvtz', properties = ['dipole'])
--------------------------------------------------------------------------

    Molecular point group: c1
  Charge       = 0
  Multiplicity = 1
  Basis Set: AUG-CC-PVTZ
    Blend: AUG-CC-PVTZ
  Basis Set: (AUG-CC-PVTZ AUX)
    Blend: AUG-CC-PVTZ-JKFIT

    Orbital Energies [Eh]
    ---------------------

    Doubly Occupied:

       1A    -20.610083     2A    -20.558560     3A    -20.531370
       4A    -15.596927     5A    -11.398814     6A    -11.358733
       7A    -11.297747     8A    -11.246048     9A    -11.217792
      10A     -1.475297    11A     -1.387415    12A     -1.364447
      13A     -1.245963    14A     -1.065989    15A     -1.011526
      16A     -0.894207    17A     -0.837507    18A     -0.789520
      19A     -0.719817    20A     -0.712527    21A     -0.699164
      22A     -0.656493    23A     -0.645154    24A     -0.638072
      25A     -0.604798    26A     -0.598549    27A     -0.562969
      28A     -0.542682    29A     -0.527195    30A     -0.518958
      31A     -0.496136    32A     -0.487041    33A     -0.467816
      34A     -0.436761    35A     -0.414101

  @DF-RHF Final Energy:  -473.83836304462602

   => Energetics <=

    Nuclear Repulsion Energy =            457.6215991898364450
    One-Electron Energy =               -1555.6875694534596732
    Two-Electron Energy =                 624.2276072189972638
    Total Energy =                       -473.8383630446260213
  Basis Set: (AUG-CC-PVTZ AUX)
    Blend: AUG-CC-PVTZ-RI
    Molecular point group: c1

    Geometry (in Angstrom), charge = 0, multiplicity = 1:

       Center              X                  Y                   Z               Mass
    ------------   -----------------  -----------------  -----------------  -----------------
         O            1.092112470867    -1.262886288907     0.259249620755    15.994914619570
         O           -3.057632129133    -0.617611088907     0.400584620755    15.994914619570
         O           -1.765391829133     1.116922211093     0.876925920755    15.994914619570
         N            0.142519470867     0.332482711093    -1.069607379245    14.003074004430
         C            2.385866470867     0.730991711093    -0.190504379245    12.000000000000
         C            1.162151470867    -0.158041288907    -0.277239379245    12.000000000000
         C           -1.132962529133    -0.328742288907    -1.009308379245    12.000000000000
         C            3.497438470867     0.087178711093     0.621367620755    12.000000000000
         C           -1.948954529133     0.136807711093     0.177688620755    12.000000000000
         H            2.725158470867     0.957266711093    -1.208047379245     1.007825032230
         H            2.083438470867     1.689169711093     0.252021620755     1.007825032230
         H           -0.970326529133    -1.405353288907    -0.937887379245     1.007825032230
         H           -1.708534529133    -0.136133288907    -1.923781379245     1.007825032230
         H            0.122942470867     1.335818711093    -1.215147379245     1.007825032230
         H            3.796743470867    -0.862093288907     0.175807620755     1.007825032230
         H            4.368408470867     0.744861711093     0.665756620755     1.007825032230
         H            3.159441470867    -0.116237288907     1.637705620755     1.007825032230
         H           -3.538398529133    -0.283151288907     1.098353620755     1.007825032230

  Basis Set: AUG-CC-PVTZ
    Blend: AUG-CC-PVTZ
  Basis Set: (AUG-CC-PVTZ AUX)
    Blend: AUG-CC-PVTZ-JKFIT
	 Reference Energy          =    -473.8383630446260213 [Eh]
	 Singles Energy            =      -0.0000000000000000 [Eh]
	 Same-Spin Energy          =      -0.4653755198923193 [Eh]
	 Opposite-Spin Energy      =      -1.4548876517187819 [Eh]
	 Correlation Energy        =      -1.9202631716111012 [Eh]
	 Total Energy              =    -475.7586262162371327 [Eh]

	 ================> DF-SCS-MP2 Energies <==================
	-----------------------------------------------------------
	 SCS Same-Spin Scale       =       0.3333333333333333 [-]
	 SCS Opposite-Spin Scale   =       1.2000000000000000 [-]
	 SCS Same-Spin Energy      =      -0.1551251732974397 [Eh]
	 SCS Opposite-Spin Energy  =      -1.7458651820625382 [Eh]
	 SCS Correlation Energy    =      -1.9009903553599778 [Eh]
	 SCS Total Energy          =    -475.7393533999859869 [Eh]
	-----------------------------------------------------------

  Dipole Moment: [D]
     X:    -0.6408      Y:     1.8448      Z:    -1.9574     Total:     2.7650

*** Psi4 exiting successfully. Buy a developer a beer!
