                               Psi4 1.3.2 release

  ==> Input File <==

--------------------------------------------------------------------------
#psi4
#
memory 32 gb

molecule  {
0 1
  O        1.0830410    -1.2590340     0.2697030
  O       -3.0460190    -0.6564700     0.3579990
  O       -1.7208190     1.1319200     0.8547670
  N        0.1334480     0.3363350    -1.0591540
  C        2.3767950     0.7348440    -0.1800510
  C        1.1530800    -0.1541890    -0.2667860
  C       -1.1420340    -0.3248900    -0.9988550
  C        3.4883670     0.0910310     0.6318210
  C       -1.9580260     0.1406600     0.1881420
  H        2.7160870     0.9611190    -1.1975940
  H        2.0743670     1.6930220     0.2624750
  H       -0.9793980    -1.4015010    -0.9274340
  H       -1.7176060    -0.1322810    -1.9133280
  H        0.1177322     1.1417794    -1.1759886
  H        3.7876720    -0.8582410     0.1862610
  H        4.3593370     0.7487140     0.6762100
  H        3.1503700    -0.1123850     1.6481590
  H       -3.5474700    -0.2792990     1.1088070
units angstrom
no_reorient  #important for SAPT in psi4, default
symmetry c1  #important for SAPT in psi4, default
}

set PROPERTIES_ORIGIN ["COM"]
properties('MP2/aug-cc-pvtz', properties = ['dipole'])
--------------------------------------------------------------------------

    Molecular point group: c1
  Charge       = 0
  Multiplicity = 1
  Basis Set: AUG-CC-PVTZ
    Blend: AUG-CC-PVTZ
  Basis Set: (AUG-CC-PVTZ AUX)
    Blend: AUG-CC-PVTZ-JKFIT

    Orbital Energies [Eh]
    ---------------------

    Doubly Occupied:

       1A    -20.626042     2A    -20.563667     3A    -20.529868
       4A    -15.572207     5A    -11.399786     6A    -11.357149
       7A    -11.291436     8A    -11.245293     9A    -11.217330
      10A     -1.469210    11A     -1.388577    12A     -1.369279
      13A     -1.273333    14A     -1.064767    15A     -1.014592
      16A     -0.896593    17A     -0.836579    18A     -0.820340
      19A     -0.718235    20A     -0.714594    21A     -0.699616
      22A     -0.654805    23A     -0.648563    24A     -0.638034
      25A     -0.608143    26A     -0.602675    27A     -0.566884
      28A     -0.541932    29A     -0.526525    30A     -0.518156
      31A     -0.496262    32A     -0.492453    33A     -0.470161
      34A     -0.435851    35A     -0.414140

  @DF-RHF Final Energy:  -473.79560873058512

   => Energetics <=

    Nuclear Repulsion Energy =            459.4079495631213490
    One-Electron Energy =               -1559.0409646532598344
    Two-Electron Energy =                 625.8374063595534835
    Total Energy =                       -473.7956087305850588
  Basis Set: (AUG-CC-PVTZ AUX)
    Blend: AUG-CC-PVTZ-RI
    Molecular point group: c1

    Geometry (in Angstrom), charge = 0, multiplicity = 1:

       Center              X                  Y                   Z               Mass
    ------------   -----------------  -----------------  -----------------  -----------------
         O            1.083011358304    -1.257512107416     0.269482134007    15.994914619570
         O           -3.046048641696    -0.654948107416     0.357778134007    15.994914619570
         O           -1.720848641696     1.133441892584     0.854546134007    15.994914619570
         N            0.133418358304     0.337856892584    -1.059374865993    14.003074004430
         C            2.376765358304     0.736365892584    -0.180271865993    12.000000000000
         C            1.153050358304    -0.152667107416    -0.267006865993    12.000000000000
         C           -1.142063641696    -0.323368107416    -0.999075865993    12.000000000000
         C            3.488337358304     0.092552892584     0.631600134007    12.000000000000
         C           -1.958055641696     0.142181892584     0.187921134007    12.000000000000
         H            2.716057358304     0.962640892584    -1.197814865993     1.007825032230
         H            2.074337358304     1.694543892584     0.262254134007     1.007825032230
         H           -0.979427641696    -1.399979107416    -0.927654865993     1.007825032230
         H           -1.717635641696    -0.130759107416    -1.913548865993     1.007825032230
         H            0.117702558304     1.143301292584    -1.176209465993     1.007825032230
         H            3.787642358304    -0.856719107416     0.186040134007     1.007825032230
         H            4.359307358304     0.750235892584     0.675989134007     1.007825032230
         H            3.150340358304    -0.110863107416     1.647938134007     1.007825032230
         H           -3.547499641696    -0.277777107416     1.108586134007     1.007825032230

  Basis Set: AUG-CC-PVTZ
    Blend: AUG-CC-PVTZ
  Basis Set: (AUG-CC-PVTZ AUX)
    Blend: AUG-CC-PVTZ-JKFIT
	 Reference Energy          =    -473.7956087305851156 [Eh]
	 Singles Energy            =      -0.0000000000000000 [Eh]
	 Same-Spin Energy          =      -0.4654624710580997 [Eh]
	 Opposite-Spin Energy      =      -1.4551181452610820 [Eh]
	 Correlation Energy        =      -1.9205806163191816 [Eh]
	 Total Energy              =    -475.7161893469042866 [Eh]

	 ================> DF-SCS-MP2 Energies <==================
	-----------------------------------------------------------
	 SCS Same-Spin Scale       =       0.3333333333333333 [-]
	 SCS Opposite-Spin Scale   =       1.2000000000000000 [-]
	 SCS Same-Spin Energy      =      -0.1551541570193666 [Eh]
	 SCS Opposite-Spin Energy  =      -1.7461417743132983 [Eh]
	 SCS Correlation Energy    =      -1.9012959313326649 [Eh]
	 SCS Total Energy          =    -475.6969046619177561 [Eh]
	-----------------------------------------------------------

  Dipole Moment: [D]
     X:    -0.9097      Y:     1.7193      Z:    -1.7027     Total:     2.5851

*** Psi4 exiting successfully. Buy a developer a beer!
