                               Psi4 1.3.2 release

  ==> Input File <==

--------------------------------------------------------------------------
#psi4
#
memory 32 gb

molecule  {
0 1
  O        1.1413327    -1.2485623     0.2950125
  O       -3.0460190    -0.6564700     0.3579990
  O       -1.7208190     1.1319200     0.8547670
  N        0.1727834     0.3961410    -1.0694476
  C        2.3767950     0.7348440    -0.1800510
  C        1.1530800    -0.1541890    -0.2667860
  C       -1.1420340    -0.3248900    -0.9988550
  C        3.4883670     0.0910310     0.6318210
  C       -1.9580260     0.1406600     0.1881420
  H        2.7160870     0.9611190    -1.1975940
  H        2.0743670     1.6930220     0.2624750
  H       -0.9793980    -1.4015010    -0.9274340
  H       -1.7176060    -0.1322810    -1.9133280
  H        0.1138710     1.3396710    -1.2046940
  H        3.7876720    -0.8582410     0.1862610
  H        4.3593370     0.7487140     0.6762100
  H        3.1503700    -0.1123850     1.6481590
  H       -3.5474700    -0.2792990     1.1088070
units angstrom
no_reorient  #important for SAPT in psi4, default
symmetry c1  #important for SAPT in psi4, default
}

set PROPERTIES_ORIGIN ["COM"]
properties('MP2/aug-cc-pvtz', properties = ['dipole'])
--------------------------------------------------------------------------

    Molecular point group: c1
  Charge       = 0
  Multiplicity = 1
  Basis Set: AUG-CC-PVTZ
    Blend: AUG-CC-PVTZ
  Basis Set: (AUG-CC-PVTZ AUX)
    Blend: AUG-CC-PVTZ-JKFIT

    Orbital Energies [Eh]
    ---------------------

    Doubly Occupied:

       1A    -20.628316     2A    -20.565296     3A    -20.532303
       4A    -15.594483     5A    -11.402921     6A    -11.357193
       7A    -11.298349     8A    -11.237176     9A    -11.212028
      10A     -1.471184    11A     -1.383732    12A     -1.371050
      13A     -1.242996    14A     -1.058387    15A     -1.008996
      16A     -0.887912    17A     -0.823518    18A     -0.802544
      19A     -0.718136    20A     -0.710124    21A     -0.696557
      22A     -0.651765    23A     -0.643459    24A     -0.634957
      25A     -0.604294    26A     -0.599407    27A     -0.569819
      28A     -0.540371    29A     -0.518079    30A     -0.513199
      31A     -0.495573    32A     -0.490384    33A     -0.470887
      34A     -0.432154    35A     -0.416680

  @DF-RHF Final Energy:  -473.83136871682518

   => Energetics <=

    Nuclear Repulsion Energy =            456.9555979392258109
    One-Electron Energy =               -1554.4054744856616708
    Two-Electron Energy =                 623.6185078296107349
    Total Energy =                       -473.8313687168251818
  Basis Set: (AUG-CC-PVTZ AUX)
    Blend: AUG-CC-PVTZ-RI
    Molecular point group: c1

    Geometry (in Angstrom), charge = 0, multiplicity = 1:

       Center              X                  Y                   Z               Mass
    ------------   -----------------  -----------------  -----------------  -----------------
         O            1.130015741825    -1.256230229212     0.293023326858    15.994914619570
         O           -3.057335958175    -0.664137929212     0.356009826858    15.994914619570
         O           -1.732135958175     1.124252070788     0.852777826858    15.994914619570
         N            0.161466441825     0.388473070788    -1.071436773142    14.003074004430
         C            2.365478041825     0.727176070788    -0.182040173142    12.000000000000
         C            1.141763041825    -0.161856929212    -0.268775173142    12.000000000000
         C           -1.153350958175    -0.332557929212    -1.000844173142    12.000000000000
         C            3.477050041825     0.083363070788     0.629831826858    12.000000000000
         C           -1.969342958175     0.132992070788     0.186152826858    12.000000000000
         H            2.704770041825     0.953451070788    -1.199583173142     1.007825032230
         H            2.063050041825     1.685354070788     0.260485826858     1.007825032230
         H           -0.990714958175    -1.409168929212    -0.929423173142     1.007825032230
         H           -1.728922958175    -0.139948929212    -1.915317173142     1.007825032230
         H            0.102554041825     1.332003070788    -1.206683173142     1.007825032230
         H            3.776355041825    -0.865908929212     0.184271826858     1.007825032230
         H            4.348020041825     0.741046070788     0.674220826858     1.007825032230
         H            3.139053041825    -0.120052929212     1.646169826858     1.007825032230
         H           -3.558786958175    -0.286966929212     1.106817826858     1.007825032230

  Basis Set: AUG-CC-PVTZ
    Blend: AUG-CC-PVTZ
  Basis Set: (AUG-CC-PVTZ AUX)
    Blend: AUG-CC-PVTZ-JKFIT
	 Reference Energy          =    -473.8313687168251818 [Eh]
	 Singles Energy            =      -0.0000000000000000 [Eh]
	 Same-Spin Energy          =      -0.4664152034872615 [Eh]
	 Opposite-Spin Energy      =      -1.4579429644442414 [Eh]
	 Correlation Energy        =      -1.9243581679315029 [Eh]
	 Total Energy              =    -475.7557268847567116 [Eh]

	 ================> DF-SCS-MP2 Energies <==================
	-----------------------------------------------------------
	 SCS Same-Spin Scale       =       0.3333333333333333 [-]
	 SCS Opposite-Spin Scale   =       1.2000000000000000 [-]
	 SCS Same-Spin Energy      =      -0.1554717344957538 [Eh]
	 SCS Opposite-Spin Energy  =      -1.7495315573330896 [Eh]
	 SCS Correlation Energy    =      -1.9050032918288435 [Eh]
	 SCS Total Energy          =    -475.7363720086540297 [Eh]
	-----------------------------------------------------------

  Dipole Moment: [D]
     X:    -1.3112      Y:     1.7428      Z:    -1.7801     Total:     2.8152

*** Psi4 exiting successfully. Buy a developer a beer!
