                               Psi4 1.3.2 release

  ==> Input File <==

--------------------------------------------------------------------------
#psi4
#
memory 32 gb

molecule  {
0 1
  O        1.0830410    -1.2590340     0.2697030
  O       -3.0460190    -0.6564700     0.3579990
  O       -1.7208190     1.1319200     0.8547670
  N        0.1334480     0.3363350    -1.0591540
  C        2.3767950     0.7348440    -0.1800510
  C        1.1469945    -0.1450016    -0.2740909
  C       -1.1420340    -0.3248900    -0.9988550
  C        3.4959706     0.1016988     0.6297618
  C       -1.9580260     0.1406600     0.1881420
  H        2.7160870     0.9611190    -1.1975940
  H        2.0743670     1.6930220     0.2624750
  H       -0.9793980    -1.4015010    -0.9274340
  H       -1.7176060    -0.1322810    -1.9133280
  H        0.1138710     1.3396710    -1.2046940
  H        3.7876720    -0.8582410     0.1862610
  H        4.3593370     0.7487140     0.6762100
  H        3.1503700    -0.1123850     1.6481590
  H       -3.5474700    -0.2792990     1.1088070
units angstrom
no_reorient  #important for SAPT in psi4, default
symmetry c1  #important for SAPT in psi4, default
}

set PROPERTIES_ORIGIN ["COM"]
properties('MP2/aug-cc-pvtz', properties = ['dipole'])
--------------------------------------------------------------------------

    Molecular point group: c1
  Charge       = 0
  Multiplicity = 1
  Basis Set: AUG-CC-PVTZ
    Blend: AUG-CC-PVTZ
  Basis Set: (AUG-CC-PVTZ AUX)
    Blend: AUG-CC-PVTZ-JKFIT

    Orbital Energies [Eh]
    ---------------------

    Doubly Occupied:

       1A    -20.626099     2A    -20.563635     3A    -20.526048
       4A    -15.595433     5A    -11.399907     6A    -11.356265
       7A    -11.292244     8A    -11.244322     9A    -11.216259
      10A     -1.469183    11A     -1.378967    12A     -1.368634
      13A     -1.244592    14A     -1.063435    15A     -1.008125
      16A     -0.890313    17A     -0.826072    18A     -0.788146
      19A     -0.716892    20A     -0.713434    21A     -0.697885
      22A     -0.653802    23A     -0.644552    24A     -0.636144
      25A     -0.604172    26A     -0.597904    27A     -0.560310
      28A     -0.538399    29A     -0.528685    30A     -0.515613
      31A     -0.494475    32A     -0.490695    33A     -0.469430
      34A     -0.432511    35A     -0.410518

  @DF-RHF Final Energy:  -473.83853257257641

   => Energetics <=

    Nuclear Repulsion Energy =            457.9412825272045211
    One-Electron Energy =               -1556.4334291452946673
    Two-Electron Energy =                 624.6536140455136774
    Total Energy =                       -473.8385325725764687
  Basis Set: (AUG-CC-PVTZ AUX)
    Blend: AUG-CC-PVTZ-RI
    Molecular point group: c1

    Geometry (in Angstrom), charge = 0, multiplicity = 1:

       Center              X                  Y                   Z               Mass
    ------------   -----------------  -----------------  -----------------  -----------------
         O            1.082902049758    -1.260851863067     0.270560274666    15.994914619570
         O           -3.046157950242    -0.658287863067     0.358856274666    15.994914619570
         O           -1.720957950242     1.130102136933     0.855624274666    15.994914619570
         N            0.133309049758     0.334517136933    -1.058296725334    14.003074004430
         C            2.376656049758     0.733026136933    -0.179193725334    12.000000000000
         C            1.146855549758    -0.146819463067    -0.273233625334    12.000000000000
         C           -1.142172950242    -0.326707863067    -0.997997725334    12.000000000000
         C            3.495831649758     0.099880936933     0.630619074666    12.000000000000
         C           -1.958164950242     0.138842136933     0.188999274666    12.000000000000
         H            2.715948049758     0.959301136933    -1.196736725334     1.007825032230
         H            2.074228049758     1.691204136933     0.263332274666     1.007825032230
         H           -0.979536950242    -1.403318863067    -0.926576725334     1.007825032230
         H           -1.717744950242    -0.134098863067    -1.912470725334     1.007825032230
         H            0.113732049758     1.337853136933    -1.203836725334     1.007825032230
         H            3.787533049758    -0.860058863067     0.187118274666     1.007825032230
         H            4.359198049758     0.746896136933     0.677067274666     1.007825032230
         H            3.150231049758    -0.114202863067     1.649016274666     1.007825032230
         H           -3.547608950242    -0.281116863067     1.109664274666     1.007825032230

  Basis Set: AUG-CC-PVTZ
    Blend: AUG-CC-PVTZ
  Basis Set: (AUG-CC-PVTZ AUX)
    Blend: AUG-CC-PVTZ-JKFIT
	 Reference Energy          =    -473.8385325725764119 [Eh]
	 Singles Energy            =      -0.0000000000000000 [Eh]
	 Same-Spin Energy          =      -0.4669581426028304 [Eh]
	 Opposite-Spin Energy      =      -1.4581373117426017 [Eh]
	 Correlation Energy        =      -1.9250954543454322 [Eh]
	 Total Energy              =    -475.7636280269218219 [Eh]

	 ================> DF-SCS-MP2 Energies <==================
	-----------------------------------------------------------
	 SCS Same-Spin Scale       =       0.3333333333333333 [-]
	 SCS Opposite-Spin Scale   =       1.2000000000000000 [-]
	 SCS Same-Spin Energy      =      -0.1556527142009435 [Eh]
	 SCS Opposite-Spin Energy  =      -1.7497647740911220 [Eh]
	 SCS Correlation Energy    =      -1.9054174882920654 [Eh]
	 SCS Total Energy          =    -475.7439500608684853 [Eh]
	-----------------------------------------------------------

  Dipole Moment: [D]
     X:    -1.0208      Y:     1.9380      Z:    -1.8032     Total:     2.8372

*** Psi4 exiting successfully. Buy a developer a beer!
