                               Psi4 1.3.2 release

  ==> Input File <==

--------------------------------------------------------------------------
#psi4
#
memory 32 gb

molecule  {
0 1
  O        1.0830410    -1.2590340     0.2697030
  O       -3.0460190    -0.6564700     0.3579990
  O       -1.7208190     1.1319200     0.8547670
  N        0.1334480     0.3363350    -1.0591540
  C        2.3767950     0.7348440    -0.1800510
  C        1.1488435    -0.1653662    -0.2683454
  C       -1.1420340    -0.3248900    -0.9988550
  C        3.4883670     0.0910310     0.6318210
  C       -1.9580260     0.1406600     0.1881420
  H        2.7160870     0.9611190    -1.1975940
  H        2.0743670     1.6930220     0.2624750
  H       -0.9793980    -1.4015010    -0.9274340
  H       -1.7176060    -0.1322810    -1.9133280
  H        0.1066516     1.3387607    -1.2097295
  H        3.7876720    -0.8582410     0.1862610
  H        4.3593370     0.7487140     0.6762100
  H        3.1503700    -0.1123850     1.6481590
  H       -3.5474700    -0.2792990     1.1088070
units angstrom
no_reorient  #important for SAPT in psi4, default
symmetry c1  #important for SAPT in psi4, default
}

set PROPERTIES_ORIGIN ["COM"]
properties('MP2/aug-cc-pvtz', properties = ['dipole'])
--------------------------------------------------------------------------

    Molecular point group: c1
  Charge       = 0
  Multiplicity = 1
  Basis Set: AUG-CC-PVTZ
    Blend: AUG-CC-PVTZ
  Basis Set: (AUG-CC-PVTZ AUX)
    Blend: AUG-CC-PVTZ-JKFIT

    Orbital Energies [Eh]
    ---------------------

    Doubly Occupied:

       1A    -20.625503     2A    -20.562956     3A    -20.530173
       4A    -15.592222     5A    -11.398905     6A    -11.355516
       7A    -11.290555     8A    -11.243532     9A    -11.215932
      10A     -1.468551    11A     -1.390608    12A     -1.368816
      13A     -1.242728    14A     -1.061386    15A     -1.005553
      16A     -0.888021    17A     -0.824112    18A     -0.787066
      19A     -0.716095    20A     -0.712897    21A     -0.698366
      22A     -0.653214    23A     -0.644527    24A     -0.636283
      25A     -0.604743    26A     -0.600697    27A     -0.559962
      28A     -0.542213    29A     -0.524846    30A     -0.517348
      31A     -0.495475    32A     -0.491901    33A     -0.469623
      34A     -0.433717    35A     -0.410694

  @DF-RHF Final Energy:  -473.84038815472036

   => Energetics <=

    Nuclear Repulsion Energy =            458.0977004865934532
    One-Electron Energy =               -1556.7467030993857406
    Two-Electron Energy =                 624.8086144580718155
    Total Energy =                       -473.8403881547203582
  Basis Set: (AUG-CC-PVTZ AUX)
    Blend: AUG-CC-PVTZ-RI
    Molecular point group: c1

    Geometry (in Angstrom), charge = 0, multiplicity = 1:

       Center              X                  Y                   Z               Mass
    ------------   -----------------  -----------------  -----------------  -----------------
         O            1.083484470903    -1.258003463652     0.269884380538    15.994914619570
         O           -3.045575529097    -0.655439463652     0.358180380538    15.994914619570
         O           -1.720375529097     1.132950536348     0.854948380538    15.994914619570
         N            0.133891470903     0.337365536348    -1.058972619462    14.003074004430
         C            2.377238470903     0.735874536348    -0.179869619462    12.000000000000
         C            1.149286970903    -0.164335663652    -0.268164019462    12.000000000000
         C           -1.141590529097    -0.323859463652    -0.998673619462    12.000000000000
         C            3.488810470903     0.092061536348     0.632002380538    12.000000000000
         C           -1.957582529097     0.141690536348     0.188323380538    12.000000000000
         H            2.716530470903     0.962149536348    -1.197412619462     1.007825032230
         H            2.074810470903     1.694052536348     0.262656380538     1.007825032230
         H           -0.978954529097    -1.400470463652    -0.927252619462     1.007825032230
         H           -1.717162529097    -0.131250463652    -1.913146619462     1.007825032230
         H            0.107095070903     1.339791236348    -1.209548119462     1.007825032230
         H            3.788115470903    -0.857210463652     0.186442380538     1.007825032230
         H            4.359780470903     0.749744536348     0.676391380538     1.007825032230
         H            3.150813470903    -0.111354463652     1.648340380538     1.007825032230
         H           -3.547026529097    -0.278268463652     1.108988380538     1.007825032230

  Basis Set: AUG-CC-PVTZ
    Blend: AUG-CC-PVTZ
  Basis Set: (AUG-CC-PVTZ AUX)
    Blend: AUG-CC-PVTZ-JKFIT
	 Reference Energy          =    -473.8403881547203582 [Eh]
	 Singles Energy            =      -0.0000000000000000 [Eh]
	 Same-Spin Energy          =      -0.4664967837545964 [Eh]
	 Opposite-Spin Energy      =      -1.4572631698466396 [Eh]
	 Correlation Energy        =      -1.9237599536012360 [Eh]
	 Total Energy              =    -475.7641481083215922 [Eh]

	 ================> DF-SCS-MP2 Energies <==================
	-----------------------------------------------------------
	 SCS Same-Spin Scale       =       0.3333333333333333 [-]
	 SCS Opposite-Spin Scale   =       1.2000000000000000 [-]
	 SCS Same-Spin Energy      =      -0.1554989279181988 [Eh]
	 SCS Opposite-Spin Energy  =      -1.7487158038159676 [Eh]
	 SCS Correlation Energy    =      -1.9042147317341664 [Eh]
	 SCS Total Energy          =    -475.7446028864545156 [Eh]
	-----------------------------------------------------------

  Dipole Moment: [D]
     X:    -0.9743      Y:     1.8321      Z:    -1.7407     Total:     2.7085

*** Psi4 exiting successfully. Buy a developer a beer!
