                               Psi4 1.3.2 release

  ==> Input File <==

--------------------------------------------------------------------------
#psi4
#
memory 32 gb

molecule  {
0 1
  O        1.0830410    -1.2590340     0.2697030
  O       -3.0460190    -0.6564700     0.3579990
  O       -1.7039510     1.1359259     0.8424692
  N        0.1334480     0.3363350    -1.0591540
  C        2.3767950     0.7348440    -0.1800510
  C        1.1530800    -0.1541890    -0.2667860
  C       -1.1258753    -0.3042506    -0.9955477
  C        3.4883670     0.0910310     0.6318210
  C       -1.9580260     0.1406600     0.1881420
  H        2.7160870     0.9611190    -1.1975940
  H        2.0743670     1.6930220     0.2624750
  H       -0.9793980    -1.4015010    -0.9274340
  H       -1.7176060    -0.1322810    -1.9133280
  H        0.1138710     1.3396710    -1.2046940
  H        3.7876720    -0.8582410     0.1862610
  H        4.3593370     0.7487140     0.6762100
  H        3.1503700    -0.1123850     1.6481590
  H       -3.5474700    -0.2792990     1.1088070
units angstrom
no_reorient  #important for SAPT in psi4, default
symmetry c1  #important for SAPT in psi4, default
}

set PROPERTIES_ORIGIN ["COM"]
properties('MP2/aug-cc-pvtz', properties = ['dipole'])
--------------------------------------------------------------------------

    Molecular point group: c1
  Charge       = 0
  Multiplicity = 1
  Basis Set: AUG-CC-PVTZ
    Blend: AUG-CC-PVTZ
  Basis Set: (AUG-CC-PVTZ AUX)
    Blend: AUG-CC-PVTZ-JKFIT

    Orbital Energies [Eh]
    ---------------------

    Doubly Occupied:

       1A    -20.627203     2A    -20.561969     3A    -20.529434
       4A    -15.592727     5A    -11.398067     6A    -11.356668
       7A    -11.289615     8A    -11.244558     9A    -11.216705
      10A     -1.468140    11A     -1.386032    12A     -1.369559
      13A     -1.247009    14A     -1.063779    15A     -1.003711
      16A     -0.890809    17A     -0.824788    18A     -0.786711
      19A     -0.716362    20A     -0.714777    21A     -0.698237
      22A     -0.656557    23A     -0.643493    24A     -0.637294
      25A     -0.605036    26A     -0.600310    27A     -0.552679
      28A     -0.540287    29A     -0.525545    30A     -0.517705
      31A     -0.495605    32A     -0.491695    33A     -0.468173
      34A     -0.434898    35A     -0.409840

  @DF-RHF Final Energy:  -473.83852591997277

   => Energetics <=

    Nuclear Repulsion Energy =            458.5457799774124510
    One-Electron Energy =               -1557.6366555932750089
    Two-Electron Energy =                 625.2523496958898477
    Total Energy =                       -473.8385259199727670
  Basis Set: (AUG-CC-PVTZ AUX)
    Blend: AUG-CC-PVTZ-RI
    Molecular point group: c1

    Geometry (in Angstrom), charge = 0, multiplicity = 1:

       Center              X                  Y                   Z               Mass
    ------------   -----------------  -----------------  -----------------  -----------------
         O            1.079502878450    -1.261412563613     0.270900928256    15.994914619570
         O           -3.049557121550    -0.658848563613     0.359196928256    15.994914619570
         O           -1.707489121550     1.133547336387     0.843667128256    15.994914619570
         N            0.129909878450     0.333956436387    -1.057956071744    14.003074004430
         C            2.373256878450     0.732465436387    -0.178853071744    12.000000000000
         C            1.149541878450    -0.156567563613    -0.265588071744    12.000000000000
         C           -1.129413421550    -0.306629163613    -0.994349771744    12.000000000000
         C            3.484828878450     0.088652436387     0.633018928256    12.000000000000
         C           -1.961564121550     0.138281436387     0.189339928256    12.000000000000
         H            2.712548878450     0.958740436387    -1.196396071744     1.007825032230
         H            2.070828878450     1.690643436387     0.263672928256     1.007825032230
         H           -0.982936121550    -1.403879563613    -0.926236071744     1.007825032230
         H           -1.721144121550    -0.134659563613    -1.912130071744     1.007825032230
         H            0.110332878450     1.337292436387    -1.203496071744     1.007825032230
         H            3.784133878450    -0.860619563613     0.187458928256     1.007825032230
         H            4.355798878450     0.746335436387     0.677407928256     1.007825032230
         H            3.146831878450    -0.114763563613     1.649356928256     1.007825032230
         H           -3.551008121550    -0.281677563613     1.110004928256     1.007825032230

  Basis Set: AUG-CC-PVTZ
    Blend: AUG-CC-PVTZ
  Basis Set: (AUG-CC-PVTZ AUX)
    Blend: AUG-CC-PVTZ-JKFIT
	 Reference Energy          =    -473.8385259199727670 [Eh]
	 Singles Energy            =      -0.0000000000000000 [Eh]
	 Same-Spin Energy          =      -0.4669630775537312 [Eh]
	 Opposite-Spin Energy      =      -1.4578458390192972 [Eh]
	 Correlation Energy        =      -1.9248089165730284 [Eh]
	 Total Energy              =    -475.7633348365458232 [Eh]

	 ================> DF-SCS-MP2 Energies <==================
	-----------------------------------------------------------
	 SCS Same-Spin Scale       =       0.3333333333333333 [-]
	 SCS Opposite-Spin Scale   =       1.2000000000000000 [-]
	 SCS Same-Spin Energy      =      -0.1556543591845771 [Eh]
	 SCS Opposite-Spin Energy  =      -1.7494150068231566 [Eh]
	 SCS Correlation Energy    =      -1.9050693660077338 [Eh]
	 SCS Total Energy          =    -475.7435952859805184 [Eh]
	-----------------------------------------------------------

  Dipole Moment: [D]
     X:    -0.9323      Y:     1.8795      Z:    -1.7061     Total:     2.7042

*** Psi4 exiting successfully. Buy a developer a beer!
