                               Psi4 1.4a3.dev225

  ==> Input File <==

--------------------------------------------------------------------------
#psi4
#
memory 32 gb

molecule  {
0 1
  O        0.8764270    -0.2428500     1.2911470
  O       -3.1675390     0.0980960     0.5443480
  O       -1.5839830     1.3406500    -0.5070920
  N        0.0834400    -0.8734940    -0.7544630
  C        2.2681300     0.2178930    -0.6380450
  C        1.0330250    -0.3000120     0.0721840
  C       -1.1936145    -1.0437862    -0.2274193
  C        3.4385850     0.4137260     0.3159750
  C       -1.9785770     0.2694000    -0.0851210
  H        2.5310470    -0.4685700    -1.4513520
  H        1.9929790     1.1708880    -1.1091590
  H       -1.1549390    -1.4972460     0.7835340
  H       -1.8230450    -1.7308360    -0.8360530
  H        0.1282230    -0.6025030    -1.7308050
  H        3.7379630    -0.5375510     0.7615240
  H        4.2975370     0.8343390    -0.2133880
  H        3.1581410     1.0869690     1.1269820
  H       -3.5812870     0.9851770     0.5837010
units angstrom
no_reorient  #important for SAPT in psi4, default
symmetry c1  #important for SAPT in psi4, default
}

set PROPERTIES_ORIGIN ["COM"]
properties('MP2/aug-cc-pvtz', properties = ['dipole'])
--------------------------------------------------------------------------

    Molecular point group: c1
  Charge       = 0
  Multiplicity = 1
  Basis Set: AUG-CC-PVTZ
    Blend: AUG-CC-PVTZ
  Basis Set: (AUG-CC-PVTZ AUX)
    Blend: AUG-CC-PVTZ-JKFIT

    Orbital Energies [Eh]
    ---------------------

    Doubly Occupied:

       1A    -20.624320     2A    -20.558382     3A    -20.529835
       4A    -15.594634     5A    -11.395490     6A    -11.357170
       7A    -11.291898     8A    -11.244988     9A    -11.218355
      10A     -1.467397    11A     -1.387050    12A     -1.365237
      13A     -1.253744    14A     -1.063419    15A     -0.999026
      16A     -0.890870    17A     -0.824492    18A     -0.789088
      19A     -0.715476    20A     -0.711537    21A     -0.697876
      22A     -0.661902    23A     -0.643323    24A     -0.632156
      25A     -0.605929    26A     -0.599229    27A     -0.550570
      28A     -0.543925    29A     -0.524777    30A     -0.516097
      31A     -0.495499    32A     -0.488623    33A     -0.467103
      34A     -0.434656    35A     -0.410109

  @DF-RHF Final Energy:  -473.83731672098224

   => Energetics <=

    Nuclear Repulsion Energy =            460.9855902456982335
    One-Electron Energy =               -1562.5374540301877460
    Two-Electron Energy =                 627.7145470635073252
    Total Energy =                       -473.8373167209822441
  Basis Set: (AUG-CC-PVTZ AUX)
    Blend: AUG-CC-PVTZ-RI
    Molecular point group: c1

    Geometry (in Angstrom), charge = 0, multiplicity = 1:

       Center              X                  Y                   Z               Mass
    ------------   -----------------  -----------------  -----------------  -----------------
         O            0.942378807928    -0.249091714100     1.277165091031    15.994914619570
         O           -3.101587192072     0.091854285900     0.530366091031    15.994914619570
         O           -1.518031192072     1.334408285900    -0.521073908969    15.994914619570
         N            0.149391807928    -0.879735714100    -0.768444908969    14.003074004430
         C            2.334081807928     0.211651285900    -0.652026908969    12.000000000000
         C            1.098976807928    -0.306253714100     0.058202091031    12.000000000000
         C           -1.127662692072    -1.050027914100    -0.241401208969    12.000000000000
         C            3.504536807928     0.407484285900     0.301993091031    12.000000000000
         C           -1.912625192072     0.263158285900    -0.099102908969    12.000000000000
         H            2.596998807928    -0.474811714100    -1.465333908969     1.007825032230
         H            2.058930807928     1.164646285900    -1.123140908969     1.007825032230
         H           -1.088987192072    -1.503487714100     0.769552091031     1.007825032230
         H           -1.757093192072    -1.737077714100    -0.850034908969     1.007825032230
         H            0.194174807928    -0.608744714100    -1.744786908969     1.007825032230
         H            3.803914807928    -0.543792714100     0.747542091031     1.007825032230
         H            4.363488807928     0.828097285900    -0.227369908969     1.007825032230
         H            3.224092807928     1.080727285900     1.113000091031     1.007825032230
         H           -3.515335192072     0.978935285900     0.569719091031     1.007825032230

  Basis Set: AUG-CC-PVTZ
    Blend: AUG-CC-PVTZ
  Basis Set: (AUG-CC-PVTZ AUX)
    Blend: AUG-CC-PVTZ-JKFIT
	 Reference Energy          =    -473.8373167209822441 [Eh]
	 Singles Energy            =      -0.0000000000000000 [Eh]
	 Same-Spin Energy          =      -0.4670902175645782 [Eh]
	 Opposite-Spin Energy      =      -1.4578959846040107 [Eh]
	 Correlation Energy        =      -1.9249862021685888 [Eh]
	 Total Energy              =    -475.7623029231508553 [Eh]

	 ================> DF-SCS-MP2 Energies <==================
	-----------------------------------------------------------
	 SCS Same-Spin Scale       =       0.3333333333333333 [-]
	 SCS Opposite-Spin Scale   =       1.2000000000000000 [-]
	 SCS Same-Spin Energy      =      -0.1556967391881927 [Eh]
	 SCS Opposite-Spin Energy  =      -1.7494751815248129 [Eh]
	 SCS Correlation Energy    =      -1.9051719207130056 [Eh]
	 SCS Total Energy          =    -475.7424886416952745 [Eh]
	-----------------------------------------------------------

  Dipole Moment: [D]
     X:    -0.7522      Y:    -0.7842      Z:    -2.6720     Total:     2.8845

*** Psi4 exiting successfully. Buy a developer a beer!
