                               Psi4 1.3.2 release

  ==> Input File <==

--------------------------------------------------------------------------
#psi4
#
memory 32 gb

molecule  {
0 1
  O        1.0830410    -1.2590340     0.2697030
  O       -3.0460190    -0.6564700     0.3579990
  O       -1.7208190     1.1319200     0.8547670
  N        0.1389579     0.3233380    -1.0799040
  C        2.3767950     0.7348440    -0.1800510
  C        1.1530800    -0.1541890    -0.2667860
  C       -1.1420340    -0.3248900    -0.9988550
  C        3.4883670     0.0910310     0.6318210
  C       -1.9774571     0.1242830     0.1809134
  H        2.7160870     0.9611190    -1.1975940
  H        2.0743670     1.6930220     0.2624750
  H       -0.9793980    -1.4015010    -0.9274340
  H       -1.7176060    -0.1322810    -1.9133280
  H        0.1138710     1.3396710    -1.2046940
  H        3.7876720    -0.8582410     0.1862610
  H        4.3593370     0.7487140     0.6762100
  H        3.1503700    -0.1123850     1.6481590
  H       -3.5474700    -0.2792990     1.1088070
units angstrom
no_reorient  #important for SAPT in psi4, default
symmetry c1  #important for SAPT in psi4, default
}

set PROPERTIES_ORIGIN ["COM"]
properties('MP2/aug-cc-pvtz', properties = ['dipole'])
--------------------------------------------------------------------------

    Molecular point group: c1
  Charge       = 0
  Multiplicity = 1
  Basis Set: AUG-CC-PVTZ
    Blend: AUG-CC-PVTZ
  Basis Set: (AUG-CC-PVTZ AUX)
    Blend: AUG-CC-PVTZ-JKFIT

    Orbital Energies [Eh]
    ---------------------

    Doubly Occupied:

       1A    -20.633001     2A    -20.558276     3A    -20.529342
       4A    -15.593727     5A    -11.400841     6A    -11.356172
       7A    -11.290498     8A    -11.244179     9A    -11.216389
      10A     -1.476123    11A     -1.384792    12A     -1.359942
      13A     -1.239758    14A     -1.063198    15A     -1.006559
      16A     -0.891277    17A     -0.831092    18A     -0.781910
      19A     -0.716942    20A     -0.714497    21A     -0.698117
      22A     -0.654675    23A     -0.645956    24A     -0.636764
      25A     -0.602870    26A     -0.596800    27A     -0.559396
      28A     -0.539616    29A     -0.525127    30A     -0.517226
      31A     -0.494391    32A     -0.485708    33A     -0.466663
      34A     -0.434803    35A     -0.410825

  @DF-RHF Final Energy:  -473.83734055419217

   => Energetics <=

    Nuclear Repulsion Energy =            457.6161826765374485
    One-Electron Energy =               -1555.7921377820562157
    Two-Electron Energy =                 624.3386145513267138
    Total Energy =                       -473.8373405541921102
  Basis Set: (AUG-CC-PVTZ AUX)
    Blend: AUG-CC-PVTZ-RI
    Molecular point group: c1

    Geometry (in Angstrom), charge = 0, multiplicity = 1:

       Center              X                  Y                   Z               Mass
    ------------   -----------------  -----------------  -----------------  -----------------
         O            1.084231495799    -1.256145677954     0.272581801731    15.994914619570
         O           -3.044828504201    -0.653581677954     0.360877801731    15.994914619570
         O           -1.719628504201     1.134808322046     0.857645801731    15.994914619570
         N            0.140148395799     0.326226322046    -1.077025198269    14.003074004430
         C            2.377985495799     0.737732322046    -0.177172198269    12.000000000000
         C            1.154270495799    -0.151300677954    -0.263907198269    12.000000000000
         C           -1.140843504201    -0.322001677954    -0.995976198269    12.000000000000
         C            3.489557495799     0.093919322046     0.634699801731    12.000000000000
         C           -1.976266604201     0.127171322046     0.183792201731    12.000000000000
         H            2.717277495799     0.964007322046    -1.194715198269     1.007825032230
         H            2.075557495799     1.695910322046     0.265353801731     1.007825032230
         H           -0.978207504201    -1.398612677954    -0.924555198269     1.007825032230
         H           -1.716415504201    -0.129392677954    -1.910449198269     1.007825032230
         H            0.115061495799     1.342559322046    -1.201815198269     1.007825032230
         H            3.788862495799    -0.855352677954     0.189139801731     1.007825032230
         H            4.360527495799     0.751602322046     0.679088801731     1.007825032230
         H            3.151560495799    -0.109496677954     1.651037801731     1.007825032230
         H           -3.546279504201    -0.276410677954     1.111685801731     1.007825032230

  Basis Set: AUG-CC-PVTZ
    Blend: AUG-CC-PVTZ
  Basis Set: (AUG-CC-PVTZ AUX)
    Blend: AUG-CC-PVTZ-JKFIT
	 Reference Energy          =    -473.8373405541921670 [Eh]
	 Singles Energy            =      -0.0000000000000000 [Eh]
	 Same-Spin Energy          =      -0.4670213080197881 [Eh]
	 Opposite-Spin Energy      =      -1.4583043816800685 [Eh]
	 Correlation Energy        =      -1.9253256896998565 [Eh]
	 Total Energy              =    -475.7626662438919993 [Eh]

	 ================> DF-SCS-MP2 Energies <==================
	-----------------------------------------------------------
	 SCS Same-Spin Scale       =       0.3333333333333333 [-]
	 SCS Opposite-Spin Scale   =       1.2000000000000000 [-]
	 SCS Same-Spin Energy      =      -0.1556737693399294 [Eh]
	 SCS Opposite-Spin Energy  =      -1.7499652580160820 [Eh]
	 SCS Correlation Energy    =      -1.9056390273560113 [Eh]
	 SCS Total Energy          =    -475.7429795815481839 [Eh]
	-----------------------------------------------------------

  Dipole Moment: [D]
     X:    -1.0853      Y:     1.7214      Z:    -1.6982     Total:     2.6505

*** Psi4 exiting successfully. Buy a developer a beer!
