                               Psi4 1.4a3.dev225

  ==> Input File <==

--------------------------------------------------------------------------
#psi4
#
memory 32 gb

molecule  {
0 1
  O        0.8764270    -0.2428500     1.2911470
  O       -3.1675390     0.0980960     0.5443480
  O       -1.5839830     1.3406500    -0.5070920
  N        0.0834400    -0.8734940    -0.7544630
  C        2.2681300     0.2178930    -0.6380450
  C        1.0330250    -0.3000120     0.0721840
  C       -1.2394860    -1.0499030    -0.2084880
  C        3.4385850     0.4137260     0.3159750
  C       -1.9785770     0.2694000    -0.0851210
  H        2.5310470    -0.4685700    -1.4513520
  H        1.9929790     1.1708880    -1.1091590
  H       -1.1549390    -1.4972460     0.7835340
  H       -1.8230450    -1.7308360    -0.8360530
  H        0.1282230    -0.6025030    -1.7308050
  H        3.7379630    -0.5375510     0.7615240
  H        4.2975370     0.8343390    -0.2133880
  H        3.1581410     1.0869690     1.1269820
  H       -3.5601691     0.9399001     0.5816924
units angstrom
no_reorient  #important for SAPT in psi4, default
symmetry c1  #important for SAPT in psi4, default
}

set PROPERTIES_ORIGIN ["COM"]
properties('MP2/aug-cc-pvtz', properties = ['dipole'])
--------------------------------------------------------------------------

    Molecular point group: c1
  Charge       = 0
  Multiplicity = 1
  Basis Set: AUG-CC-PVTZ
    Blend: AUG-CC-PVTZ
  Basis Set: (AUG-CC-PVTZ AUX)
    Blend: AUG-CC-PVTZ-JKFIT

    Orbital Energies [Eh]
    ---------------------

    Doubly Occupied:

       1A    -20.621328     2A    -20.561924     3A    -20.527888
       4A    -15.593727     5A    -11.398719     6A    -11.355486
       7A    -11.292290     8A    -11.243929     9A    -11.217587
      10A     -1.477216    11A     -1.384545    12A     -1.371236
      13A     -1.241398    14A     -1.062603    15A     -1.007165
      16A     -0.891213    17A     -0.831617    18A     -0.785062
      19A     -0.719950    20A     -0.712350    21A     -0.699143
      22A     -0.653891    23A     -0.647880    24A     -0.631186
      25A     -0.606368    26A     -0.599746    27A     -0.559822
      28A     -0.545009    29A     -0.524081    30A     -0.515279
      31A     -0.495692    32A     -0.490646    33A     -0.469824
      34A     -0.432844    35A     -0.411481

  @DF-RHF Final Energy:  -473.84054671417903

   => Energetics <=

    Nuclear Repulsion Energy =            460.7844556955661233
    One-Electron Energy =               -1562.0897543073747329
    Two-Electron Energy =                 627.4647518976296396
    Total Energy =                       -473.8405467141790268
  Basis Set: (AUG-CC-PVTZ AUX)
    Blend: AUG-CC-PVTZ-RI
    Molecular point group: c1

    Geometry (in Angstrom), charge = 0, multiplicity = 1:

       Center              X                  Y                   Z               Mass
    ------------   -----------------  -----------------  -----------------  -----------------
         O            0.946416515431    -0.248183470633     1.275447142757    15.994914619570
         O           -3.097549484569     0.092762529367     0.528648142757    15.994914619570
         O           -1.513993484569     1.335316529367    -0.522791857243    15.994914619570
         N            0.153429515431    -0.878827470633    -0.770162857243    14.003074004430
         C            2.338119515431     0.212559529367    -0.653744857243    12.000000000000
         C            1.103014515431    -0.305345470633     0.056484142757    12.000000000000
         C           -1.169496484569    -1.055236470633    -0.224187857243    12.000000000000
         C            3.508574515431     0.408392529367     0.300275142757    12.000000000000
         C           -1.908587484569     0.264066529367    -0.100820857243    12.000000000000
         H            2.601036515431    -0.473903470633    -1.467051857243     1.007825032230
         H            2.062968515431     1.165554529367    -1.124858857243     1.007825032230
         H           -1.084949484569    -1.502579470633     0.767834142757     1.007825032230
         H           -1.753055484569    -1.736169470633    -0.851752857243     1.007825032230
         H            0.198212515431    -0.607836470633    -1.746504857243     1.007825032230
         H            3.807952515431    -0.542884470633     0.745824142757     1.007825032230
         H            4.367526515431     0.829005529367    -0.229087857243     1.007825032230
         H            3.228130515431     1.081635529367     1.111282142757     1.007825032230
         H           -3.490179584569     0.934566629367     0.565992542757     1.007825032230

  Basis Set: AUG-CC-PVTZ
    Blend: AUG-CC-PVTZ
  Basis Set: (AUG-CC-PVTZ AUX)
    Blend: AUG-CC-PVTZ-JKFIT
	 Reference Energy          =    -473.8405467141790268 [Eh]
	 Singles Energy            =      -0.0000000000000000 [Eh]
	 Same-Spin Energy          =      -0.4661884971587533 [Eh]
	 Opposite-Spin Energy      =      -1.4565409611934843 [Eh]
	 Correlation Energy        =      -1.9227294583522376 [Eh]
	 Total Energy              =    -475.7632761725312776 [Eh]

	 ================> DF-SCS-MP2 Energies <==================
	-----------------------------------------------------------
	 SCS Same-Spin Scale       =       0.3333333333333333 [-]
	 SCS Opposite-Spin Scale   =       1.2000000000000000 [-]
	 SCS Same-Spin Energy      =      -0.1553961657195844 [Eh]
	 SCS Opposite-Spin Energy  =      -1.7478491534321812 [Eh]
	 SCS Correlation Energy    =      -1.9032453191517655 [Eh]
	 SCS Total Energy          =    -475.7437920333308057 [Eh]
	-----------------------------------------------------------

  Dipole Moment: [D]
     X:    -0.8606      Y:    -0.8310      Z:    -2.6758     Total:     2.9310

*** Psi4 exiting successfully. Buy a developer a beer!
