                               Psi4 1.3.2 release

  ==> Input File <==

--------------------------------------------------------------------------
#psi4
#
memory 32 gb

molecule  {
0 1
  O        1.0830410    -1.2590340     0.2697030
  O       -3.0460190    -0.6564700     0.3579990
  O       -1.7208190     1.1319200     0.8547670
  N        0.1334480     0.3363350    -1.0591540
  C        2.3767950     0.7348440    -0.1800510
  C        1.1530800    -0.1541890    -0.2667860
  C       -1.1420340    -0.3248900    -0.9988550
  C        3.4883670     0.0910310     0.6318210
  C       -1.9580260     0.1406600     0.1881420
  H        2.7160870     0.9611190    -1.1975940
  H        2.0743670     1.6930220     0.2624750
  H       -0.9793980    -1.4015010    -0.9274340
  H       -1.7176060    -0.1322810    -1.9133280
  H        0.1119404     1.4386168    -1.2190467
  H        3.7876720    -0.8582410     0.1862610
  H        4.3593370     0.7487140     0.6762100
  H        3.1503700    -0.1123850     1.6481590
  H       -3.5474700    -0.2792990     1.1088070
units angstrom
no_reorient  #important for SAPT in psi4, default
symmetry c1  #important for SAPT in psi4, default
}

set PROPERTIES_ORIGIN ["COM"]
properties('MP2/aug-cc-pvtz', properties = ['dipole'])
--------------------------------------------------------------------------

    Molecular point group: c1
  Charge       = 0
  Multiplicity = 1
  Basis Set: AUG-CC-PVTZ
    Blend: AUG-CC-PVTZ
  Basis Set: (AUG-CC-PVTZ AUX)
    Blend: AUG-CC-PVTZ-JKFIT

    Orbital Energies [Eh]
    ---------------------

    Doubly Occupied:

       1A    -20.625252     2A    -20.562551     3A    -20.528524
       4A    -15.601060     5A    -11.398602     6A    -11.355806
       7A    -11.290836     8A    -11.243668     9A    -11.216046
      10A     -1.468226    11A     -1.383978    12A     -1.368256
      13A     -1.232253    14A     -1.062853    15A     -1.003480
      16A     -0.888042    17A     -0.823849    18A     -0.766582
      19A     -0.715049    20A     -0.711507    21A     -0.697594
      22A     -0.652528    23A     -0.641856    24A     -0.636490
      25A     -0.603234    26A     -0.596864    27A     -0.554035
      28A     -0.539874    29A     -0.524509    30A     -0.517045
      31A     -0.495117    32A     -0.491361    33A     -0.468849
      34A     -0.433238    35A     -0.408653

  @DF-RHF Final Energy:  -473.82913016867536

   => Energetics <=

    Nuclear Repulsion Energy =            457.4677461674291408
    One-Electron Energy =               -1555.5784190966539882
    Two-Electron Energy =                 624.2815427605495415
    Total Energy =                       -473.8291301686753059
  Basis Set: (AUG-CC-PVTZ AUX)
    Blend: AUG-CC-PVTZ-RI
    Molecular point group: c1

    Geometry (in Angstrom), charge = 0, multiplicity = 1:

       Center              X                  Y                   Z               Mass
    ------------   -----------------  -----------------  -----------------  -----------------
         O            1.083055896678    -1.259794757900     0.269813246572    15.994914619570
         O           -3.046004103322    -0.657230757900     0.358109246572    15.994914619570
         O           -1.720804103322     1.131159242100     0.854877246572    15.994914619570
         N            0.133462896678     0.335574242100    -1.059043753428    14.003074004430
         C            2.376809896678     0.734083242100    -0.179940753428    12.000000000000
         C            1.153094896678    -0.154949757900    -0.266675753428    12.000000000000
         C           -1.142019103322    -0.325650757900    -0.998744753428    12.000000000000
         C            3.488381896678     0.090270242100     0.631931246572    12.000000000000
         C           -1.958011103322     0.139899242100     0.188252246572    12.000000000000
         H            2.716101896678     0.960358242100    -1.197483753428     1.007825032230
         H            2.074381896678     1.692261242100     0.262585246572     1.007825032230
         H           -0.979383103322    -1.402261757900    -0.927323753428     1.007825032230
         H           -1.717591103322    -0.133041757900    -1.913217753428     1.007825032230
         H            0.111955296678     1.437856042100    -1.218936453428     1.007825032230
         H            3.787686896678    -0.859001757900     0.186371246572     1.007825032230
         H            4.359351896678     0.747953242100     0.676320246572     1.007825032230
         H            3.150384896678    -0.113145757900     1.648269246572     1.007825032230
         H           -3.547455103322    -0.280059757900     1.108917246572     1.007825032230

  Basis Set: AUG-CC-PVTZ
    Blend: AUG-CC-PVTZ
  Basis Set: (AUG-CC-PVTZ AUX)
    Blend: AUG-CC-PVTZ-JKFIT
	 Reference Energy          =    -473.8291301686753627 [Eh]
	 Singles Energy            =      -0.0000000000000000 [Eh]
	 Same-Spin Energy          =      -0.4674899407541798 [Eh]
	 Opposite-Spin Energy      =      -1.4596462866438995 [Eh]
	 Correlation Energy        =      -1.9271362273980794 [Eh]
	 Total Energy              =    -475.7562663960734426 [Eh]

	 ================> DF-SCS-MP2 Energies <==================
	-----------------------------------------------------------
	 SCS Same-Spin Scale       =       0.3333333333333333 [-]
	 SCS Opposite-Spin Scale   =       1.2000000000000000 [-]
	 SCS Same-Spin Energy      =      -0.1558299802513933 [Eh]
	 SCS Opposite-Spin Energy  =      -1.7515755439726794 [Eh]
	 SCS Correlation Energy    =      -1.9074055242240728 [Eh]
	 SCS Total Energy          =    -475.7365356928994515 [Eh]
	-----------------------------------------------------------

  Dipole Moment: [D]
     X:    -0.9700      Y:     1.9511      Z:    -1.7622     Total:     2.8023

*** Psi4 exiting successfully. Buy a developer a beer!
