                               Psi4 1.3.2 release

  ==> Input File <==

--------------------------------------------------------------------------
#psi4
#
memory 32 gb

molecule  {
0 1
  O        1.0830410    -1.2590340     0.2697030
  O       -3.0460190    -0.6564700     0.3579990
  O       -1.7208190     1.1319200     0.8547670
  N        0.1334480     0.3363350    -1.0591540
  C        2.3767950     0.7348440    -0.1800510
  C        1.1530800    -0.1541890    -0.2667860
  C       -1.1420340    -0.3248900    -0.9988550
  C        3.4883670     0.0910310     0.6318210
  C       -1.9653186     0.1541225     0.2062665
  H        2.7160870     0.9611190    -1.1975940
  H        2.0743670     1.6930220     0.2624750
  H       -0.9793980    -1.4015010    -0.9274340
  H       -1.7176060    -0.1322810    -1.9133280
  H        0.1138710     1.3396710    -1.2046940
  H        3.7876720    -0.8582410     0.1862610
  H        4.3593370     0.7487140     0.6762100
  H        3.1503700    -0.1123850     1.6481590
  H       -3.5357094    -0.2670057     1.1102919
units angstrom
no_reorient  #important for SAPT in psi4, default
symmetry c1  #important for SAPT in psi4, default
}

set PROPERTIES_ORIGIN ["COM"]
properties('MP2/aug-cc-pvtz', properties = ['dipole'])
--------------------------------------------------------------------------

    Molecular point group: c1
  Charge       = 0
  Multiplicity = 1
  Basis Set: AUG-CC-PVTZ
    Blend: AUG-CC-PVTZ
  Basis Set: (AUG-CC-PVTZ AUX)
    Blend: AUG-CC-PVTZ-JKFIT

    Orbital Energies [Eh]
    ---------------------

    Doubly Occupied:

       1A    -20.625608     2A    -20.565914     3A    -20.528123
       4A    -15.591802     5A    -11.396896     6A    -11.355381
       7A    -11.289399     8A    -11.243917     9A    -11.216285
      10A     -1.473988    11A     -1.384909    12A     -1.378501
      13A     -1.240487    14A     -1.062288    15A     -1.000400
      16A     -0.888108    17A     -0.822381    18A     -0.784601
      19A     -0.719702    20A     -0.711898    21A     -0.698364
      22A     -0.653063    23A     -0.644598    24A     -0.637417
      25A     -0.607337    26A     -0.600166    27A     -0.558635
      28A     -0.540436    29A     -0.524779    30A     -0.517175
      31A     -0.500174    32A     -0.494007    33A     -0.469997
      34A     -0.433133    35A     -0.407905

  @DF-RHF Final Energy:  -473.84032064485109

   => Energetics <=

    Nuclear Repulsion Energy =            458.0818628135602921
    One-Electron Energy =               -1556.7088204160270379
    Two-Electron Energy =                 624.7866369576156558
    Total Energy =                       -473.8403206448510900
  Basis Set: (AUG-CC-PVTZ AUX)
    Blend: AUG-CC-PVTZ-RI
    Molecular point group: c1

    Geometry (in Angstrom), charge = 0, multiplicity = 1:

       Center              X                  Y                   Z               Mass
    ------------   -----------------  -----------------  -----------------  -----------------
         O            1.083618340246    -1.260361066739     0.268031935270    15.994914619570
         O           -3.045441659754    -0.657797066739     0.356327935270    15.994914619570
         O           -1.720241659754     1.130592933261     0.853095935270    15.994914619570
         N            0.134025340246     0.335007933261    -1.060825064730    14.003074004430
         C            2.377372340246     0.733516933261    -0.181722064730    12.000000000000
         C            1.153657340246    -0.155516066739    -0.268457064730    12.000000000000
         C           -1.141456659754    -0.326217066739    -1.000526064730    12.000000000000
         C            3.488944340246     0.089703933261     0.630149935270    12.000000000000
         C           -1.964741259754     0.152795433261     0.204595435270    12.000000000000
         H            2.716664340246     0.959791933261    -1.199265064730     1.007825032230
         H            2.074944340246     1.691694933261     0.260803935270     1.007825032230
         H           -0.978820659754    -1.402828066739    -0.929105064730     1.007825032230
         H           -1.717028659754    -0.133608066739    -1.914999064730     1.007825032230
         H            0.114448340246     1.338343933261    -1.206365064730     1.007825032230
         H            3.788249340246    -0.859568066739     0.184589935270     1.007825032230
         H            4.359914340246     0.747386933261     0.674538935270     1.007825032230
         H            3.150947340246    -0.113712066739     1.646487935270     1.007825032230
         H           -3.535132059754    -0.268332766739     1.108620835270     1.007825032230

  Basis Set: AUG-CC-PVTZ
    Blend: AUG-CC-PVTZ
  Basis Set: (AUG-CC-PVTZ AUX)
    Blend: AUG-CC-PVTZ-JKFIT
	 Reference Energy          =    -473.8403206448510900 [Eh]
	 Singles Energy            =      -0.0000000000000000 [Eh]
	 Same-Spin Energy          =      -0.4663774115117780 [Eh]
	 Opposite-Spin Energy      =      -1.4570197838772727 [Eh]
	 Correlation Energy        =      -1.9233971953890507 [Eh]
	 Total Energy              =    -475.7637178402401332 [Eh]

	 ================> DF-SCS-MP2 Energies <==================
	-----------------------------------------------------------
	 SCS Same-Spin Scale       =       0.3333333333333333 [-]
	 SCS Opposite-Spin Scale   =       1.2000000000000000 [-]
	 SCS Same-Spin Energy      =      -0.1554591371705927 [Eh]
	 SCS Opposite-Spin Energy  =      -1.7484237406527272 [Eh]
	 SCS Correlation Energy    =      -1.9038828778233199 [Eh]
	 SCS Total Energy          =    -475.7442035226744110 [Eh]
	-----------------------------------------------------------

  Dipole Moment: [D]
     X:    -0.9706      Y:     1.9704      Z:    -1.6622     Total:     2.7546

*** Psi4 exiting successfully. Buy a developer a beer!
