                               Psi4 1.3.2 release

  ==> Input File <==

--------------------------------------------------------------------------
#psi4
#
memory 32 gb

molecule  {
0 1
  O        1.0830410    -1.2590340     0.2697030
  O       -3.0460190    -0.6564700     0.3579990
  O       -1.7208190     1.1319200     0.8547670
  N        0.1334480     0.3363350    -1.0591540
  C        2.3767950     0.7348440    -0.1800510
  C        1.1179811    -0.0980740    -0.3104970
  C       -1.1420340    -0.3248900    -0.9988550
  C        3.5326987     0.1557446     0.6185442
  C       -1.9580260     0.1406600     0.1881420
  H        2.7160870     0.9611190    -1.1975940
  H        2.0743670     1.6930220     0.2624750
  H       -0.9793980    -1.4015010    -0.9274340
  H       -1.7176060    -0.1322810    -1.9133280
  H        0.1138710     1.3396710    -1.2046940
  H        3.7876720    -0.8582410     0.1862610
  H        4.3593370     0.7487140     0.6762100
  H        3.1503700    -0.1123850     1.6481590
  H       -3.5474700    -0.2792990     1.1088070
units angstrom
no_reorient  #important for SAPT in psi4, default
symmetry c1  #important for SAPT in psi4, default
}

set PROPERTIES_ORIGIN ["COM"]
properties('MP2/aug-cc-pvtz', properties = ['dipole'])
--------------------------------------------------------------------------

    Molecular point group: c1
  Charge       = 0
  Multiplicity = 1
  Basis Set: AUG-CC-PVTZ
    Blend: AUG-CC-PVTZ
  Basis Set: (AUG-CC-PVTZ AUX)
    Blend: AUG-CC-PVTZ-JKFIT

    Orbital Energies [Eh]
    ---------------------

    Doubly Occupied:

       1A    -20.629048     2A    -20.567060     3A    -20.512190
       4A    -15.607949     5A    -11.404530     6A    -11.356723
       7A    -11.298883     8A    -11.245736     9A    -11.216167
      10A     -1.472374    11A     -1.374469    12A     -1.354112
      13A     -1.250515    14A     -1.064646    15A     -1.017770
      16A     -0.894395    17A     -0.833986    18A     -0.800671
      19A     -0.720837    20A     -0.717407    21A     -0.695921
      22A     -0.657625    23A     -0.647969    24A     -0.633815
      25A     -0.605792    26A     -0.590048    27A     -0.562319
      28A     -0.544843    29A     -0.531820    30A     -0.503694
      31A     -0.496549    32A     -0.479616    33A     -0.468635
      34A     -0.421428    35A     -0.407565

  @DF-RHF Final Energy:  -473.81793504059294

   => Energetics <=

    Nuclear Repulsion Energy =            457.5658658092831956
    One-Electron Energy =               -1555.5933855162447799
    Two-Electron Energy =                 624.2095846663686416
    Total Energy =                       -473.8179350405929426
  Basis Set: (AUG-CC-PVTZ AUX)
    Blend: AUG-CC-PVTZ-RI
    Molecular point group: c1

    Geometry (in Angstrom), charge = 0, multiplicity = 1:

       Center              X                  Y                   Z               Mass
    ------------   -----------------  -----------------  -----------------  -----------------
         O            1.082195673740    -1.270097224296     0.274920812289    15.994914619570
         O           -3.046864326260    -0.667533224296     0.363216812289    15.994914619570
         O           -1.721664326260     1.120856775704     0.859984812289    15.994914619570
         N            0.132602673740     0.325271775704    -1.053936187711    14.003074004430
         C            2.375949673740     0.723780775704    -0.174833187711    12.000000000000
         C            1.117135773740    -0.109137224296    -0.305279187711    12.000000000000
         C           -1.142879326260    -0.335953224296    -0.993637187711    12.000000000000
         C            3.531853373740     0.144681375704     0.623762012289    12.000000000000
         C           -1.958871326260     0.129596775704     0.193359812289    12.000000000000
         H            2.715241673740     0.950055775704    -1.192376187711     1.007825032230
         H            2.073521673740     1.681958775704     0.267692812289     1.007825032230
         H           -0.980243326260    -1.412564224296    -0.922216187711     1.007825032230
         H           -1.718451326260    -0.143344224296    -1.908110187711     1.007825032230
         H            0.113025673740     1.328607775704    -1.199476187711     1.007825032230
         H            3.786826673740    -0.869304224296     0.191478812289     1.007825032230
         H            4.358491673740     0.737650775704     0.681427812289     1.007825032230
         H            3.149524673740    -0.123448224296     1.653376812289     1.007825032230
         H           -3.548315326260    -0.290362224296     1.114024812289     1.007825032230

  Basis Set: AUG-CC-PVTZ
    Blend: AUG-CC-PVTZ
  Basis Set: (AUG-CC-PVTZ AUX)
    Blend: AUG-CC-PVTZ-JKFIT
	 Reference Energy          =    -473.8179350405929426 [Eh]
	 Singles Energy            =      -0.0000000000000000 [Eh]
	 Same-Spin Energy          =      -0.4682472656976807 [Eh]
	 Opposite-Spin Energy      =      -1.4606495747256971 [Eh]
	 Correlation Energy        =      -1.9288968404233779 [Eh]
	 Total Energy              =    -475.7468318810163055 [Eh]

	 ================> DF-SCS-MP2 Energies <==================
	-----------------------------------------------------------
	 SCS Same-Spin Scale       =       0.3333333333333333 [-]
	 SCS Opposite-Spin Scale   =       1.2000000000000000 [-]
	 SCS Same-Spin Energy      =      -0.1560824218992269 [Eh]
	 SCS Opposite-Spin Energy  =      -1.7527794896708364 [Eh]
	 SCS Correlation Energy    =      -1.9088619115700634 [Eh]
	 SCS Total Energy          =    -475.7267969521629993 [Eh]
	-----------------------------------------------------------

  Dipole Moment: [D]
     X:    -1.3656      Y:     2.2387      Z:    -2.0798     Total:     3.3469

*** Psi4 exiting successfully. Buy a developer a beer!
