                               Psi4 1.3.2 release

  ==> Input File <==

--------------------------------------------------------------------------
#psi4
#
memory 32 gb

molecule  {
0 1
  O        1.0830410    -1.2590340     0.2697030
  O       -3.0460190    -0.6564700     0.3579990
  O       -1.7208190     1.1319200     0.8547670
  N        0.1334480     0.3363350    -1.0591540
  C        2.3767950     0.7348440    -0.1800510
  C        1.1530800    -0.1541890    -0.2667860
  C       -1.1420340    -0.3248900    -0.9988550
  C        3.4883670     0.0910310     0.6318210
  C       -1.9545039     0.1338374     0.1790988
  H        2.7160870     0.9611190    -1.1975940
  H        2.0743670     1.6930220     0.2624750
  H       -0.9793980    -1.4015010    -0.9274340
  H       -1.7176060    -0.1322810    -1.9133280
  H        0.1138710     1.3396710    -1.2046940
  H        3.7876720    -0.8582410     0.1862610
  H        4.3593370     0.7487140     0.6762100
  H        3.1503700    -0.1123850     1.6481590
  H       -3.5532932    -0.2854889     1.1079787
units angstrom
no_reorient  #important for SAPT in psi4, default
symmetry c1  #important for SAPT in psi4, default
}

set PROPERTIES_ORIGIN ["COM"]
properties('MP2/aug-cc-pvtz', properties = ['dipole'])
--------------------------------------------------------------------------

    Molecular point group: c1
  Charge       = 0
  Multiplicity = 1
  Basis Set: AUG-CC-PVTZ
    Blend: AUG-CC-PVTZ
  Basis Set: (AUG-CC-PVTZ AUX)
    Blend: AUG-CC-PVTZ-JKFIT

    Orbital Energies [Eh]
    ---------------------

    Doubly Occupied:

       1A    -20.625502     2A    -20.561479     3A    -20.529103
       4A    -15.593371     5A    -11.400097     6A    -11.356460
       7A    -11.291620     8A    -11.244390     9A    -11.216584
      10A     -1.466195    11A     -1.385152    12A     -1.363196
      13A     -1.242571    14A     -1.064168    15A     -1.009031
      16A     -0.890459    17A     -0.825818    18A     -0.786239
      19A     -0.715122    20A     -0.713323    21A     -0.698236
      22A     -0.653401    23A     -0.644142    24A     -0.636839
      25A     -0.603247    26A     -0.598612    27A     -0.560043
      28A     -0.540620    29A     -0.525531    30A     -0.517559
      31A     -0.494955    32A     -0.488799    33A     -0.468684
      34A     -0.434493    35A     -0.411230

  @DF-RHF Final Energy:  -473.83863764000876

   => Energetics <=

    Nuclear Repulsion Energy =            458.0068373318415524
    One-Electron Energy =               -1556.5784022963707685
    Two-Electron Energy =                 624.7329273245204604
    Total Energy =                       -473.8386376400087556
  Basis Set: (AUG-CC-PVTZ AUX)
    Blend: AUG-CC-PVTZ-RI
    Molecular point group: c1

    Geometry (in Angstrom), charge = 0, multiplicity = 1:

       Center              X                  Y                   Z               Mass
    ------------   -----------------  -----------------  -----------------  -----------------
         O            1.082763338657    -1.258361581431     0.270537261856    15.994914619570
         O           -3.046296661343    -0.655797581431     0.358833261856    15.994914619570
         O           -1.721096661343     1.132592418569     0.855601261856    15.994914619570
         N            0.133170338657     0.337007418569    -1.058319738144    14.003074004430
         C            2.376517338657     0.735516418569    -0.179216738144    12.000000000000
         C            1.152802338657    -0.153516581431    -0.265951738144    12.000000000000
         C           -1.142311661343    -0.324217581431    -0.998020738144    12.000000000000
         C            3.488089338657     0.091703418569     0.632655261856    12.000000000000
         C           -1.954781561343     0.134509818569     0.179933061856    12.000000000000
         H            2.715809338657     0.961791418569    -1.196759738144     1.007825032230
         H            2.074089338657     1.693694418569     0.263309261856     1.007825032230
         H           -0.979675661343    -1.400828581431    -0.926599738144     1.007825032230
         H           -1.717883661343    -0.131608581431    -1.912493738144     1.007825032230
         H            0.113593338657     1.340343418569    -1.203859738144     1.007825032230
         H            3.787394338657    -0.857568581431     0.187095261856     1.007825032230
         H            4.359059338657     0.749386418569     0.677044261856     1.007825032230
         H            3.150092338657    -0.111712581431     1.648993261856     1.007825032230
         H           -3.553570861343    -0.284816481431     1.108812961856     1.007825032230

  Basis Set: AUG-CC-PVTZ
    Blend: AUG-CC-PVTZ
  Basis Set: (AUG-CC-PVTZ AUX)
    Blend: AUG-CC-PVTZ-JKFIT
	 Reference Energy          =    -473.8386376400087556 [Eh]
	 Singles Energy            =      -0.0000000000000000 [Eh]
	 Same-Spin Energy          =      -0.4669454123410829 [Eh]
	 Opposite-Spin Energy      =      -1.4581277838403912 [Eh]
	 Correlation Energy        =      -1.9250731961814740 [Eh]
	 Total Energy              =    -475.7637108361902278 [Eh]

	 ================> DF-SCS-MP2 Energies <==================
	-----------------------------------------------------------
	 SCS Same-Spin Scale       =       0.3333333333333333 [-]
	 SCS Opposite-Spin Scale   =       1.2000000000000000 [-]
	 SCS Same-Spin Energy      =      -0.1556484707803610 [Eh]
	 SCS Opposite-Spin Energy  =      -1.7497533406084693 [Eh]
	 SCS Correlation Energy    =      -1.9054018113888302 [Eh]
	 SCS Total Energy          =    -475.7440394513976116 [Eh]
	-----------------------------------------------------------

  Dipole Moment: [D]
     X:    -0.9411      Y:     1.8302      Z:    -1.7874     Total:     2.7258

*** Psi4 exiting successfully. Buy a developer a beer!
