                               Psi4 1.3.2 release

  ==> Input File <==

--------------------------------------------------------------------------
#psi4
#
memory 32 gb

molecule  {
0 1
  O        1.0830410    -1.2590340     0.2697030
  O       -3.0460190    -0.6564700     0.3579990
  O       -1.7208190     1.1319200     0.8547670
  N        0.1334480     0.3363350    -1.0591540
  C        2.3767950     0.7348440    -0.1800510
  C        1.1915330    -0.2078672    -0.2228372
  C       -1.1420340    -0.3248900    -0.9988550
  C        3.4409886     0.0280820     0.6428725
  C       -1.9580260     0.1406600     0.1881420
  H        2.7160870     0.9611190    -1.1975940
  H        2.0743670     1.6930220     0.2624750
  H       -0.9793980    -1.4015010    -0.9274340
  H       -1.7176060    -0.1322810    -1.9133280
  H        0.1138710     1.3396710    -1.2046940
  H        3.7876720    -0.8582410     0.1862610
  H        4.3593370     0.7487140     0.6762100
  H        3.1503700    -0.1123850     1.6481590
  H       -3.5474700    -0.2792990     1.1088070
units angstrom
no_reorient  #important for SAPT in psi4, default
symmetry c1  #important for SAPT in psi4, default
}

set PROPERTIES_ORIGIN ["COM"]
properties('MP2/aug-cc-pvtz', properties = ['dipole'])
--------------------------------------------------------------------------

    Molecular point group: c1
  Charge       = 0
  Multiplicity = 1
  Basis Set: AUG-CC-PVTZ
    Blend: AUG-CC-PVTZ
  Basis Set: (AUG-CC-PVTZ AUX)
    Blend: AUG-CC-PVTZ-JKFIT

    Orbital Energies [Eh]
    ---------------------

    Doubly Occupied:

       1A    -20.622020     2A    -20.558859     3A    -20.545041
       4A    -15.576491     5A    -11.393584     6A    -11.355167
       7A    -11.283079     8A    -11.245271     9A    -11.219519
      10A     -1.464821    11A     -1.431234    12A     -1.365198
      13A     -1.221677    14A     -1.065973    15A     -0.994091
      16A     -0.887330    17A     -0.817198    18A     -0.772464
      19A     -0.715942    20A     -0.711705    21A     -0.698214
      22A     -0.653547    23A     -0.648728    24A     -0.642739
      25A     -0.610633    26A     -0.599371    27A     -0.560393
      28A     -0.553370    29A     -0.528497    30A     -0.511817
      31A     -0.504710    32A     -0.489179    33A     -0.467030
      34A     -0.435696    35A     -0.402822

  @DF-RHF Final Energy:  -473.82720596197339

   => Energetics <=

    Nuclear Repulsion Energy =            458.6576681342693291
    One-Electron Energy =               -1557.8629278798123323
    Two-Electron Energy =                 625.3780537835697260
    Total Energy =                       -473.8272059619733909
  Basis Set: (AUG-CC-PVTZ AUX)
    Blend: AUG-CC-PVTZ-RI
    Molecular point group: c1

    Geometry (in Angstrom), charge = 0, multiplicity = 1:

       Center              X                  Y                   Z               Mass
    ------------   -----------------  -----------------  -----------------  -----------------
         O            1.083858281102    -1.248355214549     0.264666919304    15.994914619570
         O           -3.045201718898    -0.645791214549     0.352962919304    15.994914619570
         O           -1.720001718898     1.142598785451     0.849730919304    15.994914619570
         N            0.134265281102     0.347013785451    -1.064190080696    14.003074004430
         C            2.377612281102     0.745522785451    -0.185087080696    12.000000000000
         C            1.192350281102    -0.197188414549    -0.227873280696    12.000000000000
         C           -1.141216718898    -0.314211214549    -1.003891080696    12.000000000000
         C            3.441805881102     0.038760785451     0.637836419304    12.000000000000
         C           -1.957208718898     0.151338785451     0.183105919304    12.000000000000
         H            2.716904281102     0.971797785451    -1.202630080696     1.007825032230
         H            2.075184281102     1.703700785451     0.257438919304     1.007825032230
         H           -0.978580718898    -1.390822214549    -0.932470080696     1.007825032230
         H           -1.716788718898    -0.121602214549    -1.918364080696     1.007825032230
         H            0.114688281102     1.350349785451    -1.209730080696     1.007825032230
         H            3.788489281102    -0.847562214549     0.181224919304     1.007825032230
         H            4.360154281102     0.759392785451     0.671173919304     1.007825032230
         H            3.151187281102    -0.101706214549     1.643122919304     1.007825032230
         H           -3.546652718898    -0.268620214549     1.103770919304     1.007825032230

  Basis Set: AUG-CC-PVTZ
    Blend: AUG-CC-PVTZ
  Basis Set: (AUG-CC-PVTZ AUX)
    Blend: AUG-CC-PVTZ-JKFIT
	 Reference Energy          =    -473.8272059619733909 [Eh]
	 Singles Energy            =      -0.0000000000000000 [Eh]
	 Same-Spin Energy          =      -0.4657734583640339 [Eh]
	 Opposite-Spin Energy      =      -1.4560570171302802 [Eh]
	 Correlation Energy        =      -1.9218304754943141 [Eh]
	 Total Energy              =    -475.7490364374676801 [Eh]

	 ================> DF-SCS-MP2 Energies <==================
	-----------------------------------------------------------
	 SCS Same-Spin Scale       =       0.3333333333333333 [-]
	 SCS Opposite-Spin Scale   =       1.2000000000000000 [-]
	 SCS Same-Spin Energy      =      -0.1552578194546780 [Eh]
	 SCS Opposite-Spin Energy  =      -1.7472684205563362 [Eh]
	 SCS Correlation Energy    =      -1.9025262400110141 [Eh]
	 SCS Total Energy          =    -475.7297322019844046 [Eh]
	-----------------------------------------------------------

  Dipole Moment: [D]
     X:    -0.5082      Y:     1.4970      Z:    -1.3923     Total:     2.1066

*** Psi4 exiting successfully. Buy a developer a beer!
