                               Psi4 1.4a3.dev225

  ==> Input File <==

--------------------------------------------------------------------------
#psi4
#
memory 32 gb

molecule  {
0 1
  O        0.8764270    -0.2428500     1.2911470
  O       -3.1675390     0.0980960     0.5443480
  O       -1.5839830     1.3406500    -0.5070920
  N        0.0834400    -0.8734940    -0.7544630
  C        2.2681300     0.2178930    -0.6380450
  C        1.0330250    -0.3000120     0.0721840
  C       -1.2394860    -1.0499030    -0.2084880
  C        3.4385850     0.4137260     0.3159750
  C       -1.9785770     0.2694000    -0.0851210
  H        2.5310470    -0.4685700    -1.4513520
  H        1.9929790     1.1708880    -1.1091590
  H       -1.1549390    -1.4972460     0.7835340
  H       -1.8230450    -1.7308360    -0.8360530
  H        0.1273399    -0.6078467    -1.7115523
  H        3.7379630    -0.5375510     0.7615240
  H        4.2975370     0.8343390    -0.2133880
  H        3.1581410     1.0869690     1.1269820
  H       -3.5812870     0.9851770     0.5837010
units angstrom
no_reorient  #important for SAPT in psi4, default
symmetry c1  #important for SAPT in psi4, default
}

set PROPERTIES_ORIGIN ["COM"]
properties('MP2/aug-cc-pvtz', properties = ['dipole'])
--------------------------------------------------------------------------

    Molecular point group: c1
  Charge       = 0
  Multiplicity = 1
  Basis Set: AUG-CC-PVTZ
    Blend: AUG-CC-PVTZ
  Basis Set: (AUG-CC-PVTZ AUX)
    Blend: AUG-CC-PVTZ-JKFIT

    Orbital Energies [Eh]
    ---------------------

    Doubly Occupied:

       1A    -20.624708     2A    -20.560980     3A    -20.527697
       4A    -15.591590     5A    -11.397792     6A    -11.355308
       7A    -11.292026     8A    -11.243853     9A    -11.217536
      10A     -1.469220    11A     -1.384014    12A     -1.366806
      13A     -1.243428    14A     -1.062315    15A     -1.005633
      16A     -0.889410    17A     -0.824751    18A     -0.788554
      19A     -0.715890    20A     -0.711128    21A     -0.698436
      22A     -0.653148    23A     -0.646830    24A     -0.630307
      25A     -0.604406    26A     -0.599169    27A     -0.559889
      28A     -0.544455    29A     -0.524043    30A     -0.515185
      31A     -0.495114    32A     -0.489708    33A     -0.469023
      34A     -0.432738    35A     -0.411439

  @DF-RHF Final Energy:  -473.84024012936942

   => Energetics <=

    Nuclear Repulsion Energy =            460.5890023367445565
    One-Electron Energy =               -1561.7654194013859978
    Two-Electron Energy =                 627.3361769352721922
    Total Energy =                       -473.8402401293693629
  Basis Set: (AUG-CC-PVTZ AUX)
    Blend: AUG-CC-PVTZ-RI
    Molecular point group: c1

    Geometry (in Angstrom), charge = 0, multiplicity = 1:

       Center              X                  Y                   Z               Mass
    ------------   -----------------  -----------------  -----------------  -----------------
         O            0.946585700963    -0.248490553023     1.275283645446    15.994914619570
         O           -3.097380299037     0.092455446977     0.528484645446    15.994914619570
         O           -1.513824299037     1.335009446977    -0.522955354554    15.994914619570
         N            0.153598700963    -0.879134553023    -0.770326354554    14.003074004430
         C            2.338288700963     0.212252446977    -0.653908354554    12.000000000000
         C            1.103183700963    -0.305652553023     0.056320645446    12.000000000000
         C           -1.169327299037    -1.055543553023    -0.224351354554    12.000000000000
         C            3.508743700963     0.408085446977     0.300111645446    12.000000000000
         C           -1.908418299037     0.263759446977    -0.100984354554    12.000000000000
         H            2.601205700963    -0.474210553023    -1.467215354554     1.007825032230
         H            2.063137700963     1.165247446977    -1.125022354554     1.007825032230
         H           -1.084780299037    -1.502886553023     0.767670645446     1.007825032230
         H           -1.752886299037    -1.736476553023    -0.851916354554     1.007825032230
         H            0.197498600963    -0.613487253023    -1.727415654554     1.007825032230
         H            3.808121700963    -0.543191553023     0.745660645446     1.007825032230
         H            4.367695700963     0.828698446977    -0.229251354554     1.007825032230
         H            3.228299700963     1.081328446977     1.111118645446     1.007825032230
         H           -3.511128299037     0.979536446977     0.567837645446     1.007825032230

  Basis Set: AUG-CC-PVTZ
    Blend: AUG-CC-PVTZ
  Basis Set: (AUG-CC-PVTZ AUX)
    Blend: AUG-CC-PVTZ-JKFIT
	 Reference Energy          =    -473.8402401293694197 [Eh]
	 Singles Energy            =      -0.0000000000000000 [Eh]
	 Same-Spin Energy          =      -0.4666787173880372 [Eh]
	 Opposite-Spin Energy      =      -1.4576337782019149 [Eh]
	 Correlation Energy        =      -1.9243124955899522 [Eh]
	 Total Energy              =    -475.7645526249593786 [Eh]

	 ================> DF-SCS-MP2 Energies <==================
	-----------------------------------------------------------
	 SCS Same-Spin Scale       =       0.3333333333333333 [-]
	 SCS Opposite-Spin Scale   =       1.2000000000000000 [-]
	 SCS Same-Spin Energy      =      -0.1555595724626791 [Eh]
	 SCS Opposite-Spin Energy  =      -1.7491605338422977 [Eh]
	 SCS Correlation Energy    =      -1.9047201063049768 [Eh]
	 SCS Total Energy          =    -475.7449602356743981 [Eh]
	-----------------------------------------------------------

  Dipole Moment: [D]
     X:    -0.9007      Y:    -0.7858      Z:    -2.6489     Total:     2.9061

*** Psi4 exiting successfully. Buy a developer a beer!
