                               Psi4 1.3.2 release

  ==> Input File <==

--------------------------------------------------------------------------
#psi4
#
memory 32 gb

molecule  {
0 1
  O        1.0830410    -1.2590340     0.2697030
  O       -3.0460190    -0.6564700     0.3579990
  O       -1.7208190     1.1319200     0.8547670
  N        0.1334480     0.3363350    -1.0591540
  C        2.3767950     0.7348440    -0.1800510
  C        1.1530800    -0.1541890    -0.2667860
  C       -1.1420340    -0.3248900    -0.9988550
  C        3.4883670     0.0910310     0.6318210
  C       -1.9729404     0.1673382     0.2244371
  H        2.7160870     0.9611190    -1.1975940
  H        2.0743670     1.6930220     0.2624750
  H       -0.9793980    -1.4015010    -0.9274340
  H       -1.7176060    -0.1322810    -1.9133280
  H        0.1138710     1.3396710    -1.2046940
  H        3.7876720    -0.8582410     0.1862610
  H        4.3593370     0.7487140     0.6762100
  H        3.1503700    -0.1123850     1.6481590
  H       -3.5237996    -0.2548311     1.1115477
units angstrom
no_reorient  #important for SAPT in psi4, default
symmetry c1  #important for SAPT in psi4, default
}

set PROPERTIES_ORIGIN ["COM"]
properties('MP2/aug-cc-pvtz', properties = ['dipole'])
--------------------------------------------------------------------------

    Molecular point group: c1
  Charge       = 0
  Multiplicity = 1
  Basis Set: AUG-CC-PVTZ
    Blend: AUG-CC-PVTZ
  Basis Set: (AUG-CC-PVTZ AUX)
    Blend: AUG-CC-PVTZ-JKFIT

    Orbital Energies [Eh]
    ---------------------

    Doubly Occupied:

       1A    -20.625804     2A    -20.568911     3A    -20.527437
       4A    -15.590752     5A    -11.394973     6A    -11.354629
       7A    -11.287647     8A    -11.243581     9A    -11.216070
      10A     -1.480515    11A     -1.390389    12A     -1.382203
      13A     -1.239043    14A     -1.061223    15A     -0.994767
      16A     -0.886480    17A     -0.820015    18A     -0.783491
      19A     -0.723840    20A     -0.711405    21A     -0.698342
      22A     -0.653927    23A     -0.644802    24A     -0.637752
      25A     -0.610399    26A     -0.600011    27A     -0.557574
      28A     -0.540569    29A     -0.524242    30A     -0.516901
      31A     -0.506561    32A     -0.494371    33A     -0.469955
      34A     -0.432171    35A     -0.405271

  @DF-RHF Final Energy:  -473.83875265987911

   => Energetics <=

    Nuclear Repulsion Energy =            458.1396193211131731
    One-Electron Energy =               -1556.8046907418718092
    Two-Electron Energy =                 624.8263187608794169
    Total Energy =                       -473.8387526598791055
  Basis Set: (AUG-CC-PVTZ AUX)
    Blend: AUG-CC-PVTZ-RI
    Molecular point group: c1

    Geometry (in Angstrom), charge = 0, multiplicity = 1:

       Center              X                  Y                   Z               Mass
    ------------   -----------------  -----------------  -----------------  -----------------
         O            1.084224624929    -1.261664748693     0.266358535555    15.994914619570
         O           -3.044835375071    -0.659100748693     0.354654535555    15.994914619570
         O           -1.719635375071     1.129289251307     0.851422535555    15.994914619570
         N            0.134631624929     0.333704251307    -1.062498464445    14.003074004430
         C            2.377978624929     0.732213251307    -0.183395464445    12.000000000000
         C            1.154263624929    -0.156819748693    -0.270130464445    12.000000000000
         C           -1.140850375071    -0.327520748693    -1.002199464445    12.000000000000
         C            3.489550624929     0.088400251307     0.628476535555    12.000000000000
         C           -1.971756775071     0.164707451307     0.221092635555    12.000000000000
         H            2.717270624929     0.958488251307    -1.200938464445     1.007825032230
         H            2.075550624929     1.690391251307     0.259130535555     1.007825032230
         H           -0.978214375071    -1.404131748693    -0.930778464445     1.007825032230
         H           -1.716422375071    -0.134911748693    -1.916672464445     1.007825032230
         H            0.115054624929     1.337040251307    -1.208038464445     1.007825032230
         H            3.788855624929    -0.860871748693     0.182916535555     1.007825032230
         H            4.360520624929     0.746083251307     0.672865535555     1.007825032230
         H            3.151553624929    -0.115015748693     1.644814535555     1.007825032230
         H           -3.522615975071    -0.257461848693     1.108203235555     1.007825032230

  Basis Set: AUG-CC-PVTZ
    Blend: AUG-CC-PVTZ
  Basis Set: (AUG-CC-PVTZ AUX)
    Blend: AUG-CC-PVTZ-JKFIT
	 Reference Energy          =    -473.8387526598791055 [Eh]
	 Singles Energy            =      -0.0000000000000000 [Eh]
	 Same-Spin Energy          =      -0.4660907293729090 [Eh]
	 Opposite-Spin Energy      =      -1.4564420495624897 [Eh]
	 Correlation Energy        =      -1.9225327789353988 [Eh]
	 Total Energy              =    -475.7612854388145252 [Eh]

	 ================> DF-SCS-MP2 Energies <==================
	-----------------------------------------------------------
	 SCS Same-Spin Scale       =       0.3333333333333333 [-]
	 SCS Opposite-Spin Scale   =       1.2000000000000000 [-]
	 SCS Same-Spin Energy      =      -0.1553635764576363 [Eh]
	 SCS Opposite-Spin Energy  =      -1.7477304594749876 [Eh]
	 SCS Correlation Energy    =      -1.9030940359326238 [Eh]
	 SCS Total Energy          =    -475.7418466958117165 [Eh]
	-----------------------------------------------------------

  Dipole Moment: [D]
     X:    -0.9944      Y:     2.0658      Z:    -1.5747     Total:     2.7813

*** Psi4 exiting successfully. Buy a developer a beer!
