                               Psi4 1.3.2 release

  ==> Input File <==

--------------------------------------------------------------------------
#psi4
#
memory 32 gb

molecule  {
0 1
  O        1.0830410    -1.2590340     0.2697030
  O       -3.0460190    -0.6564700     0.3579990
  O       -1.7208190     1.1319200     0.8547670
  N        0.1334480     0.3363350    -1.0591540
  C        2.3767950     0.7348440    -0.1800510
  C        1.1530800    -0.1541890    -0.2667860
  C       -1.1420340    -0.3248900    -0.9988550
  C        3.4382611     0.0872155     0.6934997
  C       -1.9580260     0.1406600     0.1881420
  H        2.6639097     0.9823046    -1.2086625
  H        2.0743670     1.6930220     0.2624750
  H       -0.9793980    -1.4015010    -0.9274340
  H       -1.7176060    -0.1322810    -1.9133280
  H        0.1138710     1.3396710    -1.2046940
  H        3.7876720    -0.8582410     0.1862610
  H        4.3593370     0.7487140     0.6762100
  H        3.1503700    -0.1123850     1.6481590
  H       -3.5474700    -0.2792990     1.1088070
units angstrom
no_reorient  #important for SAPT in psi4, default
symmetry c1  #important for SAPT in psi4, default
}

set PROPERTIES_ORIGIN ["COM"]
properties('MP2/aug-cc-pvtz', properties = ['dipole'])
--------------------------------------------------------------------------

    Molecular point group: c1
  Charge       = 0
  Multiplicity = 1
  Basis Set: AUG-CC-PVTZ
    Blend: AUG-CC-PVTZ
  Basis Set: (AUG-CC-PVTZ AUX)
    Blend: AUG-CC-PVTZ-JKFIT

    Orbital Energies [Eh]
    ---------------------

    Doubly Occupied:

       1A    -20.625449     2A    -20.562865     3A    -20.528384
       4A    -15.592395     5A    -11.398890     6A    -11.355018
       7A    -11.290736     8A    -11.245100     9A    -11.218461
      10A     -1.468478    11A     -1.384717    12A     -1.368533
      13A     -1.241661    14A     -1.064210    15A     -1.005982
      16A     -0.891277    17A     -0.825188    18A     -0.785650
      19A     -0.716059    20A     -0.713074    21A     -0.698032
      22A     -0.653065    23A     -0.644629    24A     -0.637776
      25A     -0.605294    26A     -0.597285    27A     -0.560784
      28A     -0.547798    29A     -0.530823    30A     -0.509755
      31A     -0.493198    32A     -0.488002    33A     -0.469143
      34A     -0.433307    35A     -0.409820

  @DF-RHF Final Energy:  -473.83134290698399

   => Energetics <=

    Nuclear Repulsion Energy =            458.4210757179640154
    One-Electron Energy =               -1557.3831624443494093
    Two-Electron Energy =                 625.1307438194014594
    Total Energy =                       -473.8313429069839913
  Basis Set: (AUG-CC-PVTZ AUX)
    Blend: AUG-CC-PVTZ-RI
    Molecular point group: c1

    Geometry (in Angstrom), charge = 0, multiplicity = 1:

       Center              X                  Y                   Z               Mass
    ------------   -----------------  -----------------  -----------------  -----------------
         O            1.088030102545    -1.258847433466     0.264140545022    15.994914619570
         O           -3.041029897455    -0.656283433466     0.352436545022    15.994914619570
         O           -1.715829897455     1.132106566534     0.849204545022    15.994914619570
         N            0.138437102545     0.336521566534    -1.064716454978    14.003074004430
         C            2.381784102545     0.735030566534    -0.185613454978    12.000000000000
         C            1.158069102545    -0.154002433466    -0.272348454978    12.000000000000
         C           -1.137044897455    -0.324703433466    -1.004417454978    12.000000000000
         C            3.443250202545     0.087402066534     0.687937245022    12.000000000000
         C           -1.953036897455     0.140846566534     0.182579545022    12.000000000000
         H            2.668898802545     0.982491166534    -1.214224954978     1.007825032230
         H            2.079356102545     1.693208566534     0.256912545022     1.007825032230
         H           -0.974408897455    -1.401314433466    -0.932996454978     1.007825032230
         H           -1.712616897455    -0.132094433466    -1.918890454978     1.007825032230
         H            0.118860102545     1.339857566534    -1.210256454978     1.007825032230
         H            3.792661102545    -0.858054433466     0.180698545022     1.007825032230
         H            4.364326102545     0.748900566534     0.670647545022     1.007825032230
         H            3.155359102545    -0.112198433466     1.642596545022     1.007825032230
         H           -3.542480897455    -0.279112433466     1.103244545022     1.007825032230

  Basis Set: AUG-CC-PVTZ
    Blend: AUG-CC-PVTZ
  Basis Set: (AUG-CC-PVTZ AUX)
    Blend: AUG-CC-PVTZ-JKFIT
	 Reference Energy          =    -473.8313429069839913 [Eh]
	 Singles Energy            =      -0.0000000000000000 [Eh]
	 Same-Spin Energy          =      -0.4669065280824743 [Eh]
	 Opposite-Spin Energy      =      -1.4580589070505963 [Eh]
	 Correlation Energy        =      -1.9249654351330707 [Eh]
	 Total Energy              =    -475.7563083421170518 [Eh]

	 ================> DF-SCS-MP2 Energies <==================
	-----------------------------------------------------------
	 SCS Same-Spin Scale       =       0.3333333333333333 [-]
	 SCS Opposite-Spin Scale   =       1.2000000000000000 [-]
	 SCS Same-Spin Energy      =      -0.1556355093608248 [Eh]
	 SCS Opposite-Spin Energy  =      -1.7496706884607154 [Eh]
	 SCS Correlation Energy    =      -1.9053061978215402 [Eh]
	 SCS Total Energy          =    -475.7366491048055082 [Eh]
	-----------------------------------------------------------

  Dipole Moment: [D]
     X:    -0.9668      Y:     1.8829      Z:    -1.7326     Total:     2.7353

*** Psi4 exiting successfully. Buy a developer a beer!
