                               Psi4 1.3.2 release

  ==> Input File <==

--------------------------------------------------------------------------
#psi4
#
memory 32 gb

molecule  {
0 1
  O        1.0830410    -1.2590340     0.2697030
  O       -3.0460190    -0.6564700     0.3579990
  O       -1.6704524     1.1430272     0.8172794
  N        0.1334480     0.3363350    -1.0591540
  C        2.3767950     0.7348440    -0.1800510
  C        1.1530800    -0.1541890    -0.2667860
  C       -1.0943231    -0.2625717    -0.9878525
  C        3.4883670     0.0910310     0.6318210
  C       -1.9580260     0.1406600     0.1881420
  H        2.7160870     0.9611190    -1.1975940
  H        2.0743670     1.6930220     0.2624750
  H       -0.9793980    -1.4015010    -0.9274340
  H       -1.7176060    -0.1322810    -1.9133280
  H        0.1138710     1.3396710    -1.2046940
  H        3.7876720    -0.8582410     0.1862610
  H        4.3593370     0.7487140     0.6762100
  H        3.1503700    -0.1123850     1.6481590
  H       -3.5474700    -0.2792990     1.1088070
units angstrom
no_reorient  #important for SAPT in psi4, default
symmetry c1  #important for SAPT in psi4, default
}

set PROPERTIES_ORIGIN ["COM"]
properties('MP2/aug-cc-pvtz', properties = ['dipole'])
--------------------------------------------------------------------------

    Molecular point group: c1
  Charge       = 0
  Multiplicity = 1
  Basis Set: AUG-CC-PVTZ
    Blend: AUG-CC-PVTZ
  Basis Set: (AUG-CC-PVTZ AUX)
    Blend: AUG-CC-PVTZ-JKFIT

    Orbital Energies [Eh]
    ---------------------

    Doubly Occupied:

       1A    -20.630600     2A    -20.559999     3A    -20.530841
       4A    -15.592273     5A    -11.396461     6A    -11.357833
       7A    -11.287647     8A    -11.245237     9A    -11.217160
      10A     -1.467586    11A     -1.388646    12A     -1.371513
      13A     -1.258062    14A     -1.064504    15A     -0.998859
      16A     -0.893260    17A     -0.825612    18A     -0.788937
      19A     -0.719419    20A     -0.716627    21A     -0.698213
      22A     -0.663683    23A     -0.641801    24A     -0.637773
      25A     -0.606946    26A     -0.601217    27A     -0.541638
      28A     -0.538666    29A     -0.523837    30A     -0.518236
      31A     -0.495676    32A     -0.490876    33A     -0.465682
      34A     -0.436608    35A     -0.408308

  @DF-RHF Final Energy:  -473.83017137613831

   => Energetics <=

    Nuclear Repulsion Energy =            459.6236675687070488
    One-Electron Energy =               -1559.7472091029537751
    Two-Electron Energy =                 626.2933701581083596
    Total Energy =                       -473.8301713761383098
  Basis Set: (AUG-CC-PVTZ AUX)
    Blend: AUG-CC-PVTZ-RI
    Molecular point group: c1

    Geometry (in Angstrom), charge = 0, multiplicity = 1:

       Center              X                  Y                   Z               Mass
    ------------   -----------------  -----------------  -----------------  -----------------
         O            1.072525571072    -1.266095454764     0.273270609802    15.994914619570
         O           -3.056534428928    -0.663531454764     0.361566609802    15.994914619570
         O           -1.680967828928     1.135965745236     0.820847009802    15.994914619570
         N            0.122932571072     0.329273545236    -1.055586390198    14.003074004430
         C            2.366279571072     0.727782545236    -0.176483390198    12.000000000000
         C            1.142564571072    -0.161250454764    -0.263218390198    12.000000000000
         C           -1.104838528928    -0.269633154764    -0.984284890198    12.000000000000
         C            3.477851571072     0.083969545236     0.635388609802    12.000000000000
         C           -1.968541428928     0.133598545236     0.191709609802    12.000000000000
         H            2.705571571072     0.954057545236    -1.194026390198     1.007825032230
         H            2.063851571072     1.685960545236     0.266042609802     1.007825032230
         H           -0.989913428928    -1.408562454764    -0.923866390198     1.007825032230
         H           -1.728121428928    -0.139342454764    -1.909760390198     1.007825032230
         H            0.103355571072     1.332609545236    -1.201126390198     1.007825032230
         H            3.777156571072    -0.865302454764     0.189828609802     1.007825032230
         H            4.348821571072     0.741652545236     0.679777609802     1.007825032230
         H            3.139854571072    -0.119446454764     1.651726609802     1.007825032230
         H           -3.557985428928    -0.286360454764     1.112374609802     1.007825032230

  Basis Set: AUG-CC-PVTZ
    Blend: AUG-CC-PVTZ
  Basis Set: (AUG-CC-PVTZ AUX)
    Blend: AUG-CC-PVTZ-JKFIT
	 Reference Energy          =    -473.8301713761383098 [Eh]
	 Singles Energy            =      -0.0000000000000000 [Eh]
	 Same-Spin Energy          =      -0.4676189759004933 [Eh]
	 Opposite-Spin Energy      =      -1.4584939701072810 [Eh]
	 Correlation Energy        =      -1.9261129460077744 [Eh]
	 Total Energy              =    -475.7562843221460867 [Eh]

	 ================> DF-SCS-MP2 Energies <==================
	-----------------------------------------------------------
	 SCS Same-Spin Scale       =       0.3333333333333333 [-]
	 SCS Opposite-Spin Scale   =       1.2000000000000000 [-]
	 SCS Same-Spin Energy      =      -0.1558729919668311 [Eh]
	 SCS Opposite-Spin Energy  =      -1.7501927641287371 [Eh]
	 SCS Correlation Energy    =      -1.9060657560955683 [Eh]
	 SCS Total Energy          =    -475.7362371322338959 [Eh]
	-----------------------------------------------------------

  Dipole Moment: [D]
     X:    -0.8907      Y:     1.8901      Z:    -1.6177     Total:     2.6426

*** Psi4 exiting successfully. Buy a developer a beer!
