                               Psi4 1.3.2 release

  ==> Input File <==

--------------------------------------------------------------------------
#psi4
#
memory 32 gb

molecule  {
0 1
  O        1.0830410    -1.2590340     0.2697030
  O       -3.0460190    -0.6564700     0.3579990
  O       -1.7208190     1.1319200     0.8547670
  N        0.1305472     0.3427582    -1.0487717
  C        2.3767950     0.7348440    -0.1800510
  C        1.1530800    -0.1541890    -0.2667860
  C       -1.1420340    -0.3248900    -0.9988550
  C        3.4883670     0.0910310     0.6318210
  C       -1.9482169     0.1487956     0.1916208
  H        2.7160870     0.9611190    -1.1975940
  H        2.0743670     1.6930220     0.2624750
  H       -0.9793980    -1.4015010    -0.9274340
  H       -1.7176060    -0.1322810    -1.9133280
  H        0.1138710     1.3396710    -1.2046940
  H        3.7876720    -0.8582410     0.1862610
  H        4.3593370     0.7487140     0.6762100
  H        3.1503700    -0.1123850     1.6481590
  H       -3.5474700    -0.2792990     1.1088070
units angstrom
no_reorient  #important for SAPT in psi4, default
symmetry c1  #important for SAPT in psi4, default
}

set PROPERTIES_ORIGIN ["COM"]
properties('MP2/aug-cc-pvtz', properties = ['dipole'])
--------------------------------------------------------------------------

    Molecular point group: c1
  Charge       = 0
  Multiplicity = 1
  Basis Set: AUG-CC-PVTZ
    Blend: AUG-CC-PVTZ
  Basis Set: (AUG-CC-PVTZ AUX)
    Blend: AUG-CC-PVTZ-JKFIT

    Orbital Energies [Eh]
    ---------------------

    Doubly Occupied:

       1A    -20.621685     2A    -20.565236     3A    -20.528562
       4A    -15.592465     5A    -11.398049     6A    -11.356122
       7A    -11.291194     8A    -11.244293     9A    -11.216557
      10A     -1.466467    11A     -1.384917    12A     -1.371504
      13A     -1.242942    14A     -1.063669    15A     -1.005981
      16A     -0.889042    17A     -0.821563    18A     -0.787547
      19A     -0.716491    20A     -0.712145    21A     -0.698477
      22A     -0.652629    23A     -0.643594    24A     -0.637071
      25A     -0.605447    26A     -0.600299    27A     -0.559552
      28A     -0.540963    29A     -0.525356    30A     -0.517553
      31A     -0.497057    32A     -0.493416    33A     -0.470306
      34A     -0.433739    35A     -0.409867

  @DF-RHF Final Energy:  -473.83997430961989

   => Energetics <=

    Nuclear Repulsion Energy =            458.2403942915161679
    One-Electron Energy =               -1557.0372267535988158
    Two-Electron Energy =                 624.9568581524627007
    Total Energy =                       -473.8399743096199472
  Basis Set: (AUG-CC-PVTZ AUX)
    Blend: AUG-CC-PVTZ-RI
    Molecular point group: c1

    Geometry (in Angstrom), charge = 0, multiplicity = 1:

       Center              X                  Y                   Z               Mass
    ------------   -----------------  -----------------  -----------------  -----------------
         O            1.082452845790    -1.260465083465     0.268275039430    15.994914619570
         O           -3.046607154210    -0.657901083465     0.356571039430    15.994914619570
         O           -1.721407154210     1.130488916535     0.853339039430    15.994914619570
         N            0.129959045790     0.341327116535    -1.050199660570    14.003074004430
         C            2.376206845790     0.733412916535    -0.181478960570    12.000000000000
         C            1.152491845790    -0.155620083465    -0.268213960570    12.000000000000
         C           -1.142622154210    -0.326321083465    -1.000282960570    12.000000000000
         C            3.487778845790     0.089599916535     0.630393039430    12.000000000000
         C           -1.948805054210     0.147364516535     0.190192839430    12.000000000000
         H            2.715498845790     0.959687916535    -1.199021960570     1.007825032230
         H            2.073778845790     1.691590916535     0.261047039430     1.007825032230
         H           -0.979986154210    -1.402932083465    -0.928861960570     1.007825032230
         H           -1.718194154210    -0.133712083465    -1.914755960570     1.007825032230
         H            0.113282845790     1.338239916535    -1.206121960570     1.007825032230
         H            3.787083845790    -0.859672083465     0.184833039430     1.007825032230
         H            4.358748845790     0.747282916535     0.674782039430     1.007825032230
         H            3.149781845790    -0.113816083465     1.646731039430     1.007825032230
         H           -3.548058154210    -0.280730083465     1.107379039430     1.007825032230

  Basis Set: AUG-CC-PVTZ
    Blend: AUG-CC-PVTZ
  Basis Set: (AUG-CC-PVTZ AUX)
    Blend: AUG-CC-PVTZ-JKFIT
	 Reference Energy          =    -473.8399743096198904 [Eh]
	 Singles Energy            =      -0.0000000000000000 [Eh]
	 Same-Spin Energy          =      -0.4666161766422705 [Eh]
	 Opposite-Spin Energy      =      -1.4574828341874331 [Eh]
	 Correlation Energy        =      -1.9240990108297036 [Eh]
	 Total Energy              =    -475.7640733204495973 [Eh]

	 ================> DF-SCS-MP2 Energies <==================
	-----------------------------------------------------------
	 SCS Same-Spin Scale       =       0.3333333333333333 [-]
	 SCS Opposite-Spin Scale   =       1.2000000000000000 [-]
	 SCS Same-Spin Energy      =      -0.1555387255474235 [Eh]
	 SCS Opposite-Spin Energy  =      -1.7489794010249196 [Eh]
	 SCS Correlation Energy    =      -1.9045181265723430 [Eh]
	 SCS Total Energy          =    -475.7444924361922176 [Eh]
	-----------------------------------------------------------

  Dipole Moment: [D]
     X:    -0.8784      Y:     1.9538      Z:    -1.7709     Total:     2.7794

*** Psi4 exiting successfully. Buy a developer a beer!
