                               Psi4 1.3.2 release

  ==> Input File <==

--------------------------------------------------------------------------
#psi4
#
memory 32 gb

molecule  {
0 1
  O        1.0830410    -1.2590340     0.2697030
  O       -3.0422800    -0.6633792     0.3491100
  O       -1.7119376     1.1335142     0.8491515
  N        0.1334480     0.3363350    -1.0591540
  C        2.3767950     0.7348440    -0.1800510
  C        1.1530800    -0.1541890    -0.2667860
  C       -1.1420340    -0.3248900    -0.9988550
  C        3.4883670     0.0910310     0.6318210
  C       -1.9580260     0.1406600     0.1881420
  H        2.7160870     0.9611190    -1.1975940
  H        2.0743670     1.6930220     0.2624750
  H       -0.9793980    -1.4015010    -0.9274340
  H       -1.7176060    -0.1322810    -1.9133280
  H        0.1138710     1.3396710    -1.2046940
  H        3.7876720    -0.8582410     0.1862610
  H        4.3593370     0.7487140     0.6762100
  H        3.1503700    -0.1123850     1.6481590
  H       -3.5474700    -0.2792990     1.1088070
units angstrom
no_reorient  #important for SAPT in psi4, default
symmetry c1  #important for SAPT in psi4, default
}

set PROPERTIES_ORIGIN ["COM"]
properties('MP2/aug-cc-pvtz', properties = ['dipole'])
--------------------------------------------------------------------------

    Molecular point group: c1
  Charge       = 0
  Multiplicity = 1
  Basis Set: AUG-CC-PVTZ
    Blend: AUG-CC-PVTZ
  Basis Set: (AUG-CC-PVTZ AUX)
    Blend: AUG-CC-PVTZ-JKFIT

    Orbital Energies [Eh]
    ---------------------

    Doubly Occupied:

       1A    -20.627919     2A    -20.563660     3A    -20.528353
       4A    -15.592166     5A    -11.399101     6A    -11.355670
       7A    -11.289788     8A    -11.243937     9A    -11.216272
      10A     -1.467610    11A     -1.384490    12A     -1.369328
      13A     -1.241208    14A     -1.063090    15A     -1.005254
      16A     -0.889037    17A     -0.822731    18A     -0.785051
      19A     -0.716435    20A     -0.712261    21A     -0.698125
      22A     -0.652724    23A     -0.644013    24A     -0.636819
      25A     -0.604342    26A     -0.599503    27A     -0.559025
      28A     -0.540137    29A     -0.524969    30A     -0.517183
      31A     -0.495686    32A     -0.492197    33A     -0.469305
      34A     -0.433600    35A     -0.409531

  @DF-RHF Final Energy:  -473.83846984463435

   => Energetics <=

    Nuclear Repulsion Energy =            458.1161469003642992
    One-Electron Energy =               -1556.8081872114282760
    Two-Electron Energy =                 624.8535704664295736
    Total Energy =                       -473.8384698446343464
  Basis Set: (AUG-CC-PVTZ AUX)
    Blend: AUG-CC-PVTZ-RI
    Molecular point group: c1

    Geometry (in Angstrom), charge = 0, multiplicity = 1:

       Center              X                  Y                   Z               Mass
    ------------   -----------------  -----------------  -----------------  -----------------
         O            1.081500802373    -1.258385208826     0.271473067606    15.994914619570
         O           -3.043820197627    -0.662730408826     0.350880067606    15.994914619570
         O           -1.713477797627     1.134162991174     0.850921567606    15.994914619570
         N            0.131907802373     0.336983791174    -1.057383932394    14.003074004430
         C            2.375254802373     0.735492791174    -0.178280932394    12.000000000000
         C            1.151539802373    -0.153540208826    -0.265015932394    12.000000000000
         C           -1.143574197627    -0.324241208826    -0.997084932394    12.000000000000
         C            3.486826802373     0.091679791174     0.633591067606    12.000000000000
         C           -1.959566197627     0.141308791174     0.189912067606    12.000000000000
         H            2.714546802373     0.961767791174    -1.195823932394     1.007825032230
         H            2.072826802373     1.693670791174     0.264245067606     1.007825032230
         H           -0.980938197627    -1.400852208826    -0.925663932394     1.007825032230
         H           -1.719146197627    -0.131632208826    -1.911557932394     1.007825032230
         H            0.112330802373     1.340319791174    -1.202923932394     1.007825032230
         H            3.786131802373    -0.857592208826     0.188031067606     1.007825032230
         H            4.357796802373     0.749362791174     0.677980067606     1.007825032230
         H            3.148829802373    -0.111736208826     1.649929067606     1.007825032230
         H           -3.549010197627    -0.278650208826     1.110577067606     1.007825032230

  Basis Set: AUG-CC-PVTZ
    Blend: AUG-CC-PVTZ
  Basis Set: (AUG-CC-PVTZ AUX)
    Blend: AUG-CC-PVTZ-JKFIT
	 Reference Energy          =    -473.8384698446343464 [Eh]
	 Singles Energy            =      -0.0000000000000000 [Eh]
	 Same-Spin Energy          =      -0.4669935472842177 [Eh]
	 Opposite-Spin Energy      =      -1.4582697252238386 [Eh]
	 Correlation Energy        =      -1.9252632725080563 [Eh]
	 Total Energy              =    -475.7637331171424080 [Eh]

	 ================> DF-SCS-MP2 Energies <==================
	-----------------------------------------------------------
	 SCS Same-Spin Scale       =       0.3333333333333333 [-]
	 SCS Opposite-Spin Scale   =       1.2000000000000000 [-]
	 SCS Same-Spin Energy      =      -0.1556645157614059 [Eh]
	 SCS Opposite-Spin Energy  =      -1.7499236702686063 [Eh]
	 SCS Correlation Energy    =      -1.9055881860300121 [Eh]
	 SCS Total Energy          =    -475.7440580306643483 [Eh]
	-----------------------------------------------------------

  Dipole Moment: [D]
     X:    -1.0002      Y:     1.8823      Z:    -1.7120     Total:     2.7340

*** Psi4 exiting successfully. Buy a developer a beer!
