                               Psi4 1.3.2 release

  ==> Input File <==

--------------------------------------------------------------------------
#psi4
#
memory 32 gb

molecule  {
0 1
  O        1.0830410    -1.2590340     0.2697030
  O       -3.0460190    -0.6564700     0.3579990
  O       -1.7208190     1.1319200     0.8547670
  N        0.1334480     0.3363350    -1.0591540
  C        2.3767950     0.7348440    -0.1800510
  C        1.1530800    -0.1541890    -0.2667860
  C       -1.1420340    -0.3248900    -0.9988550
  C        3.4552933     0.0882905     0.6731979
  C       -1.9580260     0.1406600     0.1881420
  H        2.6813967     0.9753152    -1.2052849
  H        2.0743670     1.6930220     0.2624750
  H       -0.9793980    -1.4015010    -0.9274340
  H       -1.7176060    -0.1322810    -1.9133280
  H        0.1138710     1.3396710    -1.2046940
  H        3.7876720    -0.8582410     0.1862610
  H        4.3593370     0.7487140     0.6762100
  H        3.1503700    -0.1123850     1.6481590
  H       -3.5474700    -0.2792990     1.1088070
units angstrom
no_reorient  #important for SAPT in psi4, default
symmetry c1  #important for SAPT in psi4, default
}

set PROPERTIES_ORIGIN ["COM"]
properties('MP2/aug-cc-pvtz', properties = ['dipole'])
--------------------------------------------------------------------------

    Molecular point group: c1
  Charge       = 0
  Multiplicity = 1
  Basis Set: AUG-CC-PVTZ
    Blend: AUG-CC-PVTZ
  Basis Set: (AUG-CC-PVTZ AUX)
    Blend: AUG-CC-PVTZ-JKFIT

    Orbital Energies [Eh]
    ---------------------

    Doubly Occupied:

       1A    -20.625462     2A    -20.562884     3A    -20.528488
       4A    -15.592522     5A    -11.398914     6A    -11.355351
       7A    -11.290785     8A    -11.244690     9A    -11.217542
      10A     -1.468493    11A     -1.384746    12A     -1.368550
      13A     -1.241712    14A     -1.063860    15A     -1.005976
      16A     -0.890502    17A     -0.824933    18A     -0.785617
      19A     -0.716069    20A     -0.713014    21A     -0.698079
      22A     -0.653078    23A     -0.644371    24A     -0.637412
      25A     -0.604929    26A     -0.597957    27A     -0.559977
      28A     -0.543739    29A     -0.528076    30A     -0.514203
      31A     -0.494063    32A     -0.490792    33A     -0.469196
      34A     -0.433544    35A     -0.409944

  @DF-RHF Final Energy:  -473.83609735964512

   => Energetics <=

    Nuclear Repulsion Energy =            458.2859986393313534
    One-Electron Energy =               -1557.1252558887483701
    Two-Electron Energy =                 625.0031598897718368
    Total Energy =                       -473.8360973596451231
  Basis Set: (AUG-CC-PVTZ AUX)
    Blend: AUG-CC-PVTZ-RI
    Molecular point group: c1

    Geometry (in Angstrom), charge = 0, multiplicity = 1:

       Center              X                  Y                   Z               Mass
    ------------   -----------------  -----------------  -----------------  -----------------
         O            1.086336121068    -1.258892115186     0.265973452014    15.994914619570
         O           -3.042723878932    -0.656328115186     0.354269452014    15.994914619570
         O           -1.717523878932     1.132061884814     0.851037452014    15.994914619570
         N            0.136743121068     0.336476884814    -1.062883547986    14.003074004430
         C            2.380090121068     0.734985884814    -0.183780547986    12.000000000000
         C            1.156375121068    -0.154047115186    -0.270515547986    12.000000000000
         C           -1.138738878932    -0.324748115186    -1.002584547986    12.000000000000
         C            3.458588421068     0.088432384814     0.669468352014    12.000000000000
         C           -1.954730878932     0.140801884814     0.184412452014    12.000000000000
         H            2.684691821068     0.975457084814    -1.209014447986     1.007825032230
         H            2.077662121068     1.693163884814     0.258745452014     1.007825032230
         H           -0.976102878932    -1.401359115186    -0.931163547986     1.007825032230
         H           -1.714310878932    -0.132139115186    -1.917057547986     1.007825032230
         H            0.117166121068     1.339812884814    -1.208423547986     1.007825032230
         H            3.790967121068    -0.858099115186     0.182531452014     1.007825032230
         H            4.362632121068     0.748855884814     0.672480452014     1.007825032230
         H            3.153665121068    -0.112243115186     1.644429452014     1.007825032230
         H           -3.544174878932    -0.279157115186     1.105077452014     1.007825032230

  Basis Set: AUG-CC-PVTZ
    Blend: AUG-CC-PVTZ
  Basis Set: (AUG-CC-PVTZ AUX)
    Blend: AUG-CC-PVTZ-JKFIT
	 Reference Energy          =    -473.8360973596451231 [Eh]
	 Singles Energy            =      -0.0000000000000000 [Eh]
	 Same-Spin Energy          =      -0.4668161531980968 [Eh]
	 Opposite-Spin Energy      =      -1.4578585920173719 [Eh]
	 Correlation Energy        =      -1.9246747452154687 [Eh]
	 Total Energy              =    -475.7607721048605640 [Eh]

	 ================> DF-SCS-MP2 Energies <==================
	-----------------------------------------------------------
	 SCS Same-Spin Scale       =       0.3333333333333333 [-]
	 SCS Opposite-Spin Scale   =       1.2000000000000000 [-]
	 SCS Same-Spin Energy      =      -0.1556053843993656 [Eh]
	 SCS Opposite-Spin Energy  =      -1.7494303104208462 [Eh]
	 SCS Correlation Energy    =      -1.9050356948202118 [Eh]
	 SCS Total Energy          =    -475.7411330544653083 [Eh]
	-----------------------------------------------------------

  Dipole Moment: [D]
     X:    -0.9595      Y:     1.8803      Z:    -1.7349     Total:     2.7324

*** Psi4 exiting successfully. Buy a developer a beer!
