                               Psi4 1.3.2 release

  ==> Input File <==

--------------------------------------------------------------------------
#psi4
#
memory 32 gb

molecule  {
0 1
  O        1.0830410    -1.2590340     0.2697030
  O       -3.0460190    -0.6564700     0.3579990
  O       -1.7208190     1.1319200     0.8547670
  N        0.1334480     0.3363350    -1.0591540
  C        2.3767950     0.7348440    -0.1800510
  C        1.1613198    -0.1317234    -0.2638483
  C       -1.1420340    -0.3248900    -0.9988550
  C        3.4883670     0.0910310     0.6318210
  C       -1.9580260     0.1406600     0.1881420
  H        2.7160870     0.9611190    -1.1975940
  H        2.0743670     1.6930220     0.2624750
  H       -0.9793980    -1.4015010    -0.9274340
  H       -1.7176060    -0.1322810    -1.9133280
  H        0.1283138     1.3412624    -1.1945901
  H        3.7876720    -0.8582410     0.1862610
  H        4.3593370     0.7487140     0.6762100
  H        3.1503700    -0.1123850     1.6481590
  H       -3.5474700    -0.2792990     1.1088070
units angstrom
no_reorient  #important for SAPT in psi4, default
symmetry c1  #important for SAPT in psi4, default
}

set PROPERTIES_ORIGIN ["COM"]
properties('MP2/aug-cc-pvtz', properties = ['dipole'])
--------------------------------------------------------------------------

    Molecular point group: c1
  Charge       = 0
  Multiplicity = 1
  Basis Set: AUG-CC-PVTZ
    Blend: AUG-CC-PVTZ
  Basis Set: (AUG-CC-PVTZ AUX)
    Blend: AUG-CC-PVTZ-JKFIT

    Orbital Energies [Eh]
    ---------------------

    Doubly Occupied:

       1A    -20.625554     2A    -20.562968     3A    -20.525990
       4A    -15.594170     5A    -11.399198     6A    -11.357347
       7A    -11.291712     8A    -11.245523     9A    -11.217586
      10A     -1.468577    11A     -1.374923    12A     -1.367253
      13A     -1.239998    14A     -1.067805    15A     -1.007345
      16A     -0.893064    17A     -0.825854    18A     -0.782964
      19A     -0.716259    20A     -0.713388    21A     -0.698394
      22A     -0.653376    23A     -0.644004    24A     -0.638571
      25A     -0.603906    26A     -0.596595    27A     -0.558792
      28A     -0.537754    29A     -0.526497    30A     -0.517332
      31A     -0.495446    32A     -0.491342    33A     -0.468607
      34A     -0.434061    35A     -0.408910

  @DF-RHF Final Energy:  -473.83698411809104

   => Energetics <=

    Nuclear Repulsion Energy =            457.9007502930836608
    One-Electron Energy =               -1556.3733407680515484
    Two-Electron Energy =                 624.6356063568770196
    Total Energy =                       -473.8369841180909816
  Basis Set: (AUG-CC-PVTZ AUX)
    Blend: AUG-CC-PVTZ-RI
    Molecular point group: c1

    Geometry (in Angstrom), charge = 0, multiplicity = 1:

       Center              X                  Y                   Z               Mass
    ------------   -----------------  -----------------  -----------------  -----------------
         O            1.082175531432    -1.261103115121     0.269356195018    15.994914619570
         O           -3.046884468568    -0.658539115121     0.357652195018    15.994914619570
         O           -1.721684468568     1.129850884879     0.854420195018    15.994914619570
         N            0.132582531432     0.334265884879    -1.059500804982    14.003074004430
         C            2.375929531432     0.732774884879    -0.180397804982    12.000000000000
         C            1.160454331432    -0.133792515121    -0.264195104982    12.000000000000
         C           -1.142899468568    -0.326959115121    -0.999201804982    12.000000000000
         C            3.487501531432     0.088961884879     0.631474195018    12.000000000000
         C           -1.958891468568     0.138590884879     0.187795195018    12.000000000000
         H            2.715221531432     0.959049884879    -1.197940804982     1.007825032230
         H            2.073501531432     1.690952884879     0.262128195018     1.007825032230
         H           -0.980263468568    -1.403570115121    -0.927780804982     1.007825032230
         H           -1.718471468568    -0.134350115121    -1.913674804982     1.007825032230
         H            0.127448331432     1.339193284879    -1.194936904982     1.007825032230
         H            3.786806531432    -0.860310115121     0.185914195018     1.007825032230
         H            4.358471531432     0.746644884879     0.675863195018     1.007825032230
         H            3.149504531432    -0.114454115121     1.647812195018     1.007825032230
         H           -3.548335468568    -0.281368115121     1.108460195018     1.007825032230

  Basis Set: AUG-CC-PVTZ
    Blend: AUG-CC-PVTZ
  Basis Set: (AUG-CC-PVTZ AUX)
    Blend: AUG-CC-PVTZ-JKFIT
	 Reference Energy          =    -473.8369841180910385 [Eh]
	 Singles Energy            =      -0.0000000000000000 [Eh]
	 Same-Spin Energy          =      -0.4672683830633640 [Eh]
	 Opposite-Spin Energy      =      -1.4587445855850274 [Eh]
	 Correlation Energy        =      -1.9260129686483913 [Eh]
	 Total Energy              =    -475.7629970867394036 [Eh]

	 ================> DF-SCS-MP2 Energies <==================
	-----------------------------------------------------------
	 SCS Same-Spin Scale       =       0.3333333333333333 [-]
	 SCS Opposite-Spin Scale   =       1.2000000000000000 [-]
	 SCS Same-Spin Energy      =      -0.1557561276877880 [Eh]
	 SCS Opposite-Spin Energy  =      -1.7504935027020327 [Eh]
	 SCS Correlation Energy    =      -1.9062496303898206 [Eh]
	 SCS Total Energy          =    -475.7432337484808613 [Eh]
	-----------------------------------------------------------

  Dipole Moment: [D]
     X:    -0.9050      Y:     1.9626      Z:    -1.7583     Total:     2.7861

*** Psi4 exiting successfully. Buy a developer a beer!
