                               Psi4 1.3.2 release

  ==> Input File <==

--------------------------------------------------------------------------
#psi4
#
memory 32 gb

molecule  {
0 1
  O        1.0733401    -1.2604855     0.2653399
  O       -3.0460190    -0.6564700     0.3579990
  O       -1.7208190     1.1319200     0.8547670
  N        0.1271610     0.3262321    -1.0572264
  C        2.3767950     0.7348440    -0.1800510
  C        1.1530800    -0.1541890    -0.2667860
  C       -1.1420340    -0.3248900    -0.9988550
  C        3.4883670     0.0910310     0.6318210
  C       -1.9580260     0.1406600     0.1881420
  H        2.7160870     0.9611190    -1.1975940
  H        2.0743670     1.6930220     0.2624750
  H       -0.9793980    -1.4015010    -0.9274340
  H       -1.7176060    -0.1322810    -1.9133280
  H        0.1138710     1.3396710    -1.2046940
  H        3.7876720    -0.8582410     0.1862610
  H        4.3593370     0.7487140     0.6762100
  H        3.1503700    -0.1123850     1.6481590
  H       -3.5474700    -0.2792990     1.1088070
units angstrom
no_reorient  #important for SAPT in psi4, default
symmetry c1  #important for SAPT in psi4, default
}

set PROPERTIES_ORIGIN ["COM"]
properties('MP2/aug-cc-pvtz', properties = ['dipole'])
--------------------------------------------------------------------------

    Molecular point group: c1
  Charge       = 0
  Multiplicity = 1
  Basis Set: AUG-CC-PVTZ
    Blend: AUG-CC-PVTZ
  Basis Set: (AUG-CC-PVTZ AUX)
    Blend: AUG-CC-PVTZ-JKFIT

    Orbital Energies [Eh]
    ---------------------

    Doubly Occupied:

       1A    -20.625039     2A    -20.562558     3A    -20.528226
       4A    -15.592562     5A    -11.398321     6A    -11.356064
       7A    -11.289665     8A    -11.245419     9A    -11.217240
      10A     -1.468108    11A     -1.385254    12A     -1.368205
      13A     -1.241964    14A     -1.064372    15A     -1.005651
      16A     -0.890150    17A     -0.825134    18A     -0.782816
      19A     -0.715815    20A     -0.713584    21A     -0.698652
      22A     -0.654074    23A     -0.643872    24A     -0.637387
      25A     -0.604255    26A     -0.599632    27A     -0.557469
      28A     -0.540557    29A     -0.526456    30A     -0.518097
      31A     -0.495887    32A     -0.491587    33A     -0.469059
      34A     -0.434264    35A     -0.408970

  @DF-RHF Final Energy:  -473.83932449666895

   => Energetics <=

    Nuclear Repulsion Energy =            458.2254892437538274
    One-Electron Energy =               -1557.0168965064713120
    Two-Electron Energy =                 624.9520827660485338
    Total Energy =                       -473.8393244966689508
  Basis Set: (AUG-CC-PVTZ AUX)
    Blend: AUG-CC-PVTZ-RI
    Molecular point group: c1

    Geometry (in Angstrom), charge = 0, multiplicity = 1:

       Center              X                  Y                   Z               Mass
    ------------   -----------------  -----------------  -----------------  -----------------
         O            1.075195832330    -1.259228770693     0.265666310588    15.994914619570
         O           -3.044163267670    -0.655213270693     0.358325410588    15.994914619570
         O           -1.718963267670     1.133176729307     0.855093410588    15.994914619570
         N            0.129016732330     0.327488829307    -1.056899989412    14.003074004430
         C            2.378650732330     0.736100729307    -0.179724589412    12.000000000000
         C            1.154935732330    -0.152932270693    -0.266459589412    12.000000000000
         C           -1.140178267670    -0.323633270693    -0.998528589412    12.000000000000
         C            3.490222732330     0.092287729307     0.632147410588    12.000000000000
         C           -1.956170267670     0.141916729307     0.188468410588    12.000000000000
         H            2.717942732330     0.962375729307    -1.197267589412     1.007825032230
         H            2.076222732330     1.694278729307     0.262801410588     1.007825032230
         H           -0.977542267670    -1.400244270693    -0.927107589412     1.007825032230
         H           -1.715750267670    -0.131024270693    -1.913001589412     1.007825032230
         H            0.115726732330     1.340927729307    -1.204367589412     1.007825032230
         H            3.789527732330    -0.856984270693     0.186587410588     1.007825032230
         H            4.361192732330     0.749970729307     0.676536410588     1.007825032230
         H            3.152225732330    -0.111128270693     1.648485410588     1.007825032230
         H           -3.545614267670    -0.278042270693     1.109133410588     1.007825032230

  Basis Set: AUG-CC-PVTZ
    Blend: AUG-CC-PVTZ
  Basis Set: (AUG-CC-PVTZ AUX)
    Blend: AUG-CC-PVTZ-JKFIT
	 Reference Energy          =    -473.8393244966689508 [Eh]
	 Singles Energy            =      -0.0000000000000000 [Eh]
	 Same-Spin Energy          =      -0.4668435995376706 [Eh]
	 Opposite-Spin Energy      =      -1.4578117973959293 [Eh]
	 Correlation Energy        =      -1.9246553969335998 [Eh]
	 Total Energy              =    -475.7639798936025386 [Eh]

	 ================> DF-SCS-MP2 Energies <==================
	-----------------------------------------------------------
	 SCS Same-Spin Scale       =       0.3333333333333333 [-]
	 SCS Opposite-Spin Scale   =       1.2000000000000000 [-]
	 SCS Same-Spin Energy      =      -0.1556145331792235 [Eh]
	 SCS Opposite-Spin Energy  =      -1.7493741568751151 [Eh]
	 SCS Correlation Energy    =      -1.9049886900543387 [Eh]
	 SCS Total Energy          =    -475.7443131867232751 [Eh]
	-----------------------------------------------------------

  Dipole Moment: [D]
     X:    -0.8882      Y:     1.8964      Z:    -1.7393     Total:     2.7222

*** Psi4 exiting successfully. Buy a developer a beer!
