                               Psi4 1.3.2 release

  ==> Input File <==

--------------------------------------------------------------------------
#psi4
#
memory 32 gb

molecule  {
0 1
  O        1.0830410    -1.2590340     0.2697030
  O       -3.0460190    -0.6564700     0.3579990
  O       -1.7208190     1.1319200     0.8547670
  N        0.1334480     0.3363350    -1.0591540
  C        2.3767950     0.7348440    -0.1800510
  C        1.1530800    -0.1541890    -0.2667860
  C       -1.1420340    -0.3248900    -0.9988550
  C        3.4883670     0.0910310     0.6318210
  C       -1.8988494     0.1172301     0.2353662
  H        2.7160870     0.9611190    -1.1975940
  H        2.0743670     1.6930220     0.2624750
  H       -0.9793980    -1.4015010    -0.9274340
  H       -1.6741168    -0.1545346    -1.9435820
  H        0.1138710     1.3396710    -1.2046940
  H        3.7876720    -0.8582410     0.1862610
  H        4.3593370     0.7487140     0.6762100
  H        3.1503700    -0.1123850     1.6481590
  H       -3.5474700    -0.2792990     1.1088070
units angstrom
no_reorient  #important for SAPT in psi4, default
symmetry c1  #important for SAPT in psi4, default
}

set PROPERTIES_ORIGIN ["COM"]
properties('MP2/aug-cc-pvtz', properties = ['dipole'])
--------------------------------------------------------------------------

    Molecular point group: c1
  Charge       = 0
  Multiplicity = 1
  Basis Set: AUG-CC-PVTZ
    Blend: AUG-CC-PVTZ
  Basis Set: (AUG-CC-PVTZ AUX)
    Blend: AUG-CC-PVTZ-JKFIT

    Orbital Energies [Eh]
    ---------------------

    Doubly Occupied:

       1A    -20.617512     2A    -20.569251     3A    -20.529913
       4A    -15.592540     5A    -11.400156     6A    -11.356607
       7A    -11.291309     8A    -11.244840     9A    -11.217077
      10A     -1.463763    11A     -1.385743    12A     -1.371029
      13A     -1.243221    14A     -1.064102    15A     -1.004504
      16A     -0.888660    17A     -0.819763    18A     -0.785694
      19A     -0.717170    20A     -0.710527    21A     -0.699900
      22A     -0.650277    23A     -0.642156    24A     -0.636348
      25A     -0.607127    26A     -0.600206    27A     -0.556070
      28A     -0.542586    29A     -0.525152    30A     -0.518064
      31A     -0.498484    32A     -0.494182    33A     -0.471868
      34A     -0.434727    35A     -0.411126

  @DF-RHF Final Energy:  -473.83402340249427

   => Energetics <=

    Nuclear Repulsion Energy =            458.3129057844707290
    One-Electron Energy =               -1557.1705487567928685
    Two-Electron Energy =                 625.0236195698278152
    Total Energy =                       -473.8340234024942674
  Basis Set: (AUG-CC-PVTZ AUX)
    Blend: AUG-CC-PVTZ-RI
    Molecular point group: c1

    Geometry (in Angstrom), charge = 0, multiplicity = 1:

       Center              X                  Y                   Z               Mass
    ------------   -----------------  -----------------  -----------------  -----------------
         O            1.077288274640    -1.256717449831     0.265611567543    15.994914619570
         O           -3.051771725360    -0.654153449831     0.353907567543    15.994914619570
         O           -1.726571725360     1.134236550169     0.850675567543    15.994914619570
         N            0.127695274640     0.338651550169    -1.063245432457    14.003074004430
         C            2.371042274640     0.737160550169    -0.184142432457    12.000000000000
         C            1.147327274640    -0.151872449831    -0.270877432457    12.000000000000
         C           -1.147786725360    -0.322573449831    -1.002946432457    12.000000000000
         C            3.482614274640     0.093347550169     0.627729567543    12.000000000000
         C           -1.904602125360     0.119546650169     0.231274767543    12.000000000000
         H            2.710334274640     0.963435550169    -1.201685432457     1.007825032230
         H            2.068614274640     1.695338550169     0.258383567543     1.007825032230
         H           -0.985150725360    -1.399184449831    -0.931525432457     1.007825032230
         H           -1.679869525360    -0.152218049831    -1.947673432457     1.007825032230
         H            0.108118274640     1.341987550169    -1.208785432457     1.007825032230
         H            3.781919274640    -0.855924449831     0.182169567543     1.007825032230
         H            4.353584274640     0.751030550169     0.672118567543     1.007825032230
         H            3.144617274640    -0.110068449831     1.644067567543     1.007825032230
         H           -3.553222725360    -0.276982449831     1.104715567543     1.007825032230

  Basis Set: AUG-CC-PVTZ
    Blend: AUG-CC-PVTZ
  Basis Set: (AUG-CC-PVTZ AUX)
    Blend: AUG-CC-PVTZ-JKFIT
	 Reference Energy          =    -473.8340234024942674 [Eh]
	 Singles Energy            =      -0.0000000000000000 [Eh]
	 Same-Spin Energy          =      -0.4669145586544171 [Eh]
	 Opposite-Spin Energy      =      -1.4585655271784761 [Eh]
	 Correlation Energy        =      -1.9254800858328931 [Eh]
	 Total Energy              =    -475.7595034883271410 [Eh]

	 ================> DF-SCS-MP2 Energies <==================
	-----------------------------------------------------------
	 SCS Same-Spin Scale       =       0.3333333333333333 [-]
	 SCS Opposite-Spin Scale   =       1.2000000000000000 [-]
	 SCS Same-Spin Energy      =      -0.1556381862181390 [Eh]
	 SCS Opposite-Spin Energy  =      -1.7502786326141713 [Eh]
	 SCS Correlation Energy    =      -1.9059168188323103 [Eh]
	 SCS Total Energy          =    -475.7399402213266058 [Eh]
	-----------------------------------------------------------

  Dipole Moment: [D]
     X:    -0.7251      Y:     1.9873      Z:    -1.7130     Total:     2.7221

*** Psi4 exiting successfully. Buy a developer a beer!
