                               Psi4 1.3.2 release

  ==> Input File <==

--------------------------------------------------------------------------
#psi4
#
memory 32 gb

molecule  {
0 1
  O        1.0830410    -1.2590340     0.2697030
  O       -3.0384584    -0.6702271     0.3402087
  O       -1.7030748     1.1350327     0.8434856
  N        0.1334480     0.3363350    -1.0591540
  C        2.3767950     0.7348440    -0.1800510
  C        1.1530800    -0.1541890    -0.2667860
  C       -1.1420340    -0.3248900    -0.9988550
  C        3.4883670     0.0910310     0.6318210
  C       -1.9580260     0.1406600     0.1881420
  H        2.7160870     0.9611190    -1.1975940
  H        2.0743670     1.6930220     0.2624750
  H       -0.9793980    -1.4015010    -0.9274340
  H       -1.7176060    -0.1322810    -1.9133280
  H        0.1138710     1.3396710    -1.2046940
  H        3.7876720    -0.8582410     0.1862610
  H        4.3593370     0.7487140     0.6762100
  H        3.1503700    -0.1123850     1.6481590
  H       -3.5474700    -0.2792990     1.1088070
units angstrom
no_reorient  #important for SAPT in psi4, default
symmetry c1  #important for SAPT in psi4, default
}

set PROPERTIES_ORIGIN ["COM"]
properties('MP2/aug-cc-pvtz', properties = ['dipole'])
--------------------------------------------------------------------------

    Molecular point group: c1
  Charge       = 0
  Multiplicity = 1
  Basis Set: AUG-CC-PVTZ
    Blend: AUG-CC-PVTZ
  Basis Set: (AUG-CC-PVTZ AUX)
    Blend: AUG-CC-PVTZ-JKFIT

    Orbital Energies [Eh]
    ---------------------

    Doubly Occupied:

       1A    -20.630275     2A    -20.564359     3A    -20.527926
       4A    -15.591485     5A    -11.399226     6A    -11.355235
       7A    -11.288645     8A    -11.243639     9A    -11.216059
      10A     -1.466716    11A     -1.384099    12A     -1.370037
      13A     -1.240526    14A     -1.062688    15A     -1.004372
      16A     -0.888410    17A     -0.820840    18A     -0.784407
      19A     -0.716790    20A     -0.711431    21A     -0.697920
      22A     -0.652401    23A     -0.643670    24A     -0.636610
      25A     -0.604407    26A     -0.599315    27A     -0.558443
      28A     -0.539762    29A     -0.524651    30A     -0.516932
      31A     -0.496022    32A     -0.492474    33A     -0.469242
      34A     -0.433148    35A     -0.408861

  @DF-RHF Final Energy:  -473.83684151295722

   => Energetics <=

    Nuclear Repulsion Energy =            458.2070330662644437
    One-Electron Energy =               -1557.0057047799875818
    Two-Electron Energy =                 624.9618302007660304
    Total Energy =                       -473.8368415129572213
  Basis Set: (AUG-CC-PVTZ AUX)
    Blend: AUG-CC-PVTZ-RI
    Molecular point group: c1

    Geometry (in Angstrom), charge = 0, multiplicity = 1:

       Center              X                  Y                   Z               Mass
    ------------   -----------------  -----------------  -----------------  -----------------
         O            1.079952743357    -1.257734785809     0.273250911675    15.994914619570
         O           -3.041546656643    -0.668927885809     0.343756611675    15.994914619570
         O           -1.706163056643     1.136331914191     0.847033511675    15.994914619570
         N            0.130359743357     0.337634214191    -1.055606088325    14.003074004430
         C            2.373706743357     0.736143214191    -0.176503088325    12.000000000000
         C            1.149991743357    -0.152889785809    -0.263238088325    12.000000000000
         C           -1.145122256643    -0.323590785809    -0.995307088325    12.000000000000
         C            3.485278743357     0.092330214191     0.635368911675    12.000000000000
         C           -1.961114256643     0.141959214191     0.191689911675    12.000000000000
         H            2.712998743357     0.962418214191    -1.194046088325     1.007825032230
         H            2.071278743357     1.694321214191     0.266022911675     1.007825032230
         H           -0.982486256643    -1.400201785809    -0.923886088325     1.007825032230
         H           -1.720694256643    -0.130981785809    -1.909780088325     1.007825032230
         H            0.110782743357     1.340970214191    -1.201146088325     1.007825032230
         H            3.784583743357    -0.856941785809     0.189808911675     1.007825032230
         H            4.356248743357     0.750013214191     0.679757911675     1.007825032230
         H            3.147281743357    -0.111085785809     1.651706911675     1.007825032230
         H           -3.550558256643    -0.277999785809     1.112354911675     1.007825032230

  Basis Set: AUG-CC-PVTZ
    Blend: AUG-CC-PVTZ
  Basis Set: (AUG-CC-PVTZ AUX)
    Blend: AUG-CC-PVTZ-JKFIT
	 Reference Energy          =    -473.8368415129572213 [Eh]
	 Singles Energy            =      -0.0000000000000000 [Eh]
	 Same-Spin Energy          =      -0.4672566848787053 [Eh]
	 Opposite-Spin Energy      =      -1.4588317939584385 [Eh]
	 Correlation Energy        =      -1.9260884788371437 [Eh]
	 Total Energy              =    -475.7629299917943513 [Eh]

	 ================> DF-SCS-MP2 Energies <==================
	-----------------------------------------------------------
	 SCS Same-Spin Scale       =       0.3333333333333333 [-]
	 SCS Opposite-Spin Scale   =       1.2000000000000000 [-]
	 SCS Same-Spin Energy      =      -0.1557522282929018 [Eh]
	 SCS Opposite-Spin Energy  =      -1.7505981527501262 [Eh]
	 SCS Correlation Energy    =      -1.9063503810430280 [Eh]
	 SCS Total Energy          =    -475.7431918940002333 [Eh]
	-----------------------------------------------------------

  Dipole Moment: [D]
     X:    -1.0498      Y:     1.8882      Z:    -1.6778     Total:     2.7354

*** Psi4 exiting successfully. Buy a developer a beer!
