                               Psi4 1.4a3.dev225

  ==> Input File <==

--------------------------------------------------------------------------
#psi4
#
memory 32 gb

molecule  {
0 1
  O        0.8764270    -0.2428500     1.2911470
  O       -3.1675390     0.0980960     0.5443480
  O       -1.5839830     1.3406500    -0.5070920
  N        0.0834400    -0.8734940    -0.7544630
  C        2.2681300     0.2178930    -0.6380450
  C        1.0330250    -0.3000120     0.0721840
  C       -1.2394860    -1.0499030    -0.2084880
  C        3.4385850     0.4137260     0.3159750
  C       -2.0224122     0.2630843    -0.0619135
  H        2.5310470    -0.4685700    -1.4513520
  H        1.9929790     1.1708880    -1.1091590
  H       -1.1549390    -1.4972460     0.7835340
  H       -1.8230450    -1.7308360    -0.8360530
  H        0.1282230    -0.6025030    -1.7308050
  H        3.7379630    -0.5375510     0.7615240
  H        4.2975370     0.8343390    -0.2133880
  H        3.1581410     1.0869690     1.1269820
  H       -3.5812870     0.9851770     0.5837010
units angstrom
no_reorient  #important for SAPT in psi4, default
symmetry c1  #important for SAPT in psi4, default
}

set PROPERTIES_ORIGIN ["COM"]
properties('MP2/aug-cc-pvtz', properties = ['dipole'])
--------------------------------------------------------------------------

    Molecular point group: c1
  Charge       = 0
  Multiplicity = 1
  Basis Set: AUG-CC-PVTZ
    Blend: AUG-CC-PVTZ
  Basis Set: (AUG-CC-PVTZ AUX)
    Blend: AUG-CC-PVTZ-JKFIT

    Orbital Energies [Eh]
    ---------------------

    Doubly Occupied:

       1A    -20.638942     2A    -20.552385     3A    -20.525867
       4A    -15.592080     5A    -11.398658     6A    -11.353585
       7A    -11.290904     8A    -11.242305     9A    -11.216317
      10A     -1.489452    11A     -1.381863    12A     -1.354878
      13A     -1.237872    14A     -1.060165    15A     -1.002296
      16A     -0.890844    17A     -0.836585    18A     -0.783221
      19A     -0.721382    20A     -0.709518    21A     -0.697810
      22A     -0.655732    23A     -0.652458    24A     -0.629450
      25A     -0.602121    26A     -0.593259    27A     -0.560526
      28A     -0.541287    29A     -0.522400    30A     -0.513667
      31A     -0.492311    32A     -0.480680    33A     -0.462499
      34A     -0.431122    35A     -0.408846

  @DF-RHF Final Energy:  -473.83602698080972

   => Energetics <=

    Nuclear Repulsion Energy =            460.1728531600893461
    One-Electron Energy =               -1560.9711888352205733
    Two-Electron Energy =                 626.9623086943215640
    Total Energy =                       -473.8360269808097200
  Basis Set: (AUG-CC-PVTZ AUX)
    Blend: AUG-CC-PVTZ-RI
    Molecular point group: c1

    Geometry (in Angstrom), charge = 0, multiplicity = 1:

       Center              X                  Y                   Z               Mass
    ------------   -----------------  -----------------  -----------------  -----------------
         O            0.950592563691    -0.247953365253     1.273306763712    15.994914619570
         O           -3.093373436309     0.092992634747     0.526507763712    15.994914619570
         O           -1.509817436309     1.335546634747    -0.524932236288    15.994914619570
         N            0.157605563691    -0.878597365253    -0.772303236288    14.003074004430
         C            2.342295563691     0.212789634747    -0.655885236288    12.000000000000
         C            1.107190563691    -0.305115365253     0.054343763712    12.000000000000
         C           -1.165320436309    -1.055006365253    -0.226328236288    12.000000000000
         C            3.512750563691     0.408622634747     0.298134763712    12.000000000000
         C           -1.948246636309     0.257980934747    -0.079753736288    12.000000000000
         H            2.605212563691    -0.473673365253    -1.469192236288     1.007825032230
         H            2.067144563691     1.165784634747    -1.126999236288     1.007825032230
         H           -1.080773436309    -1.502349365253     0.765693763712     1.007825032230
         H           -1.748879436309    -1.735939365253    -0.853893236288     1.007825032230
         H            0.202388563691    -0.607606365253    -1.748645236288     1.007825032230
         H            3.812128563691    -0.542654365253     0.743683763712     1.007825032230
         H            4.371702563691     0.829235634747    -0.231228236288     1.007825032230
         H            3.232306563691     1.081865634747     1.109141763712     1.007825032230
         H           -3.507121436309     0.980073634747     0.565860763712     1.007825032230

  Basis Set: AUG-CC-PVTZ
    Blend: AUG-CC-PVTZ
  Basis Set: (AUG-CC-PVTZ AUX)
    Blend: AUG-CC-PVTZ-JKFIT
	 Reference Energy          =    -473.8360269808097200 [Eh]
	 Singles Energy            =      -0.0000000000000000 [Eh]
	 Same-Spin Energy          =      -0.4670596398099532 [Eh]
	 Opposite-Spin Energy      =      -1.4581030639072123 [Eh]
	 Correlation Energy        =      -1.9251627037171655 [Eh]
	 Total Energy              =    -475.7611896845268689 [Eh]

	 ================> DF-SCS-MP2 Energies <==================
	-----------------------------------------------------------
	 SCS Same-Spin Scale       =       0.3333333333333333 [-]
	 SCS Opposite-Spin Scale   =       1.2000000000000000 [-]
	 SCS Same-Spin Energy      =      -0.1556865466033177 [Eh]
	 SCS Opposite-Spin Energy  =      -1.7497236766886548 [Eh]
	 SCS Correlation Energy    =      -1.9054102232919725 [Eh]
	 SCS Total Energy          =    -475.7414372041017145 [Eh]
	-----------------------------------------------------------

  Dipole Moment: [D]
     X:    -1.2777      Y:    -0.8517      Z:    -2.4707     Total:     2.9090

*** Psi4 exiting successfully. Buy a developer a beer!
