                               Psi4 1.3.2 release

  ==> Input File <==

--------------------------------------------------------------------------
#psi4
#
memory 32 gb

molecule  {
0 1
  O        1.0830410    -1.2590340     0.2697030
  O       -3.0460190    -0.6564700     0.3579990
  O       -1.7208190     1.1319200     0.8547670
  N        0.1334480     0.3363350    -1.0591540
  C        2.3767950     0.7348440    -0.1800510
  C        1.1604316    -0.1456371    -0.2710437
  C       -1.1465781    -0.3167736    -1.0072776
  C        3.4883670     0.0910310     0.6318210
  C       -1.9580260     0.1406600     0.1881420
  H        2.7160870     0.9611190    -1.1975940
  H        2.0743670     1.6930220     0.2624750
  H       -0.9793980    -1.4015010    -0.9274340
  H       -1.7176060    -0.1322810    -1.9133280
  H        0.1138710     1.3396710    -1.2046940
  H        3.7876720    -0.8582410     0.1862610
  H        4.3593370     0.7487140     0.6762100
  H        3.1503700    -0.1123850     1.6481590
  H       -3.5474700    -0.2792990     1.1088070
units angstrom
no_reorient  #important for SAPT in psi4, default
symmetry c1  #important for SAPT in psi4, default
}

set PROPERTIES_ORIGIN ["COM"]
properties('MP2/aug-cc-pvtz', properties = ['dipole'])
--------------------------------------------------------------------------

    Molecular point group: c1
  Charge       = 0
  Multiplicity = 1
  Basis Set: AUG-CC-PVTZ
    Blend: AUG-CC-PVTZ
  Basis Set: (AUG-CC-PVTZ AUX)
    Blend: AUG-CC-PVTZ-JKFIT

    Orbital Energies [Eh]
    ---------------------

    Doubly Occupied:

       1A    -20.625494     2A    -20.562797     3A    -20.527395
       4A    -15.593418     5A    -11.398985     6A    -11.357135
       7A    -11.291053     8A    -11.244944     9A    -11.217066
      10A     -1.468415    11A     -1.379252    12A     -1.368075
      13A     -1.240729    14A     -1.065715    15A     -1.006442
      16A     -0.891520    17A     -0.825457    18A     -0.784286
      19A     -0.716056    20A     -0.712665    21A     -0.699263
      22A     -0.654031    23A     -0.642663    24A     -0.638005
      25A     -0.603676    26A     -0.598826    27A     -0.557846
      28A     -0.539138    29A     -0.526313    30A     -0.517443
      31A     -0.495506    32A     -0.491425    33A     -0.468624
      34A     -0.434324    35A     -0.409252

  @DF-RHF Final Energy:  -473.83841043471261

   => Energetics <=

    Nuclear Repulsion Energy =            457.8427186242948892
    One-Electron Energy =               -1556.2557865420656071
    Two-Electron Energy =                 624.5746574830579902
    Total Energy =                       -473.8384104347126140
  Basis Set: (AUG-CC-PVTZ AUX)
    Blend: AUG-CC-PVTZ-RI
    Molecular point group: c1

    Geometry (in Angstrom), charge = 0, multiplicity = 1:

       Center              X                  Y                   Z               Mass
    ------------   -----------------  -----------------  -----------------  -----------------
         O            1.082783989271    -1.260560063031     0.270863913713    15.994914619570
         O           -3.046276010729    -0.657996063031     0.359159913713    15.994914619570
         O           -1.721076010729     1.130393936969     0.855927913713    15.994914619570
         N            0.133190989271     0.334808936969    -1.057993086287    14.003074004430
         C            2.376537989271     0.733317936969    -0.178890086287    12.000000000000
         C            1.160174589271    -0.147163163031    -0.269882786287    12.000000000000
         C           -1.146835110729    -0.318299663031    -1.006116686287    12.000000000000
         C            3.488109989271     0.089504936969     0.632981913713    12.000000000000
         C           -1.958283010729     0.139133936969     0.189302913713    12.000000000000
         H            2.715829989271     0.959592936969    -1.196433086287     1.007825032230
         H            2.074109989271     1.691495936969     0.263635913713     1.007825032230
         H           -0.979655010729    -1.403027063031    -0.926273086287     1.007825032230
         H           -1.717863010729    -0.133807063031    -1.912167086287     1.007825032230
         H            0.113613989271     1.338144936969    -1.203533086287     1.007825032230
         H            3.787414989271    -0.859767063031     0.187421913713     1.007825032230
         H            4.359079989271     0.747187936969     0.677370913713     1.007825032230
         H            3.150112989271    -0.113911063031     1.649319913713     1.007825032230
         H           -3.547727010729    -0.280825063031     1.109967913713     1.007825032230

  Basis Set: AUG-CC-PVTZ
    Blend: AUG-CC-PVTZ
  Basis Set: (AUG-CC-PVTZ AUX)
    Blend: AUG-CC-PVTZ-JKFIT
	 Reference Energy          =    -473.8384104347126140 [Eh]
	 Singles Energy            =      -0.0000000000000000 [Eh]
	 Same-Spin Energy          =      -0.4670058156824511 [Eh]
	 Opposite-Spin Energy      =      -1.4582580199731536 [Eh]
	 Correlation Energy        =      -1.9252638356556049 [Eh]
	 Total Energy              =    -475.7636742703681989 [Eh]

	 ================> DF-SCS-MP2 Energies <==================
	-----------------------------------------------------------
	 SCS Same-Spin Scale       =       0.3333333333333333 [-]
	 SCS Opposite-Spin Scale   =       1.2000000000000000 [-]
	 SCS Same-Spin Energy      =      -0.1556686052274837 [Eh]
	 SCS Opposite-Spin Energy  =      -1.7499096239677843 [Eh]
	 SCS Correlation Energy    =      -1.9055782291952679 [Eh]
	 SCS Total Energy          =    -475.7439886639078850 [Eh]
	-----------------------------------------------------------

  Dipole Moment: [D]
     X:    -0.9284      Y:     1.9268      Z:    -1.7655     Total:     2.7733

*** Psi4 exiting successfully. Buy a developer a beer!
