                               Psi4 1.3.2 release

  ==> Input File <==

--------------------------------------------------------------------------
#psi4
#
memory 32 gb

molecule  {
0 1
  O        1.0830410    -1.2590340     0.2697030
  O       -3.0460190    -0.6564700     0.3579990
  O       -1.7208190     1.1319200     0.8547670
  N        0.1334480     0.3363350    -1.0591540
  C        2.3767950     0.7348440    -0.1800510
  C        1.1356712    -0.1986652    -0.2733845
  C       -1.1420340    -0.3248900    -0.9988550
  C        3.4883670     0.0910310     0.6318210
  C       -1.9580260     0.1406600     0.1881420
  H        2.7160870     0.9611190    -1.1975940
  H        2.0743670     1.6930220     0.2624750
  H       -0.9793980    -1.4015010    -0.9274340
  H       -1.7176060    -0.1322810    -1.9133280
  H        0.0850078     1.3355720    -1.2247657
  H        3.7876720    -0.8582410     0.1862610
  H        4.3593370     0.7487140     0.6762100
  H        3.1503700    -0.1123850     1.6481590
  H       -3.5474700    -0.2792990     1.1088070
units angstrom
no_reorient  #important for SAPT in psi4, default
symmetry c1  #important for SAPT in psi4, default
}

set PROPERTIES_ORIGIN ["COM"]
properties('MP2/aug-cc-pvtz', properties = ['dipole'])
--------------------------------------------------------------------------

    Molecular point group: c1
  Charge       = 0
  Multiplicity = 1
  Basis Set: AUG-CC-PVTZ
    Blend: AUG-CC-PVTZ
  Basis Set: (AUG-CC-PVTZ AUX)
    Blend: AUG-CC-PVTZ-JKFIT

    Orbital Energies [Eh]
    ---------------------

    Doubly Occupied:

       1A    -20.625501     2A    -20.562998     3A    -20.534357
       4A    -15.590508     5A    -11.398675     6A    -11.353913
       7A    -11.289508     8A    -11.241153     9A    -11.214231
      10A     -1.468583    11A     -1.408929    12A     -1.369086
      13A     -1.244933    14A     -1.055246    15A     -1.003853
      16A     -0.883128    17A     -0.822415    18A     -0.791206
      19A     -0.716022    20A     -0.712657    21A     -0.698875
      22A     -0.654572    23A     -0.645307    24A     -0.634399
      25A     -0.607192    26A     -0.601934    27A     -0.560908
      28A     -0.548358    29A     -0.524606    30A     -0.516346
      31A     -0.495029    32A     -0.492236    33A     -0.470487
      34A     -0.431504    35A     -0.411494

  @DF-RHF Final Energy:  -473.83946973036944

   => Energetics <=

    Nuclear Repulsion Energy =            458.3104018886305653
    One-Electron Energy =               -1557.1394471743053600
    Two-Electron Energy =                 624.9895755553053505
    Total Energy =                       -473.8394697303693874
  Basis Set: (AUG-CC-PVTZ AUX)
    Blend: AUG-CC-PVTZ-RI
    Molecular point group: c1

    Geometry (in Angstrom), charge = 0, multiplicity = 1:

       Center              X                  Y                   Z               Mass
    ------------   -----------------  -----------------  -----------------  -----------------
         O            1.084856996271    -1.254930008354     0.270461399250    15.994914619570
         O           -3.044203003729    -0.652366008354     0.358757399250    15.994914619570
         O           -1.719003003729     1.136023991646     0.855525399250    15.994914619570
         N            0.135263996271     0.340438991646    -1.058395600750    14.003074004430
         C            2.378610996271     0.738947991646    -0.179292600750    12.000000000000
         C            1.137487196271    -0.194561208354    -0.272626100750    12.000000000000
         C           -1.140218003729    -0.320786008354    -0.998096600750    12.000000000000
         C            3.490182996271     0.095134991646     0.632579399250    12.000000000000
         C           -1.956210003729     0.144763991646     0.188900399250    12.000000000000
         H            2.717902996271     0.965222991646    -1.196835600750     1.007825032230
         H            2.076182996271     1.697125991646     0.263233399250     1.007825032230
         H           -0.977582003729    -1.397397008354    -0.926675600750     1.007825032230
         H           -1.715790003729    -0.128177008354    -1.912569600750     1.007825032230
         H            0.086823796271     1.339675991646    -1.224007300750     1.007825032230
         H            3.789487996271    -0.854137008354     0.187019399250     1.007825032230
         H            4.361152996271     0.752817991646     0.676968399250     1.007825032230
         H            3.152185996271    -0.108281008354     1.648917399250     1.007825032230
         H           -3.545654003729    -0.275195008354     1.109565399250     1.007825032230

  Basis Set: AUG-CC-PVTZ
    Blend: AUG-CC-PVTZ
  Basis Set: (AUG-CC-PVTZ AUX)
    Blend: AUG-CC-PVTZ-JKFIT
	 Reference Energy          =    -473.8394697303694443 [Eh]
	 Singles Energy            =      -0.0000000000000000 [Eh]
	 Same-Spin Energy          =      -0.4658705593309043 [Eh]
	 Opposite-Spin Energy      =      -1.4560586516215468 [Eh]
	 Correlation Energy        =      -1.9219292109524511 [Eh]
	 Total Energy              =    -475.7613989413218860 [Eh]

	 ================> DF-SCS-MP2 Energies <==================
	-----------------------------------------------------------
	 SCS Same-Spin Scale       =       0.3333333333333333 [-]
	 SCS Opposite-Spin Scale   =       1.2000000000000000 [-]
	 SCS Same-Spin Energy      =      -0.1552901864436347 [Eh]
	 SCS Opposite-Spin Energy  =      -1.7472703819458562 [Eh]
	 SCS Correlation Energy    =      -1.9025605683894908 [Eh]
	 SCS Total Energy          =    -475.7420302987589480 [Eh]
	-----------------------------------------------------------

  Dipole Moment: [D]
     X:    -1.0532      Y:     1.6924      Z:    -1.7248     Total:     2.6360

*** Psi4 exiting successfully. Buy a developer a beer!
