                               Psi4 1.4a3.dev225

  ==> Input File <==

--------------------------------------------------------------------------
#psi4
#
memory 32 gb

molecule  {
0 1
  O        0.8764270    -0.2428500     1.2911470
  O       -3.1675390     0.0980960     0.5443480
  O       -1.5839830     1.3406500    -0.5070920
  N        0.0834400    -0.8734940    -0.7544630
  C        2.2681300     0.2178930    -0.6380450
  C        1.0330250    -0.3000120     0.0721840
  C       -1.2211374    -1.0474563    -0.2160605
  C        3.4385850     0.4137260     0.3159750
  C       -1.9785770     0.2694000    -0.0851210
  H        2.5310470    -0.4685700    -1.4513520
  H        1.9929790     1.1708880    -1.1091590
  H       -1.1549390    -1.4972460     0.7835340
  H       -1.8230450    -1.7308360    -0.8360530
  H        0.1282230    -0.6025030    -1.7308050
  H        3.7379630    -0.5375510     0.7615240
  H        4.2975370     0.8343390    -0.2133880
  H        3.1581410     1.0869690     1.1269820
  H       -3.5812870     0.9851770     0.5837010
units angstrom
no_reorient  #important for SAPT in psi4, default
symmetry c1  #important for SAPT in psi4, default
}

set PROPERTIES_ORIGIN ["COM"]
properties('MP2/aug-cc-pvtz', properties = ['dipole'])
--------------------------------------------------------------------------

    Molecular point group: c1
  Charge       = 0
  Multiplicity = 1
  Basis Set: AUG-CC-PVTZ
    Blend: AUG-CC-PVTZ
  Basis Set: (AUG-CC-PVTZ AUX)
    Blend: AUG-CC-PVTZ-JKFIT

    Orbital Energies [Eh]
    ---------------------

    Doubly Occupied:

       1A    -20.624526     2A    -20.559897     3A    -20.528499
       4A    -15.593965     5A    -11.396837     6A    -11.356003
       7A    -11.291872     8A    -11.244236     9A    -11.217805
      10A     -1.468447    11A     -1.385025    12A     -1.366144
      13A     -1.245959    14A     -1.062641    15A     -1.002611
      16A     -0.889756    17A     -0.824431    18A     -0.786234
      19A     -0.715347    20A     -0.711208    21A     -0.698121
      22A     -0.656411    23A     -0.645184    24A     -0.631081
      25A     -0.604614    26A     -0.599162    27A     -0.555577
      28A     -0.544350    29A     -0.524372    30A     -0.515509
      31A     -0.495164    32A     -0.489300    33A     -0.468094
      34A     -0.433422    35A     -0.410902

  @DF-RHF Final Energy:  -473.83951696063923

   => Energetics <=

    Nuclear Repulsion Energy =            460.6709130756323134
    One-Electron Energy =               -1561.9354472274771979
    Two-Electron Energy =                 627.4250171912055976
    Total Energy =                       -473.8395169606392301
  Basis Set: (AUG-CC-PVTZ AUX)
    Blend: AUG-CC-PVTZ-RI
    Molecular point group: c1

    Geometry (in Angstrom), charge = 0, multiplicity = 1:

       Center              X                  Y                   Z               Mass
    ------------   -----------------  -----------------  -----------------  -----------------
         O            0.944898869177    -0.248755671140     1.276125052673    15.994914619570
         O           -3.099067130823     0.092190328860     0.529326052673    15.994914619570
         O           -1.515511130823     1.334744328860    -0.522113947327    15.994914619570
         N            0.151911869177    -0.879399671140    -0.769484947327    14.003074004430
         C            2.336601869177     0.211987328860    -0.653066947327    12.000000000000
         C            1.101496869177    -0.305917671140     0.057162052673    12.000000000000
         C           -1.152665530823    -1.053361971140    -0.231082447327    12.000000000000
         C            3.507056869177     0.407820328860     0.300953052673    12.000000000000
         C           -1.910105130823     0.263494328860    -0.100142947327    12.000000000000
         H            2.599518869177    -0.474475671140    -1.466373947327     1.007825032230
         H            2.061450869177     1.164982328860    -1.124180947327     1.007825032230
         H           -1.086467130823    -1.503151671140     0.768512052673     1.007825032230
         H           -1.754573130823    -1.736741671140    -0.851074947327     1.007825032230
         H            0.196694869177    -0.608408671140    -1.745826947327     1.007825032230
         H            3.806434869177    -0.543456671140     0.746502052673     1.007825032230
         H            4.366008869177     0.828433328860    -0.228409947327     1.007825032230
         H            3.226612869177     1.081063328860     1.111960052673     1.007825032230
         H           -3.512815130823     0.979271328860     0.568679052673     1.007825032230

  Basis Set: AUG-CC-PVTZ
    Blend: AUG-CC-PVTZ
  Basis Set: (AUG-CC-PVTZ AUX)
    Blend: AUG-CC-PVTZ-JKFIT
	 Reference Energy          =    -473.8395169606392301 [Eh]
	 Singles Energy            =      -0.0000000000000000 [Eh]
	 Same-Spin Energy          =      -0.4669012286943901 [Eh]
	 Opposite-Spin Energy      =      -1.4578975111455685 [Eh]
	 Correlation Energy        =      -1.9247987398399586 [Eh]
	 Total Energy              =    -475.7643157004791874 [Eh]

	 ================> DF-SCS-MP2 Energies <==================
	-----------------------------------------------------------
	 SCS Same-Spin Scale       =       0.3333333333333333 [-]
	 SCS Opposite-Spin Scale   =       1.2000000000000000 [-]
	 SCS Same-Spin Energy      =      -0.1556337428981300 [Eh]
	 SCS Opposite-Spin Energy  =      -1.7494770133746822 [Eh]
	 SCS Correlation Energy    =      -1.9051107562728122 [Eh]
	 SCS Total Energy          =    -475.7446277169120208 [Eh]
	-----------------------------------------------------------

  Dipole Moment: [D]
     X:    -0.8445      Y:    -0.7840      Z:    -2.6671     Total:     2.9054

*** Psi4 exiting successfully. Buy a developer a beer!
