                               Psi4 1.3.2 release

  ==> Input File <==

--------------------------------------------------------------------------
#psi4
#
memory 32 gb

molecule  {
0 1
  O        1.0830410    -1.2590340     0.2697030
  O       -3.0460190    -0.6564700     0.3579990
  O       -1.7208190     1.1319200     0.8547670
  N        0.1334480     0.3363350    -1.0591540
  C        2.3767950     0.7348440    -0.1800510
  C        1.1530800    -0.1541890    -0.2667860
  C       -1.1420340    -0.3248900    -0.9988550
  C        3.4883670     0.0910310     0.6318210
  C       -1.9580260     0.1406600     0.1881420
  H        2.7160870     0.9611190    -1.1975940
  H        2.0743670     1.6930220     0.2624750
  H       -0.9793980    -1.4015010    -0.9274340
  H       -1.7176060    -0.1322810    -1.9133280
  H        0.1100098     1.5375626    -1.2333994
  H        3.7876720    -0.8582410     0.1862610
  H        4.3593370     0.7487140     0.6762100
  H        3.1503700    -0.1123850     1.6481590
  H       -3.5474700    -0.2792990     1.1088070
units angstrom
no_reorient  #important for SAPT in psi4, default
symmetry c1  #important for SAPT in psi4, default
}

set PROPERTIES_ORIGIN ["COM"]
properties('MP2/aug-cc-pvtz', properties = ['dipole'])
--------------------------------------------------------------------------

    Molecular point group: c1
  Charge       = 0
  Multiplicity = 1
  Basis Set: AUG-CC-PVTZ
    Blend: AUG-CC-PVTZ
  Basis Set: (AUG-CC-PVTZ AUX)
    Blend: AUG-CC-PVTZ-JKFIT

    Orbital Energies [Eh]
    ---------------------

    Doubly Occupied:

       1A    -20.624999     2A    -20.562131     3A    -20.528472
       4A    -15.607747     5A    -11.398228     6A    -11.355646
       7A    -11.290847     8A    -11.243087     9A    -11.215606
      10A     -1.467907    11A     -1.383433    12A     -1.367889
      13A     -1.225354    14A     -1.062231    15A     -1.001527
      16A     -0.886883    17A     -0.823313    18A     -0.751898
      19A     -0.714216    20A     -0.709024    21A     -0.696741
      22A     -0.652076    23A     -0.639441    24A     -0.635958
      25A     -0.602543    26A     -0.593829    27A     -0.547076
      28A     -0.539131    29A     -0.523403    30A     -0.516642
      31A     -0.494715    32A     -0.490966    33A     -0.468376
      34A     -0.432458    35A     -0.407384

  @DF-RHF Final Energy:  -473.80970928805095

   => Energetics <=

    Nuclear Repulsion Energy =            456.9633137987242435
    One-Electron Energy =               -1554.6236897063754441
    Two-Electron Energy =                 623.8506666196001333
    Total Energy =                       -473.8097092880509535
  Basis Set: (AUG-CC-PVTZ AUX)
    Blend: AUG-CC-PVTZ-RI
    Molecular point group: c1

    Geometry (in Angstrom), charge = 0, multiplicity = 1:

       Center              X                  Y                   Z               Mass
    ------------   -----------------  -----------------  -----------------  -----------------
         O            1.083070742802    -1.260555641395     0.269923617427    15.994914619570
         O           -3.045989257198    -0.657991641395     0.358219617427    15.994914619570
         O           -1.720789257198     1.130398358605     0.854987617427    15.994914619570
         N            0.133477742802     0.334813358605    -1.058933382573    14.003074004430
         C            2.376824742802     0.733322358605    -0.179830382573    12.000000000000
         C            1.153109742802    -0.155710641395    -0.266565382573    12.000000000000
         C           -1.142004257198    -0.326411641395    -0.998634382573    12.000000000000
         C            3.488396742802     0.089509358605     0.632041617427    12.000000000000
         C           -1.957996257198     0.139138358605     0.188362617427    12.000000000000
         H            2.716116742802     0.959597358605    -1.197373382573     1.007825032230
         H            2.074396742802     1.691500358605     0.262695617427     1.007825032230
         H           -0.979368257198    -1.403022641395    -0.927213382573     1.007825032230
         H           -1.717576257198    -0.133802641395    -1.913107382573     1.007825032230
         H            0.110039542802     1.536040958605    -1.233178782573     1.007825032230
         H            3.787701742802    -0.859762641395     0.186481617427     1.007825032230
         H            4.359366742802     0.747192358605     0.676430617427     1.007825032230
         H            3.150399742802    -0.113906641395     1.648379617427     1.007825032230
         H           -3.547440257198    -0.280820641395     1.109027617427     1.007825032230

  Basis Set: AUG-CC-PVTZ
    Blend: AUG-CC-PVTZ
  Basis Set: (AUG-CC-PVTZ AUX)
    Blend: AUG-CC-PVTZ-JKFIT
	 Reference Energy          =    -473.8097092880509535 [Eh]
	 Singles Energy            =      -0.0000000000000000 [Eh]
	 Same-Spin Energy          =      -0.4682599783145258 [Eh]
	 Opposite-Spin Energy      =      -1.4618689549720860 [Eh]
	 Correlation Energy        =      -1.9301289332866118 [Eh]
	 Total Energy              =    -475.7398382213375498 [Eh]

	 ================> DF-SCS-MP2 Energies <==================
	-----------------------------------------------------------
	 SCS Same-Spin Scale       =       0.3333333333333333 [-]
	 SCS Opposite-Spin Scale   =       1.2000000000000000 [-]
	 SCS Same-Spin Energy      =      -0.1560866594381752 [Eh]
	 SCS Opposite-Spin Energy  =      -1.7542427459665031 [Eh]
	 SCS Correlation Energy    =      -1.9103294054046782 [Eh]
	 SCS Total Energy          =    -475.7200386934556491 [Eh]
	-----------------------------------------------------------

  Dipole Moment: [D]
     X:    -0.9886      Y:     2.0193      Z:    -1.7729     Total:     2.8632

*** Psi4 exiting successfully. Buy a developer a beer!
