                               Psi4 1.3.2 release

  ==> Input File <==

--------------------------------------------------------------------------
#psi4
#
memory 32 gb

molecule  {
0 1
  O        1.0830410    -1.2590340     0.2697030
  O       -3.0460190    -0.6564700     0.3579990
  O       -1.7208190     1.1319200     0.8547670
  N        0.1334480     0.3363350    -1.0591540
  C        2.3767950     0.7348440    -0.1800510
  C        1.1530800    -0.1541890    -0.2667860
  C       -1.1420340    -0.3248900    -0.9988550
  C        3.4883670     0.0910310     0.6318210
  C       -1.8502177     0.0791519     0.0313168
  H        2.7160870     0.9611190    -1.1975940
  H        2.0743670     1.6930220     0.2624750
  H       -0.9793980    -1.4015010    -0.9274340
  H       -1.7176060    -0.1322810    -1.9133280
  H        0.1138710     1.3396710    -1.2046940
  H        3.7876720    -0.8582410     0.1862610
  H        4.3593370     0.7487140     0.6762100
  H        3.1503700    -0.1123850     1.6481590
  H       -3.5474700    -0.2792990     1.1088070
units angstrom
no_reorient  #important for SAPT in psi4, default
symmetry c1  #important for SAPT in psi4, default
}

set PROPERTIES_ORIGIN ["COM"]
properties('MP2/aug-cc-pvtz', properties = ['dipole'])
--------------------------------------------------------------------------

    Molecular point group: c1
  Charge       = 0
  Multiplicity = 1
  Basis Set: AUG-CC-PVTZ
    Blend: AUG-CC-PVTZ
  Basis Set: (AUG-CC-PVTZ AUX)
    Blend: AUG-CC-PVTZ-JKFIT

    Orbital Energies [Eh]
    ---------------------

    Doubly Occupied:

       1A    -20.607893     2A    -20.553981     3A    -20.536801
       4A    -15.604881     5A    -11.416625     6A    -11.364624
       7A    -11.298662     8A    -11.249174     9A    -11.219952
      10A     -1.418008    11A     -1.392676    12A     -1.302180
      13A     -1.257115    14A     -1.096460    15A     -1.047973
      16A     -0.899130    17A     -0.819673    18A     -0.797387
      19A     -0.733650    20A     -0.716729    21A     -0.684379
      22A     -0.657975    23A     -0.644146    24A     -0.639533
      25A     -0.605111    26A     -0.568835    27A     -0.552225
      28A     -0.550299    29A     -0.530560    30A     -0.521533
      31A     -0.498527    32A     -0.454838    33A     -0.453406
      34A     -0.442398    35A     -0.424814

  @DF-RHF Final Energy:  -473.76314118361904

   => Energetics <=

    Nuclear Repulsion Energy =            458.5440127988402423
    One-Electron Energy =               -1557.4900072244142848
    Two-Electron Energy =                 625.1828532419550584
    Total Energy =                       -473.7631411836190409
  Basis Set: (AUG-CC-PVTZ AUX)
    Blend: AUG-CC-PVTZ-RI
    Molecular point group: c1

    Geometry (in Angstrom), charge = 0, multiplicity = 1:

       Center              X                  Y                   Z               Mass
    ------------   -----------------  -----------------  -----------------  -----------------
         O            1.073169869856    -1.253402048568     0.284062158694    15.994914619570
         O           -3.055890130144    -0.650838048568     0.372358158694    15.994914619570
         O           -1.730690130144     1.137551951432     0.869126158694    15.994914619570
         N            0.123576869856     0.341966951432    -1.044794841306    14.003074004430
         C            2.366923869856     0.740475951432    -0.165691841306    12.000000000000
         C            1.143208869856    -0.148557048568    -0.252426841306    12.000000000000
         C           -1.151905130144    -0.319258048568    -0.984495841306    12.000000000000
         C            3.478495869856     0.096662951432     0.646180158694    12.000000000000
         C           -1.860088830144     0.084783851432     0.045675958694    12.000000000000
         H            2.706215869856     0.966750951432    -1.183234841306     1.007825032230
         H            2.064495869856     1.698653951432     0.276834158694     1.007825032230
         H           -0.989269130144    -1.395869048568    -0.913074841306     1.007825032230
         H           -1.727477130144    -0.126649048568    -1.898968841306     1.007825032230
         H            0.103999869856     1.345302951432    -1.190334841306     1.007825032230
         H            3.777800869856    -0.852609048568     0.200620158694     1.007825032230
         H            4.349465869856     0.754345951432     0.690569158694     1.007825032230
         H            3.140498869856    -0.106753048568     1.662518158694     1.007825032230
         H           -3.557341130144    -0.273667048568     1.123166158694     1.007825032230

  Basis Set: AUG-CC-PVTZ
    Blend: AUG-CC-PVTZ
  Basis Set: (AUG-CC-PVTZ AUX)
    Blend: AUG-CC-PVTZ-JKFIT
	 Reference Energy          =    -473.7631411836190409 [Eh]
	 Singles Energy            =      -0.0000000000000000 [Eh]
	 Same-Spin Energy          =      -0.4723208224483019 [Eh]
	 Opposite-Spin Energy      =      -1.4686583192251572 [Eh]
	 Correlation Energy        =      -1.9409791416734592 [Eh]
	 Total Energy              =    -475.7041203252924788 [Eh]

	 ================> DF-SCS-MP2 Energies <==================
	-----------------------------------------------------------
	 SCS Same-Spin Scale       =       0.3333333333333333 [-]
	 SCS Opposite-Spin Scale   =       1.2000000000000000 [-]
	 SCS Same-Spin Energy      =      -0.1574402741494340 [Eh]
	 SCS Opposite-Spin Energy  =      -1.7623899830701886 [Eh]
	 SCS Correlation Energy    =      -1.9198302572196226 [Eh]
	 SCS Total Energy          =    -475.6829714408386849 [Eh]
	-----------------------------------------------------------

  Dipole Moment: [D]
     X:    -0.1147      Y:     1.6758      Z:    -2.4688     Total:     2.9861

*** Psi4 exiting successfully. Buy a developer a beer!
