                               Psi4 1.3.2 release

  ==> Input File <==

--------------------------------------------------------------------------
#psi4
#
memory 32 gb

molecule  {
0 1
  O        1.0830410    -1.2590340     0.2697030
  O       -3.0460190    -0.6564700     0.3579990
  O       -1.7208190     1.1319200     0.8547670
  N        0.1334480     0.3363350    -1.0591540
  C        2.3767950     0.7348440    -0.1800510
  C        1.1517972    -0.1546065    -0.2403781
  C       -1.1420340    -0.3248900    -0.9988550
  C        3.4883670     0.0910310     0.6318210
  C       -1.9580260     0.1406600     0.1881420
  H        2.7303481     0.9716012    -1.1903279
  H        2.0743670     1.6930220     0.2624750
  H       -0.9793980    -1.4015010    -0.9274340
  H       -1.7176060    -0.1322810    -1.9133280
  H        0.1138710     1.3396710    -1.2046940
  H        3.7876720    -0.8582410     0.1862610
  H        4.3593370     0.7487140     0.6762100
  H        3.1503700    -0.1123850     1.6481590
  H       -3.5474700    -0.2792990     1.1088070
units angstrom
no_reorient  #important for SAPT in psi4, default
symmetry c1  #important for SAPT in psi4, default
}

set PROPERTIES_ORIGIN ["COM"]
properties('MP2/aug-cc-pvtz', properties = ['dipole'])
--------------------------------------------------------------------------

    Molecular point group: c1
  Charge       = 0
  Multiplicity = 1
  Basis Set: AUG-CC-PVTZ
    Blend: AUG-CC-PVTZ
  Basis Set: (AUG-CC-PVTZ AUX)
    Blend: AUG-CC-PVTZ-JKFIT

    Orbital Energies [Eh]
    ---------------------

    Doubly Occupied:

       1A    -20.625034     2A    -20.562464     3A    -20.532231
       4A    -15.590248     5A    -11.398185     6A    -11.356495
       7A    -11.289536     8A    -11.244095     9A    -11.216625
      10A     -1.468062    11A     -1.392387    12A     -1.368407
      13A     -1.238655    14A     -1.063475    15A     -1.003966
      16A     -0.888948    17A     -0.823295    18A     -0.782625
      19A     -0.715564    20A     -0.713396    21A     -0.699114
      22A     -0.652339    23A     -0.644677    24A     -0.636722
      25A     -0.606102    26A     -0.600686    27A     -0.558667
      28A     -0.541932    29A     -0.525526    30A     -0.518007
      31A     -0.495642    32A     -0.491502    33A     -0.469339
      34A     -0.435742    35A     -0.410144

  @DF-RHF Final Energy:  -473.83955461883124

   => Energetics <=

    Nuclear Repulsion Energy =            458.0684240266558618
    One-Electron Energy =               -1556.6962914183036446
    Two-Electron Energy =                 624.7883127728164254
    Total Energy =                       -473.8395546188312437
  Basis Set: (AUG-CC-PVTZ AUX)
    Blend: AUG-CC-PVTZ-RI
    Molecular point group: c1

    Geometry (in Angstrom), charge = 0, multiplicity = 1:

       Center              X                  Y                   Z               Mass
    ------------   -----------------  -----------------  -----------------  -----------------
         O            1.083048840269    -1.259076254216     0.267229030885    15.994914619570
         O           -3.046011159731    -0.656512254216     0.355525030885    15.994914619570
         O           -1.720811159731     1.131877745784     0.852293030885    15.994914619570
         N            0.133455840269     0.336292745784    -1.061627969115    14.003074004430
         C            2.376802840269     0.734801745784    -0.182524969115    12.000000000000
         C            1.151805040269    -0.154648754216    -0.242852069115    12.000000000000
         C           -1.142026159731    -0.324932254216    -1.001328969115    12.000000000000
         C            3.488374840269     0.090988745784     0.629347030885    12.000000000000
         C           -1.958018159731     0.140617745784     0.185668030885    12.000000000000
         H            2.730355940269     0.971558945784    -1.192801869115     1.007825032230
         H            2.074374840269     1.692979745784     0.260001030885     1.007825032230
         H           -0.979390159731    -1.401543254216    -0.929907969115     1.007825032230
         H           -1.717598159731    -0.132323254216    -1.915801969115     1.007825032230
         H            0.113878840269     1.339628745784    -1.207167969115     1.007825032230
         H            3.787679840269    -0.858283254216     0.183787030885     1.007825032230
         H            4.359344840269     0.748671745784     0.673736030885     1.007825032230
         H            3.150377840269    -0.112427254216     1.645685030885     1.007825032230
         H           -3.547462159731    -0.279341254216     1.106333030885     1.007825032230

  Basis Set: AUG-CC-PVTZ
    Blend: AUG-CC-PVTZ
  Basis Set: (AUG-CC-PVTZ AUX)
    Blend: AUG-CC-PVTZ-JKFIT
	 Reference Energy          =    -473.8395546188312437 [Eh]
	 Singles Energy            =      -0.0000000000000000 [Eh]
	 Same-Spin Energy          =      -0.4665531072123595 [Eh]
	 Opposite-Spin Energy      =      -1.4574329867776090 [Eh]
	 Correlation Energy        =      -1.9239860939899684 [Eh]
	 Total Energy              =    -475.7635407128212250 [Eh]

	 ================> DF-SCS-MP2 Energies <==================
	-----------------------------------------------------------
	 SCS Same-Spin Scale       =       0.3333333333333333 [-]
	 SCS Opposite-Spin Scale   =       1.2000000000000000 [-]
	 SCS Same-Spin Energy      =      -0.1555177024041198 [Eh]
	 SCS Opposite-Spin Energy  =      -1.7489195841331309 [Eh]
	 SCS Correlation Energy    =      -1.9044372865372508 [Eh]
	 SCS Total Energy          =    -475.7439919053684889 [Eh]
	-----------------------------------------------------------

  Dipole Moment: [D]
     X:    -0.8778      Y:     1.8192      Z:    -1.6708     Total:     2.6214

*** Psi4 exiting successfully. Buy a developer a beer!
