                               Psi4 1.3.2 release

  ==> Input File <==

--------------------------------------------------------------------------
#psi4
#
memory 32 gb

molecule  {
0 1
  O        1.0830410    -1.2590340     0.2697030
  O       -3.0460190    -0.6564700     0.3579990
  O       -1.7208190     1.1319200     0.8547670
  N        0.1334480     0.3363350    -1.0591540
  C        2.3767950     0.7348440    -0.1800510
  C        1.1530800    -0.1541890    -0.2667860
  C       -1.1420340    -0.3248900    -0.9988550
  C        3.4883670     0.0910310     0.6318210
  C       -1.9580260     0.1406600     0.1881420
  H        2.7160870     0.9611190    -1.1975940
  H        2.0743670     1.6930220     0.2624750
  H       -0.9793980    -1.4015010    -0.9274340
  H       -1.8224879    -0.0971834    -2.0799652
  H        0.1138710     1.3396710    -1.2046940
  H        3.7876720    -0.8582410     0.1862610
  H        4.3593370     0.7487140     0.6762100
  H        3.1503700    -0.1123850     1.6481590
  H       -3.5474700    -0.2792990     1.1088070
units angstrom
no_reorient  #important for SAPT in psi4, default
symmetry c1  #important for SAPT in psi4, default
}

set PROPERTIES_ORIGIN ["COM"]
properties('MP2/aug-cc-pvtz', properties = ['dipole'])
--------------------------------------------------------------------------

    Molecular point group: c1
  Charge       = 0
  Multiplicity = 1
  Basis Set: AUG-CC-PVTZ
    Blend: AUG-CC-PVTZ
  Basis Set: (AUG-CC-PVTZ AUX)
    Blend: AUG-CC-PVTZ-JKFIT

    Orbital Energies [Eh]
    ---------------------

    Doubly Occupied:

       1A    -20.625264     2A    -20.563691     3A    -20.530143
       4A    -15.595188     5A    -11.400642     6A    -11.357827
       7A    -11.311876     8A    -11.245266     9A    -11.217242
      10A     -1.468625    11A     -1.386352    12A     -1.369052
      13A     -1.242490    14A     -1.063019    15A     -0.998835
      16A     -0.890590    17A     -0.819609    18A     -0.787195
      19A     -0.715547    20A     -0.714246    21A     -0.689075
      22A     -0.648328    23A     -0.645372    24A     -0.636132
      25A     -0.605022    26A     -0.595636    27A     -0.549861
      28A     -0.536550    29A     -0.520388    30A     -0.517828
      31A     -0.495516    32A     -0.491332    33A     -0.469773
      34A     -0.435419    35A     -0.409686

  @DF-RHF Final Energy:  -473.81885884132402

   => Energetics <=

    Nuclear Repulsion Energy =            457.0501350243791876
    One-Electron Energy =               -1554.6407484646756529
    Two-Electron Energy =                 623.7717545989723931
    Total Energy =                       -473.8188588413240723
  Basis Set: (AUG-CC-PVTZ AUX)
    Blend: AUG-CC-PVTZ-RI
    Molecular point group: c1

    Geometry (in Angstrom), charge = 0, multiplicity = 1:

       Center              X                  Y                   Z               Mass
    ------------   -----------------  -----------------  -----------------  -----------------
         O            1.083847582075    -1.259303771506     0.270984299437    15.994914619570
         O           -3.045212417925    -0.656739771506     0.359280299437    15.994914619570
         O           -1.720012417925     1.131650228494     0.856048299437    15.994914619570
         N            0.134254582075     0.336065228494    -1.057872700563    14.003074004430
         C            2.377601582075     0.734574228494    -0.178769700563    12.000000000000
         C            1.153886582075    -0.154458771506    -0.265504700563    12.000000000000
         C           -1.141227417925    -0.325159771506    -0.997573700563    12.000000000000
         C            3.489173582075     0.090761228494     0.633102299437    12.000000000000
         C           -1.957219417925     0.140390228494     0.189423299437    12.000000000000
         H            2.716893582075     0.960849228494    -1.196312700563     1.007825032230
         H            2.075173582075     1.692752228494     0.263756299437     1.007825032230
         H           -0.978591417925    -1.401770771506    -0.926152700563     1.007825032230
         H           -1.821681317925    -0.097453171506    -2.078683900563     1.007825032230
         H            0.114677582075     1.339401228494    -1.203412700563     1.007825032230
         H            3.788478582075    -0.858510771506     0.187542299437     1.007825032230
         H            4.360143582075     0.748444228494     0.677491299437     1.007825032230
         H            3.151176582075    -0.112654771506     1.649440299437     1.007825032230
         H           -3.546663417925    -0.279568771506     1.110088299437     1.007825032230

  Basis Set: AUG-CC-PVTZ
    Blend: AUG-CC-PVTZ
  Basis Set: (AUG-CC-PVTZ AUX)
    Blend: AUG-CC-PVTZ-JKFIT
	 Reference Energy          =    -473.8188588413240154 [Eh]
	 Singles Energy            =      -0.0000000000000000 [Eh]
	 Same-Spin Energy          =      -0.4669617130087791 [Eh]
	 Opposite-Spin Energy      =      -1.4594952926394078 [Eh]
	 Correlation Energy        =      -1.9264570056481869 [Eh]
	 Total Energy              =    -475.7453158469721757 [Eh]

	 ================> DF-SCS-MP2 Energies <==================
	-----------------------------------------------------------
	 SCS Same-Spin Scale       =       0.3333333333333333 [-]
	 SCS Opposite-Spin Scale   =       1.2000000000000000 [-]
	 SCS Same-Spin Energy      =      -0.1556539043362597 [Eh]
	 SCS Opposite-Spin Energy  =      -1.7513943511672894 [Eh]
	 SCS Correlation Energy    =      -1.9070482555035491 [Eh]
	 SCS Total Energy          =    -475.7259070968275410 [Eh]
	-----------------------------------------------------------

  Dipole Moment: [D]
     X:    -0.8634      Y:     1.8893      Z:    -1.7020     Total:     2.6855

*** Psi4 exiting successfully. Buy a developer a beer!
