                               Psi4 1.3.2 release

  ==> Input File <==

--------------------------------------------------------------------------
#psi4
#
memory 32 gb

molecule  {
0 1
  O        1.0830410    -1.2590340     0.2697030
  O       -3.0460190    -0.6564700     0.3579990
  O       -1.7208190     1.1319200     0.8547670
  N        0.1334480     0.3363350    -1.0591540
  C        2.3767950     0.7348440    -0.1800510
  C        1.1530800    -0.1541890    -0.2667860
  C       -1.1420340    -0.3248900    -0.9988550
  C        3.4883670     0.0910310     0.6318210
  C       -1.9580260     0.1406600     0.1881420
  H        2.7160870     0.9611190    -1.1975940
  H        2.0743670     1.6930220     0.2624750
  H       -0.9793980    -1.4015010    -0.9274340
  H       -1.6127241    -0.1673786    -1.7466908
  H        0.1138710     1.3396710    -1.2046940
  H        3.7876720    -0.8582410     0.1862610
  H        4.3593370     0.7487140     0.6762100
  H        3.1503700    -0.1123850     1.6481590
  H       -3.5474700    -0.2792990     1.1088070
units angstrom
no_reorient  #important for SAPT in psi4, default
symmetry c1  #important for SAPT in psi4, default
}

set PROPERTIES_ORIGIN ["COM"]
properties('MP2/aug-cc-pvtz', properties = ['dipole'])
--------------------------------------------------------------------------

    Molecular point group: c1
  Charge       = 0
  Multiplicity = 1
  Basis Set: AUG-CC-PVTZ
    Blend: AUG-CC-PVTZ
  Basis Set: (AUG-CC-PVTZ AUX)
    Blend: AUG-CC-PVTZ-JKFIT

    Orbital Energies [Eh]
    ---------------------

    Doubly Occupied:

       1A    -20.626136     2A    -20.563016     3A    -20.528019
       4A    -15.591534     5A    -11.398302     6A    -11.355126
       7A    -11.267611     8A    -11.243653     9A    -11.216060
      10A     -1.469000    11A     -1.384104    12A     -1.368748
      13A     -1.243536    14A     -1.067402    15A     -1.020660
      16A     -0.889285    17A     -0.835778    18A     -0.784853
      19A     -0.723645    20A     -0.712680    21A     -0.710857
      22A     -0.658864    23A     -0.643880    24A     -0.637467
      25A     -0.605508    26A     -0.604140    27A     -0.569048
      28A     -0.541281    29A     -0.526109    30A     -0.517000
      31A     -0.495643    32A     -0.491838    33A     -0.469351
      34A     -0.433294    35A     -0.410640

  @DF-RHF Final Energy:  -473.80744237933624

   => Energetics <=

    Nuclear Repulsion Energy =            459.2443228883969368
    One-Electron Energy =               -1558.8953952286190088
    Two-Electron Energy =                 625.8436299608858917
    Total Energy =                       -473.8074423793361802
  Basis Set: (AUG-CC-PVTZ AUX)
    Blend: AUG-CC-PVTZ-RI
    Molecular point group: c1

    Geometry (in Angstrom), charge = 0, multiplicity = 1:

       Center              X                  Y                   Z               Mass
    ------------   -----------------  -----------------  -----------------  -----------------
         O            1.082234519032    -1.258763977305     0.268421451997    15.994914619570
         O           -3.046825480968    -0.656199977305     0.356717451997    15.994914619570
         O           -1.721625480968     1.132190022695     0.853485451997    15.994914619570
         N            0.132641519032     0.336605022695    -1.060435548003    14.003074004430
         C            2.375988519032     0.735114022695    -0.181332548003    12.000000000000
         C            1.152273519032    -0.153918977305    -0.268067548003    12.000000000000
         C           -1.142840480968    -0.324619977305    -1.000136548003    12.000000000000
         C            3.487560519032     0.091301022695     0.630539451997    12.000000000000
         C           -1.958832480968     0.140930022695     0.186860451997    12.000000000000
         H            2.715280519032     0.961389022695    -1.198875548003     1.007825032230
         H            2.073560519032     1.693292022695     0.261193451997     1.007825032230
         H           -0.980204480968    -1.401230977305    -0.928715548003     1.007825032230
         H           -1.613530580968    -0.167108577305    -1.747972348003     1.007825032230
         H            0.113064519032     1.339941022695    -1.205975548003     1.007825032230
         H            3.786865519032    -0.857970977305     0.184979451997     1.007825032230
         H            4.358530519032     0.748984022695     0.674928451997     1.007825032230
         H            3.149563519032    -0.112114977305     1.646877451997     1.007825032230
         H           -3.548276480968    -0.279028977305     1.107525451997     1.007825032230

  Basis Set: AUG-CC-PVTZ
    Blend: AUG-CC-PVTZ
  Basis Set: (AUG-CC-PVTZ AUX)
    Blend: AUG-CC-PVTZ-JKFIT
	 Reference Energy          =    -473.8074423793362371 [Eh]
	 Singles Energy            =      -0.0000000000000000 [Eh]
	 Same-Spin Energy          =      -0.4667112273130374 [Eh]
	 Opposite-Spin Energy      =      -1.4571023339338489 [Eh]
	 Correlation Energy        =      -1.9238135612468863 [Eh]
	 Total Energy              =    -475.7312559405831394 [Eh]

	 ================> DF-SCS-MP2 Energies <==================
	-----------------------------------------------------------
	 SCS Same-Spin Scale       =       0.3333333333333333 [-]
	 SCS Opposite-Spin Scale   =       1.2000000000000000 [-]
	 SCS Same-Spin Energy      =      -0.1555704091043458 [Eh]
	 SCS Opposite-Spin Energy  =      -1.7485228007206186 [Eh]
	 SCS Correlation Energy    =      -1.9040932098249643 [Eh]
	 SCS Total Energy          =    -475.7115355891612012 [Eh]
	-----------------------------------------------------------

  Dipole Moment: [D]
     X:    -0.9994      Y:     1.8655      Z:    -1.7389     Total:     2.7391

*** Psi4 exiting successfully. Buy a developer a beer!
