                               Psi4 1.3.2 release

  ==> Input File <==

--------------------------------------------------------------------------
#psi4
#
memory 32 gb

molecule  {
0 1
  O        1.0830410    -1.2590340     0.2697030
  O       -3.0460190    -0.6564700     0.3579990
  O       -1.7208190     1.1319200     0.8547670
  N        0.1334480     0.3363350    -1.0591540
  C        2.3767950     0.7348440    -0.1800510
  C        1.1530800    -0.1541890    -0.2667860
  C       -1.2307352    -0.3708738    -0.9946616
  C        3.4883670     0.0910310     0.6318210
  C       -1.9580260     0.1406600     0.1881420
  H        2.7160870     0.9611190    -1.1975940
  H        2.0743670     1.6930220     0.2624750
  H       -0.9793980    -1.4015010    -0.9274340
  H       -1.7176060    -0.1322810    -1.9133280
  H        0.1138710     1.3396710    -1.2046940
  H        3.7876720    -0.8582410     0.1862610
  H        4.3593370     0.7487140     0.6762100
  H        3.1503700    -0.1123850     1.6481590
  H       -3.5474700    -0.2792990     1.1088070
units angstrom
no_reorient  #important for SAPT in psi4, default
symmetry c1  #important for SAPT in psi4, default
}

set PROPERTIES_ORIGIN ["COM"]
properties('MP2/aug-cc-pvtz', properties = ['dipole'])
--------------------------------------------------------------------------

    Molecular point group: c1
  Charge       = 0
  Multiplicity = 1
  Basis Set: AUG-CC-PVTZ
    Blend: AUG-CC-PVTZ
  Basis Set: (AUG-CC-PVTZ AUX)
    Blend: AUG-CC-PVTZ-JKFIT

    Orbital Energies [Eh]
    ---------------------

    Doubly Occupied:

       1A    -20.626258     2A    -20.567937     3A    -20.524724
       4A    -15.589532     5A    -11.403303     6A    -11.352419
       7A    -11.293521     8A    -11.241801     9A    -11.214726
      10A     -1.472353    11A     -1.379677    12A     -1.371521
      13A     -1.220740    14A     -1.062085    15A     -1.017171
      16A     -0.886032    17A     -0.826762    18A     -0.777479
      19A     -0.719097    20A     -0.711980    21A     -0.700241
      22A     -0.654719    23A     -0.636245    24A     -0.630132
      25A     -0.607633    26A     -0.591781    27A     -0.572621
      28A     -0.540211    29A     -0.519961    30A     -0.515255
      31A     -0.496952    32A     -0.491353    33A     -0.475030
      34A     -0.429337    35A     -0.408669

  @DF-RHF Final Energy:  -473.82971880449753

   => Energetics <=

    Nuclear Repulsion Energy =            457.0710559289469757
    One-Electron Energy =               -1554.7430309321482582
    Two-Electron Energy =                 623.8422561987036943
    Total Energy =                       -473.8297188044974746
  Basis Set: (AUG-CC-PVTZ AUX)
    Blend: AUG-CC-PVTZ-RI
    Molecular point group: c1

    Geometry (in Angstrom), charge = 0, multiplicity = 1:

       Center              X                  Y                   Z               Mass
    ------------   -----------------  -----------------  -----------------  -----------------
         O            1.091162740379    -1.254823489872     0.269318918182    15.994914619570
         O           -3.037897259621    -0.652259489872     0.357614918182    15.994914619570
         O           -1.712697259621     1.136130510128     0.854382918182    15.994914619570
         N            0.141569740379     0.340545510128    -1.059538081818    14.003074004430
         C            2.384916740379     0.739054510128    -0.180435081818    12.000000000000
         C            1.161201740379    -0.149978489872    -0.267170081818    12.000000000000
         C           -1.222613459621    -0.366663289872    -0.995045681818    12.000000000000
         C            3.496488740379     0.095241510128     0.631436918182    12.000000000000
         C           -1.949904259621     0.144870510128     0.187757918182    12.000000000000
         H            2.724208740379     0.965329510128    -1.197978081818     1.007825032230
         H            2.082488740379     1.697232510128     0.262090918182     1.007825032230
         H           -0.971276259621    -1.397290489872    -0.927818081818     1.007825032230
         H           -1.709484259621    -0.128070489872    -1.913712081818     1.007825032230
         H            0.121992740379     1.343881510128    -1.205078081818     1.007825032230
         H            3.795793740379    -0.854030489872     0.185876918182     1.007825032230
         H            4.367458740379     0.752924510128     0.675825918182     1.007825032230
         H            3.158491740379    -0.108174489872     1.647774918182     1.007825032230
         H           -3.539348259621    -0.275088489872     1.108422918182     1.007825032230

  Basis Set: AUG-CC-PVTZ
    Blend: AUG-CC-PVTZ
  Basis Set: (AUG-CC-PVTZ AUX)
    Blend: AUG-CC-PVTZ-JKFIT
	 Reference Energy          =    -473.8297188044975314 [Eh]
	 Singles Energy            =      -0.0000000000000000 [Eh]
	 Same-Spin Energy          =      -0.4668586647309190 [Eh]
	 Opposite-Spin Energy      =      -1.4590107631037252 [Eh]
	 Correlation Energy        =      -1.9258694278346442 [Eh]
	 Total Energy              =    -475.7555882323321725 [Eh]

	 ================> DF-SCS-MP2 Energies <==================
	-----------------------------------------------------------
	 SCS Same-Spin Scale       =       0.3333333333333333 [-]
	 SCS Opposite-Spin Scale   =       1.2000000000000000 [-]
	 SCS Same-Spin Energy      =      -0.1556195549103063 [Eh]
	 SCS Opposite-Spin Energy  =      -1.7508129157244703 [Eh]
	 SCS Correlation Energy    =      -1.9064324706347766 [Eh]
	 SCS Total Energy          =    -475.7361512751323289 [Eh]
	-----------------------------------------------------------

  Dipole Moment: [D]
     X:    -1.2300      Y:     1.8560      Z:    -1.7377     Total:     2.8244

*** Psi4 exiting successfully. Buy a developer a beer!
