                               Psi4 1.3.2 release

  ==> Input File <==

--------------------------------------------------------------------------
#psi4
#
memory 32 gb

molecule  {
0 1
  O        1.0830410    -1.2590340     0.2697030
  O       -3.0460190    -0.6564700     0.3579990
  O       -1.7208190     1.1319200     0.8547670
  N        0.1334480     0.3363350    -1.0591540
  C        2.3767950     0.7348440    -0.1800510
  C        1.1530800    -0.1541890    -0.2667860
  C       -1.3194365    -0.4168575    -0.9904682
  C        3.4883670     0.0910310     0.6318210
  C       -1.9580260     0.1406600     0.1881420
  H        2.7160870     0.9611190    -1.1975940
  H        2.0743670     1.6930220     0.2624750
  H       -0.9793980    -1.4015010    -0.9274340
  H       -1.7176060    -0.1322810    -1.9133280
  H        0.1138710     1.3396710    -1.2046940
  H        3.7876720    -0.8582410     0.1862610
  H        4.3593370     0.7487140     0.6762100
  H        3.1503700    -0.1123850     1.6481590
  H       -3.5474700    -0.2792990     1.1088070
units angstrom
no_reorient  #important for SAPT in psi4, default
symmetry c1  #important for SAPT in psi4, default
}

set PROPERTIES_ORIGIN ["COM"]
properties('MP2/aug-cc-pvtz', properties = ['dipole'])
--------------------------------------------------------------------------

    Molecular point group: c1
  Charge       = 0
  Multiplicity = 1
  Basis Set: AUG-CC-PVTZ
    Blend: AUG-CC-PVTZ
  Basis Set: (AUG-CC-PVTZ AUX)
    Blend: AUG-CC-PVTZ-JKFIT

    Orbital Energies [Eh]
    ---------------------

    Doubly Occupied:

       1A    -20.627415     2A    -20.572858     3A    -20.520899
       4A    -15.584468     5A    -11.407829     6A    -11.348665
       7A    -11.299427     8A    -11.239318     9A    -11.212918
      10A     -1.476742    11A     -1.377269    12A     -1.372650
      13A     -1.204040    14A     -1.062678    15A     -1.025790
      16A     -0.882752    17A     -0.830903    18A     -0.770297
      19A     -0.722030    20A     -0.713891    21A     -0.702760
      22A     -0.660843    23A     -0.633689    24A     -0.619359
      25A     -0.613203    26A     -0.592121    27A     -0.568667
      28A     -0.538430    29A     -0.513404    30A     -0.509567
      31A     -0.499722    32A     -0.489353    33A     -0.480987
      34A     -0.424123    35A     -0.404329

  @DF-RHF Final Energy:  -473.80491001893608

   => Energetics <=

    Nuclear Repulsion Energy =            456.1815920803024937
    One-Electron Energy =               -1552.9662117198831766
    Two-Electron Energy =                 622.9797096206447122
    Total Energy =                       -473.8049100189360843
  Basis Set: (AUG-CC-PVTZ AUX)
    Blend: AUG-CC-PVTZ-RI
    Molecular point group: c1

    Geometry (in Angstrom), charge = 0, multiplicity = 1:

       Center              X                  Y                   Z               Mass
    ------------   -----------------  -----------------  -----------------  -----------------
         O            1.099284439361    -1.250613114494     0.268934960646    15.994914619570
         O           -3.029775560639    -0.648049114494     0.357230960646    15.994914619570
         O           -1.704575560639     1.140340885506     0.853998960646    15.994914619570
         N            0.149691439361     0.344755885506    -1.059922039354    14.003074004430
         C            2.393038439361     0.743264885506    -0.180819039354    12.000000000000
         C            1.169323439361    -0.145768114494    -0.267554039354    12.000000000000
         C           -1.303193060639    -0.408436614494    -0.991236239354    12.000000000000
         C            3.504610439361     0.099451885506     0.631052960646    12.000000000000
         C           -1.941782560639     0.149080885506     0.187373960646    12.000000000000
         H            2.732330439361     0.969539885506    -1.198362039354     1.007825032230
         H            2.090610439361     1.701442885506     0.261706960646     1.007825032230
         H           -0.963154560639    -1.393080114494    -0.928202039354     1.007825032230
         H           -1.701362560639    -0.123860114494    -1.914096039354     1.007825032230
         H            0.130114439361     1.348091885506    -1.205462039354     1.007825032230
         H            3.803915439361    -0.849820114494     0.185492960646     1.007825032230
         H            4.375580439361     0.757134885506     0.675441960646     1.007825032230
         H            3.166613439361    -0.103964114494     1.647390960646     1.007825032230
         H           -3.531226560639    -0.270878114494     1.108038960646     1.007825032230

  Basis Set: AUG-CC-PVTZ
    Blend: AUG-CC-PVTZ
  Basis Set: (AUG-CC-PVTZ AUX)
    Blend: AUG-CC-PVTZ-JKFIT
	 Reference Energy          =    -473.8049100189360843 [Eh]
	 Singles Energy            =      -0.0000000000000000 [Eh]
	 Same-Spin Energy          =      -0.4677581571946468 [Eh]
	 Opposite-Spin Energy      =      -1.4616055798941601 [Eh]
	 Correlation Energy        =      -1.9293637370888068 [Eh]
	 Total Energy              =    -475.7342737560248906 [Eh]

	 ================> DF-SCS-MP2 Energies <==================
	-----------------------------------------------------------
	 SCS Same-Spin Scale       =       0.3333333333333333 [-]
	 SCS Opposite-Spin Scale   =       1.2000000000000000 [-]
	 SCS Same-Spin Energy      =      -0.1559193857315489 [Eh]
	 SCS Opposite-Spin Energy  =      -1.7539266958729920 [Eh]
	 SCS Correlation Energy    =      -1.9098460816045408 [Eh]
	 SCS Total Energy          =    -475.7147561005406260 [Eh]
	-----------------------------------------------------------

  Dipole Moment: [D]
     X:    -1.4803      Y:     1.8354      Z:    -1.7178     Total:     2.9173

*** Psi4 exiting successfully. Buy a developer a beer!
