                               Psi4 1.3.2 release

  ==> Input File <==

--------------------------------------------------------------------------
#psi4
#
memory 32 gb

molecule  {
0 1
  O        1.0830410    -1.2590340     0.2697030
  O       -3.0460190    -0.6564700     0.3579990
  O       -1.7208190     1.1319200     0.8547670
  N        0.1334480     0.3363350    -1.0591540
  C        2.3767950     0.7348440    -0.1800510
  C        1.1410027    -0.1357473    -0.2813887
  C       -1.1420340    -0.3248900    -0.9988550
  C        3.5034889     0.1124148     0.6276410
  C       -1.9580260     0.1406600     0.1881420
  H        2.7160870     0.9611190    -1.1975940
  H        2.0743670     1.6930220     0.2624750
  H       -0.9793980    -1.4015010    -0.9274340
  H       -1.7176060    -0.1322810    -1.9133280
  H        0.1138710     1.3396710    -1.2046940
  H        3.7876720    -0.8582410     0.1862610
  H        4.3593370     0.7487140     0.6762100
  H        3.1503700    -0.1123850     1.6481590
  H       -3.5474700    -0.2792990     1.1088070
units angstrom
no_reorient  #important for SAPT in psi4, default
symmetry c1  #important for SAPT in psi4, default
}

set PROPERTIES_ORIGIN ["COM"]
properties('MP2/aug-cc-pvtz', properties = ['dipole'])
--------------------------------------------------------------------------

    Molecular point group: c1
  Charge       = 0
  Multiplicity = 1
  Basis Set: AUG-CC-PVTZ
    Blend: AUG-CC-PVTZ
  Basis Set: (AUG-CC-PVTZ AUX)
    Blend: AUG-CC-PVTZ-JKFIT

    Orbital Energies [Eh]
    ---------------------

    Doubly Occupied:

       1A    -20.626684     2A    -20.564317     3A    -20.523301
       4A    -15.597987     5A    -11.400822     6A    -11.356409
       7A    -11.293562     8A    -11.244476     9A    -11.216104
      10A     -1.469815    11A     -1.374842    12A     -1.367409
      13A     -1.246925    14A     -1.063475    15A     -1.010097
      16A     -0.891004    17A     -0.827513    18A     -0.790631
      19A     -0.717655    20A     -0.714002    21A     -0.697409
      22A     -0.654548    23A     -0.644994    24A     -0.635399
      25A     -0.604375    26A     -0.595880    27A     -0.560911
      28A     -0.536843    29A     -0.531941    30A     -0.513560
      31A     -0.494535    32A     -0.488628    33A     -0.469477
      34A     -0.430699    35A     -0.410540

  @DF-RHF Final Energy:  -473.83637614802194

   => Energetics <=

    Nuclear Repulsion Energy =            457.8569198985032926
    One-Electron Energy =               -1556.2530503112018323
    Two-Electron Energy =                 624.5597542646765987
    Total Energy =                       -473.8363761480219409
  Basis Set: (AUG-CC-PVTZ AUX)
    Blend: AUG-CC-PVTZ-RI
    Molecular point group: c1

    Geometry (in Angstrom), charge = 0, multiplicity = 1:

       Center              X                  Y                   Z               Mass
    ------------   -----------------  -----------------  -----------------  -----------------
         O            1.082762279839    -1.262680390554     0.271422663763    15.994914619570
         O           -3.046297720161    -0.660116390554     0.359718663763    15.994914619570
         O           -1.721097720161     1.128273609446     0.856486663763    15.994914619570
         N            0.133169279839     0.332688609446    -1.057434336237    14.003074004430
         C            2.376516279839     0.731197609446    -0.178331336237    12.000000000000
         C            1.140723979839    -0.139393690554    -0.279669036237    12.000000000000
         C           -1.142312720161    -0.328536390554    -0.997135336237    12.000000000000
         C            3.503210179839     0.108768409446     0.629360663763    12.000000000000
         C           -1.958304720161     0.137013609446     0.189861663763    12.000000000000
         H            2.715808279839     0.957472609446    -1.195874336237     1.007825032230
         H            2.074088279839     1.689375609446     0.264194663763     1.007825032230
         H           -0.979676720161    -1.405147390554    -0.925714336237     1.007825032230
         H           -1.717884720161    -0.135927390554    -1.911608336237     1.007825032230
         H            0.113592279839     1.336024609446    -1.202974336237     1.007825032230
         H            3.787393279839    -0.861887390554     0.187980663763     1.007825032230
         H            4.359058279839     0.745067609446     0.677929663763     1.007825032230
         H            3.150091279839    -0.116031390554     1.649878663763     1.007825032230
         H           -3.547748720161    -0.282945390554     1.110526663763     1.007825032230

  Basis Set: AUG-CC-PVTZ
    Blend: AUG-CC-PVTZ
  Basis Set: (AUG-CC-PVTZ AUX)
    Blend: AUG-CC-PVTZ-JKFIT
	 Reference Energy          =    -473.8363761480219409 [Eh]
	 Singles Energy            =      -0.0000000000000000 [Eh]
	 Same-Spin Energy          =      -0.4671924704891168 [Eh]
	 Opposite-Spin Energy      =      -1.4585809371214578 [Eh]
	 Correlation Energy        =      -1.9257734076105746 [Eh]
	 Total Energy              =    -475.7621495556325044 [Eh]

	 ================> DF-SCS-MP2 Energies <==================
	-----------------------------------------------------------
	 SCS Same-Spin Scale       =       0.3333333333333333 [-]
	 SCS Opposite-Spin Scale   =       1.2000000000000000 [-]
	 SCS Same-Spin Energy      =      -0.1557308234963722 [Eh]
	 SCS Opposite-Spin Energy  =      -1.7502971245457493 [Eh]
	 SCS Correlation Energy    =      -1.9060279480421216 [Eh]
	 SCS Total Energy          =    -475.7424040960640355 [Eh]
	-----------------------------------------------------------

  Dipole Moment: [D]
     X:    -1.0908      Y:     1.9989      Z:    -1.8594     Total:     2.9399

*** Psi4 exiting successfully. Buy a developer a beer!
