                               Psi4 1.3.2 release

  ==> Input File <==

--------------------------------------------------------------------------
#psi4
#
memory 32 gb

molecule  {
0 1
  O        1.0830410    -1.2590340     0.2697030
  O       -3.0460190    -0.6564700     0.3579990
  O       -1.7208190     1.1319200     0.8547670
  N        0.1334480     0.3363350    -1.0591540
  C        2.3767950     0.7348440    -0.1800510
  C        1.1530800    -0.1541890    -0.2667860
  C       -1.1477694    -0.3138672    -1.0006065
  C        3.4883670     0.0910310     0.6318210
  C       -1.9580260     0.1406600     0.1881420
  H        2.7160870     0.9611190    -1.1975940
  H        2.0743670     1.6930220     0.2624750
  H       -0.9793980    -1.4015010    -0.9274340
  H       -1.7176060    -0.1322810    -1.9133280
  H        0.1050278     1.3394290    -1.2049035
  H        3.7876720    -0.8582410     0.1862610
  H        4.3593370     0.7487140     0.6762100
  H        3.1503700    -0.1123850     1.6481590
  H       -3.5474700    -0.2792990     1.1088070
units angstrom
no_reorient  #important for SAPT in psi4, default
symmetry c1  #important for SAPT in psi4, default
}

set PROPERTIES_ORIGIN ["COM"]
properties('MP2/aug-cc-pvtz', properties = ['dipole'])
--------------------------------------------------------------------------

    Molecular point group: c1
  Charge       = 0
  Multiplicity = 1
  Basis Set: AUG-CC-PVTZ
    Blend: AUG-CC-PVTZ
  Basis Set: (AUG-CC-PVTZ AUX)
    Blend: AUG-CC-PVTZ-JKFIT

    Orbital Energies [Eh]
    ---------------------

    Doubly Occupied:

       1A    -20.625630     2A    -20.562883     3A    -20.528983
       4A    -15.592847     5A    -11.398924     6A    -11.356473
       7A    -11.290674     8A    -11.244273     9A    -11.216498
      10A     -1.468726    11A     -1.384933    12A     -1.368731
      13A     -1.241959    14A     -1.063551    15A     -1.006591
      16A     -0.890033    17A     -0.824750    18A     -0.785426
      19A     -0.716267    20A     -0.713422    21A     -0.699150
      22A     -0.653875    23A     -0.642910    24A     -0.637109
      25A     -0.604412    26A     -0.599908    27A     -0.556943
      28A     -0.540867    29A     -0.525523    30A     -0.517444
      31A     -0.495525    32A     -0.491678    33A     -0.469448
      34A     -0.434352    35A     -0.410518

  @DF-RHF Final Energy:  -473.83942482832674

   => Energetics <=

    Nuclear Repulsion Energy =            458.0437025633587496
    One-Electron Energy =               -1556.6437731041951338
    Two-Electron Energy =                 624.7606457125096995
    Total Energy =                       -473.8394248283267416
  Basis Set: (AUG-CC-PVTZ AUX)
    Blend: AUG-CC-PVTZ-RI
    Molecular point group: c1

    Geometry (in Angstrom), charge = 0, multiplicity = 1:

       Center              X                  Y                   Z               Mass
    ------------   -----------------  -----------------  -----------------  -----------------
         O            1.083634200564    -1.260041286860     0.269864858197    15.994914619570
         O           -3.045425799436    -0.657477286860     0.358160858197    15.994914619570
         O           -1.720225799436     1.130912713140     0.854928858197    15.994914619570
         N            0.134041200564     0.335327713140    -1.058992141803    14.003074004430
         C            2.377388200564     0.733836713140    -0.179889141803    12.000000000000
         C            1.153673200564    -0.155196286860    -0.266624141803    12.000000000000
         C           -1.147176199436    -0.314874486860    -1.000444641803    12.000000000000
         C            3.488960200564     0.090023713140     0.631982858197    12.000000000000
         C           -1.957432799436     0.139652713140     0.188303858197    12.000000000000
         H            2.716680200564     0.960111713140    -1.197432141803     1.007825032230
         H            2.074960200564     1.692014713140     0.262636858197     1.007825032230
         H           -0.978804799436    -1.402508286860    -0.927272141803     1.007825032230
         H           -1.717012799436    -0.133288286860    -1.913166141803     1.007825032230
         H            0.105621000564     1.338421713140    -1.204741641803     1.007825032230
         H            3.788265200564    -0.859248286860     0.186422858197     1.007825032230
         H            4.359930200564     0.747706713140     0.676371858197     1.007825032230
         H            3.150963200564    -0.113392286860     1.648320858197     1.007825032230
         H           -3.546876799436    -0.280306286860     1.108968858197     1.007825032230

  Basis Set: AUG-CC-PVTZ
    Blend: AUG-CC-PVTZ
  Basis Set: (AUG-CC-PVTZ AUX)
    Blend: AUG-CC-PVTZ-JKFIT
	 Reference Energy          =    -473.8394248283267416 [Eh]
	 Singles Energy            =      -0.0000000000000000 [Eh]
	 Same-Spin Energy          =      -0.4667814726506130 [Eh]
	 Opposite-Spin Energy      =      -1.4578024712961881 [Eh]
	 Correlation Energy        =      -1.9245839439468011 [Eh]
	 Total Energy              =    -475.7640087722735416 [Eh]

	 ================> DF-SCS-MP2 Energies <==================
	-----------------------------------------------------------
	 SCS Same-Spin Scale       =       0.3333333333333333 [-]
	 SCS Opposite-Spin Scale   =       1.2000000000000000 [-]
	 SCS Same-Spin Energy      =      -0.1555938242168710 [Eh]
	 SCS Opposite-Spin Energy  =      -1.7493629655554257 [Eh]
	 SCS Correlation Energy    =      -1.9049567897722968 [Eh]
	 SCS Total Energy          =    -475.7443816180990552 [Eh]
	-----------------------------------------------------------

  Dipole Moment: [D]
     X:    -0.9540      Y:     1.8788      Z:    -1.7456     Total:     2.7363

*** Psi4 exiting successfully. Buy a developer a beer!
