                               Psi4 1.4a3.dev225

  ==> Input File <==

--------------------------------------------------------------------------
#psi4
#
memory 32 gb

molecule  {
0 1
  O        0.8764270    -0.2428500     1.2911470
  O       -3.1675390     0.0980960     0.5443480
  O       -1.5839830     1.3406500    -0.5070920
  N        0.0834400    -0.8734940    -0.7544630
  C        2.2681300     0.2178930    -0.6380450
  C        1.0167303    -0.3068447     0.0815540
  C       -1.2394860    -1.0499030    -0.2084880
  C        3.4385850     0.4137260     0.3159750
  C       -1.9785770     0.2694000    -0.0851210
  H        2.5310470    -0.4685700    -1.4513520
  H        1.9929790     1.1708880    -1.1091590
  H       -1.1549390    -1.4972460     0.7835340
  H       -1.8230450    -1.7308360    -0.8360530
  H        0.1282230    -0.6025030    -1.7308050
  H        3.7379630    -0.5375510     0.7615240
  H        4.2975370     0.8343390    -0.2133880
  H        3.1581410     1.0869690     1.1269820
  H       -3.5812870     0.9851770     0.5837010
units angstrom
no_reorient  #important for SAPT in psi4, default
symmetry c1  #important for SAPT in psi4, default
}

set PROPERTIES_ORIGIN ["COM"]
properties('MP2/aug-cc-pvtz', properties = ['dipole'])
--------------------------------------------------------------------------

    Molecular point group: c1
  Charge       = 0
  Multiplicity = 1
  Basis Set: AUG-CC-PVTZ
    Blend: AUG-CC-PVTZ
  Basis Set: (AUG-CC-PVTZ AUX)
    Blend: AUG-CC-PVTZ-JKFIT

    Orbital Energies [Eh]
    ---------------------

    Doubly Occupied:

       1A    -20.625134     2A    -20.561505     3A    -20.528355
       4A    -15.593977     5A    -11.398295     6A    -11.353690
       7A    -11.292438     8A    -11.242505     9A    -11.216201
      10A     -1.469698    11A     -1.390134    12A     -1.367570
      13A     -1.244896    14A     -1.058205    15A     -1.005439
      16A     -0.885885    17A     -0.824567    18A     -0.787640
      19A     -0.716208    20A     -0.711431    21A     -0.697757
      22A     -0.653428    23A     -0.646842    24A     -0.629225
      25A     -0.605050    26A     -0.599399    27A     -0.560346
      28A     -0.545929    29A     -0.523410    30A     -0.514483
      31A     -0.494773    32A     -0.490138    33A     -0.469822
      34A     -0.430902    35A     -0.412433

  @DF-RHF Final Energy:  -473.84046387061335

   => Energetics <=

    Nuclear Repulsion Energy =            460.6397719881808257
    One-Electron Energy =               -1561.8650537312373672
    Two-Electron Energy =                 627.3848178724431364
    Total Energy =                       -473.8404638706133483
  Basis Set: (AUG-CC-PVTZ AUX)
    Blend: AUG-CC-PVTZ-RI
    Molecular point group: c1

    Geometry (in Angstrom), charge = 0, multiplicity = 1:

       Center              X                  Y                   Z               Mass
    ------------   -----------------  -----------------  -----------------  -----------------
         O            0.948070890944    -0.247906027521     1.274573757653    15.994914619570
         O           -3.095895109056     0.093039972479     0.527774757653    15.994914619570
         O           -1.512339109056     1.335593972479    -0.523665242347    15.994914619570
         N            0.155083890944    -0.878550027521    -0.771036242347    14.003074004430
         C            2.339773890944     0.212836972479    -0.654618242347    12.000000000000
         C            1.088374190944    -0.311900727521     0.064980757653    12.000000000000
         C           -1.167842109056    -1.054959027521    -0.225061242347    12.000000000000
         C            3.510228890944     0.408669972479     0.299401757653    12.000000000000
         C           -1.906933109056     0.264343972479    -0.101694242347    12.000000000000
         H            2.602690890944    -0.473626027521    -1.467925242347     1.007825032230
         H            2.064622890944     1.165831972479    -1.125732242347     1.007825032230
         H           -1.083295109056    -1.502302027521     0.766960757653     1.007825032230
         H           -1.751401109056    -1.735892027521    -0.852626242347     1.007825032230
         H            0.199866890944    -0.607559027521    -1.747378242347     1.007825032230
         H            3.809606890944    -0.542607027521     0.744950757653     1.007825032230
         H            4.369180890944     0.829282972479    -0.229961242347     1.007825032230
         H            3.229784890944     1.081912972479     1.110408757653     1.007825032230
         H           -3.509643109056     0.980120972479     0.567127757653     1.007825032230

  Basis Set: AUG-CC-PVTZ
    Blend: AUG-CC-PVTZ
  Basis Set: (AUG-CC-PVTZ AUX)
    Blend: AUG-CC-PVTZ-JKFIT
	 Reference Energy          =    -473.8404638706133483 [Eh]
	 Singles Energy            =      -0.0000000000000000 [Eh]
	 Same-Spin Energy          =      -0.4665179248682297 [Eh]
	 Opposite-Spin Energy      =      -1.4573860262740572 [Eh]
	 Correlation Energy        =      -1.9239039511422869 [Eh]
	 Total Energy              =    -475.7643678217556271 [Eh]

	 ================> DF-SCS-MP2 Energies <==================
	-----------------------------------------------------------
	 SCS Same-Spin Scale       =       0.3333333333333333 [-]
	 SCS Opposite-Spin Scale   =       1.2000000000000000 [-]
	 SCS Same-Spin Energy      =      -0.1555059749560766 [Eh]
	 SCS Opposite-Spin Energy  =      -1.7488632315288686 [Eh]
	 SCS Correlation Energy    =      -1.9043692064849451 [Eh]
	 SCS Total Energy          =    -475.7448330770982921 [Eh]
	-----------------------------------------------------------

  Dipole Moment: [D]
     X:    -1.0009      Y:    -0.8199      Z:    -2.6315     Total:     2.9323

*** Psi4 exiting successfully. Buy a developer a beer!
