                               Psi4 1.4a3.dev225

  ==> Input File <==

--------------------------------------------------------------------------
#psi4
#
memory 32 gb

molecule  {
0 1
  O        0.8764270    -0.2428500     1.2911470
  O       -3.1675390     0.0980960     0.5443480
  O       -1.5839830     1.3406500    -0.5070920
  N        0.0834400    -0.8734940    -0.7544630
  C        2.2681300     0.2178930    -0.6380450
  C        1.0330250    -0.3000120     0.0721840
  C       -1.2394860    -1.0499030    -0.2084880
  C        3.4385850     0.4137260     0.3159750
  C       -1.9623666     0.3134082    -0.1024561
  H        2.5310470    -0.4685700    -1.4513520
  H        1.9929790     1.1708880    -1.1091590
  H       -1.1549390    -1.4972460     0.7835340
  H       -1.8230450    -1.7308360    -0.8360530
  H        0.1282230    -0.6025030    -1.7308050
  H        3.7379630    -0.5375510     0.7615240
  H        4.2975370     0.8343390    -0.2133880
  H        3.1581410     1.0869690     1.1269820
  H       -3.5812870     0.9851770     0.5837010
units angstrom
no_reorient  #important for SAPT in psi4, default
symmetry c1  #important for SAPT in psi4, default
}

set PROPERTIES_ORIGIN ["COM"]
properties('MP2/aug-cc-pvtz', properties = ['dipole'])
--------------------------------------------------------------------------

    Molecular point group: c1
  Charge       = 0
  Multiplicity = 1
  Basis Set: AUG-CC-PVTZ
    Blend: AUG-CC-PVTZ
  Basis Set: (AUG-CC-PVTZ AUX)
    Blend: AUG-CC-PVTZ-JKFIT

    Orbital Energies [Eh]
    ---------------------

    Doubly Occupied:

       1A    -20.615640     2A    -20.570011     3A    -20.527633
       4A    -15.592467     5A    -11.392938     6A    -11.355014
       7A    -11.290098     8A    -11.244107     9A    -11.217779
      10A     -1.477076    11A     -1.385038    12A     -1.380970
      13A     -1.240397    14A     -1.061309    15A     -0.996626
      16A     -0.886163    17A     -0.815883    18A     -0.783133
      19A     -0.720151    20A     -0.710704    21A     -0.698657
      22A     -0.651940    23A     -0.646036    24A     -0.630042
      25A     -0.610015    26A     -0.600447    27A     -0.556162
      28A     -0.545473    29A     -0.524052    30A     -0.515632
      31A     -0.506346    32A     -0.494408    33A     -0.471913
      34A     -0.431736    35A     -0.408245

  @DF-RHF Final Energy:  -473.83868019696735

   => Energetics <=

    Nuclear Repulsion Energy =            460.7304297188173905
    One-Electron Energy =               -1562.0297345792282613
    Two-Electron Energy =                 627.4606246634433546
    Total Energy =                       -473.8386801969674025
  Basis Set: (AUG-CC-PVTZ AUX)
    Blend: AUG-CC-PVTZ-RI
    Molecular point group: c1

    Geometry (in Angstrom), charge = 0, multiplicity = 1:

       Center              X                  Y                   Z               Mass
    ------------   -----------------  -----------------  -----------------  -----------------
         O            0.945094647782    -0.252561139518     1.277018939217    15.994914619570
         O           -3.098871352218     0.088384860482     0.530219939217    15.994914619570
         O           -1.515315352218     1.330938860482    -0.521220060783    15.994914619570
         N            0.152107647782    -0.883205139518    -0.768591060783    14.003074004430
         C            2.336797647782     0.208181860482    -0.652173060783    12.000000000000
         C            1.101692647782    -0.309723139518     0.058055939217    12.000000000000
         C           -1.170818352218    -1.059614139518    -0.222616060783    12.000000000000
         C            3.507252647782     0.404014860482     0.301846939217    12.000000000000
         C           -1.893698952218     0.303697060482    -0.116584160783    12.000000000000
         H            2.599714647782    -0.478281139518    -1.465480060783     1.007825032230
         H            2.061646647782     1.161176860482    -1.123287060783     1.007825032230
         H           -1.086271352218    -1.506957139518     0.769405939217     1.007825032230
         H           -1.754377352218    -1.740547139518    -0.850181060783     1.007825032230
         H            0.196890647782    -0.612214139518    -1.744933060783     1.007825032230
         H            3.806630647782    -0.547262139518     0.747395939217     1.007825032230
         H            4.366204647782     0.824627860482    -0.227516060783     1.007825032230
         H            3.226808647782     1.077257860482     1.112853939217     1.007825032230
         H           -3.512619352218     0.975465860482     0.569572939217     1.007825032230

  Basis Set: AUG-CC-PVTZ
    Blend: AUG-CC-PVTZ
  Basis Set: (AUG-CC-PVTZ AUX)
    Blend: AUG-CC-PVTZ-JKFIT
	 Reference Energy          =    -473.8386801969673456 [Eh]
	 Singles Energy            =      -0.0000000000000000 [Eh]
	 Same-Spin Energy          =      -0.4660046816712548 [Eh]
	 Opposite-Spin Energy      =      -1.4565683961672891 [Eh]
	 Correlation Energy        =      -1.9225730778385439 [Eh]
	 Total Energy              =    -475.7612532748058811 [Eh]

	 ================> DF-SCS-MP2 Energies <==================
	-----------------------------------------------------------
	 SCS Same-Spin Scale       =       0.3333333333333333 [-]
	 SCS Opposite-Spin Scale   =       1.2000000000000000 [-]
	 SCS Same-Spin Energy      =      -0.1553348938904182 [Eh]
	 SCS Opposite-Spin Energy  =      -1.7478820754007469 [Eh]
	 SCS Correlation Energy    =      -1.9032169692911651 [Eh]
	 SCS Total Energy          =    -475.7418971662585250 [Eh]
	-----------------------------------------------------------

  Dipole Moment: [D]
     X:    -0.7283      Y:    -0.5397      Z:    -2.8200     Total:     2.9621

*** Psi4 exiting successfully. Buy a developer a beer!
