                               Psi4 1.4a3.dev225

  ==> Input File <==

--------------------------------------------------------------------------
#psi4
#
memory 32 gb

molecule  {
0 1
  O        0.8764270    -0.2428500     1.2911470
  O       -3.1675390     0.0980960     0.5443480
  O       -1.5839830     1.3406500    -0.5070920
  N        0.0834400    -0.8734940    -0.7544630
  C        2.2681300     0.2178930    -0.6380450
  C        1.0330250    -0.3000120     0.0721840
  C       -1.2394860    -1.0499030    -0.2084880
  C        3.4385850     0.4137260     0.3159750
  C       -1.9785770     0.2694000    -0.0851210
  H        2.5310470    -0.4685700    -1.4513520
  H        1.9929790     1.1708880    -1.1091590
  H       -1.1549390    -1.4972460     0.7835340
  H       -1.8230450    -1.7308360    -0.8360530
  H        0.1282230    -0.6025030    -1.7308050
  H        3.7379630    -0.5375510     0.7615240
  H        4.2975370     0.8343390    -0.2133880
  H        3.1581410     1.0869690     1.1269820
  H       -3.6024049     1.0304539     0.5857096
units angstrom
no_reorient  #important for SAPT in psi4, default
symmetry c1  #important for SAPT in psi4, default
}

set PROPERTIES_ORIGIN ["COM"]
properties('MP2/aug-cc-pvtz', properties = ['dipole'])
--------------------------------------------------------------------------

    Molecular point group: c1
  Charge       = 0
  Multiplicity = 1
  Basis Set: AUG-CC-PVTZ
    Blend: AUG-CC-PVTZ
  Basis Set: (AUG-CC-PVTZ AUX)
    Blend: AUG-CC-PVTZ-JKFIT

    Orbital Energies [Eh]
    ---------------------

    Doubly Occupied:

       1A    -20.627420     2A    -20.559909     3A    -20.527413
       4A    -15.593218     5A    -11.396719     6A    -11.355019
       7A    -11.291729     8A    -11.243579     9A    -11.217316
      10A     -1.462587    11A     -1.383251    12A     -1.362231
      13A     -1.240785    14A     -1.061830    15A     -1.003104
      16A     -0.887321    17A     -0.818021    18A     -0.783711
      19A     -0.712249    20A     -0.708607    21A     -0.697284
      22A     -0.651944    23A     -0.644955    24A     -0.629169
      25A     -0.602049    26A     -0.597266    27A     -0.558129
      28A     -0.543636    29A     -0.523709    30A     -0.514935
      31A     -0.494503    32A     -0.488531    33A     -0.468038
      34A     -0.432323    35A     -0.410788

  @DF-RHF Final Energy:  -473.83477794605392

   => Energetics <=

    Nuclear Repulsion Energy =            460.1736605555728943
    One-Electron Energy =               -1561.0303283295952497
    Two-Electron Energy =                 627.0218898279683799
    Total Energy =                       -473.8347779460539186
  Basis Set: (AUG-CC-PVTZ AUX)
    Blend: AUG-CC-PVTZ-RI
    Molecular point group: c1

    Geometry (in Angstrom), charge = 0, multiplicity = 1:

       Center              X                  Y                   Z               Mass
    ------------   -----------------  -----------------  -----------------  -----------------
         O            0.946741304590    -0.248879820471     1.275416250883    15.994914619570
         O           -3.097224695410     0.092066179529     0.528617250883    15.994914619570
         O           -1.513668695410     1.334620179529    -0.522822749117    15.994914619570
         N            0.153754304590    -0.879523820471    -0.770193749117    14.003074004430
         C            2.338444304590     0.211863179529    -0.653775749117    12.000000000000
         C            1.103339304590    -0.306041820471     0.056453250883    12.000000000000
         C           -1.169171695410    -1.055932820471    -0.224218749117    12.000000000000
         C            3.508899304590     0.407696179529     0.300244250883    12.000000000000
         C           -1.908262695410     0.263370179529    -0.100851749117    12.000000000000
         H            2.601361304590    -0.474599820471    -1.467082749117     1.007825032230
         H            2.063293304590     1.164858179529    -1.124889749117     1.007825032230
         H           -1.084624695410    -1.503275820471     0.767803250883     1.007825032230
         H           -1.752730695410    -1.736865820471    -0.851783749117     1.007825032230
         H            0.198537304590    -0.608532820471    -1.746535749117     1.007825032230
         H            3.808277304590    -0.543580820471     0.745793250883     1.007825032230
         H            4.367851304590     0.828309179529    -0.229118749117     1.007825032230
         H            3.228455304590     1.080939179529     1.111251250883     1.007825032230
         H           -3.532090595410     1.024424079529     0.569978850883     1.007825032230

  Basis Set: AUG-CC-PVTZ
    Blend: AUG-CC-PVTZ
  Basis Set: (AUG-CC-PVTZ AUX)
    Blend: AUG-CC-PVTZ-JKFIT
	 Reference Energy          =    -473.8347779460539186 [Eh]
	 Singles Energy            =      -0.0000000000000000 [Eh]
	 Same-Spin Energy          =      -0.4674566815236048 [Eh]
	 Opposite-Spin Energy      =      -1.4594903969865216 [Eh]
	 Correlation Energy        =      -1.9269470785101264 [Eh]
	 Total Energy              =    -475.7617250245640435 [Eh]

	 ================> DF-SCS-MP2 Energies <==================
	-----------------------------------------------------------
	 SCS Same-Spin Scale       =       0.3333333333333333 [-]
	 SCS Opposite-Spin Scale   =       1.2000000000000000 [-]
	 SCS Same-Spin Energy      =      -0.1558188938412016 [Eh]
	 SCS Opposite-Spin Energy  =      -1.7513884763838259 [Eh]
	 SCS Correlation Energy    =      -1.9072073702250274 [Eh]
	 SCS Total Energy          =    -475.7419853162789423 [Eh]
	-----------------------------------------------------------

  Dipole Moment: [D]
     X:    -0.9430      Y:    -0.7350      Z:    -2.6531     Total:     2.9100

*** Psi4 exiting successfully. Buy a developer a beer!
