                               Psi4 1.3.2 release

  ==> Input File <==

--------------------------------------------------------------------------
#psi4
#
memory 32 gb

molecule  {
0 1
  O        1.0830410    -1.2590340     0.2697030
  O       -3.0460190    -0.6564700     0.3579990
  O       -1.7208190     1.1319200     0.8547670
  N        0.1334480     0.3363350    -1.0591540
  C        2.3767950     0.7348440    -0.1800510
  C        1.1530800    -0.1541890    -0.2667860
  C       -1.1420340    -0.3248900    -0.9988550
  C        3.4883670     0.0910310     0.6318210
  C       -1.9676756     0.1444426     0.1799514
  H        2.7160870     0.9611190    -1.1975940
  H        2.0743670     1.6930220     0.2624750
  H       -0.9793980    -1.4015010    -0.9274340
  H       -1.7247040    -0.1286218    -1.9080396
  H        0.1138710     1.3396710    -1.2046940
  H        3.7876720    -0.8582410     0.1862610
  H        4.3593370     0.7487140     0.6762100
  H        3.1503700    -0.1123850     1.6481590
  H       -3.5474700    -0.2792990     1.1088070
units angstrom
no_reorient  #important for SAPT in psi4, default
symmetry c1  #important for SAPT in psi4, default
}

set PROPERTIES_ORIGIN ["COM"]
properties('MP2/aug-cc-pvtz', properties = ['dipole'])
--------------------------------------------------------------------------

    Molecular point group: c1
  Charge       = 0
  Multiplicity = 1
  Basis Set: AUG-CC-PVTZ
    Blend: AUG-CC-PVTZ
  Basis Set: (AUG-CC-PVTZ AUX)
    Blend: AUG-CC-PVTZ-JKFIT

    Orbital Energies [Eh]
    ---------------------

    Doubly Occupied:

       1A    -20.626781     2A    -20.561984     3A    -20.528628
       4A    -15.592932     5A    -11.398998     6A    -11.356049
       7A    -11.290973     8A    -11.244153     9A    -11.216403
      10A     -1.469608    11A     -1.384748    12A     -1.367416
      13A     -1.241703    14A     -1.063423    15A     -1.006489
      16A     -0.889899    17A     -0.825568    18A     -0.785707
      19A     -0.716087    20A     -0.713366    21A     -0.697981
      22A     -0.653648    23A     -0.644667    24A     -0.637043
      25A     -0.603938    26A     -0.599208    27A     -0.560171
      28A     -0.540122    29A     -0.525308    30A     -0.517345
      31A     -0.495111    32A     -0.490908    33A     -0.468708
      34A     -0.433962    35A     -0.410039

  @DF-RHF Final Energy:  -473.83970024869217

   => Energetics <=

    Nuclear Repulsion Energy =            457.9697138698873573
    One-Electron Energy =               -1556.5006764034885691
    Two-Electron Energy =                 624.6912622849090440
    Total Energy =                       -473.8397002486922247
  Basis Set: (AUG-CC-PVTZ AUX)
    Blend: AUG-CC-PVTZ-RI
    Molecular point group: c1

    Geometry (in Angstrom), charge = 0, multiplicity = 1:

       Center              X                  Y                   Z               Mass
    ------------   -----------------  -----------------  -----------------  -----------------
         O            1.083979173476    -1.259408357019     0.270412158978    15.994914619570
         O           -3.045080826524    -0.656844357019     0.358708158978    15.994914619570
         O           -1.719880826524     1.131545642981     0.855476158978    15.994914619570
         N            0.134386173476     0.335960642981    -1.058444841022    14.003074004430
         C            2.377733173476     0.734469642981    -0.179341841022    12.000000000000
         C            1.154018173476    -0.154563357019    -0.266076841022    12.000000000000
         C           -1.141095826524    -0.325264357019    -0.998145841022    12.000000000000
         C            3.489305173476     0.090656642981     0.632530158978    12.000000000000
         C           -1.966737426524     0.144068242981     0.180660558978    12.000000000000
         H            2.717025173476     0.960744642981    -1.196884841022     1.007825032230
         H            2.075305173476     1.692647642981     0.263184158978     1.007825032230
         H           -0.978459826524    -1.401875357019    -0.926724841022     1.007825032230
         H           -1.723765826524    -0.128996157019    -1.907330441022     1.007825032230
         H            0.114809173476     1.339296642981    -1.203984841022     1.007825032230
         H            3.788610173476    -0.858615357019     0.186970158978     1.007825032230
         H            4.360275173476     0.748339642981     0.676919158978     1.007825032230
         H            3.151308173476    -0.112759357019     1.648868158978     1.007825032230
         H           -3.546531826524    -0.279673357019     1.109516158978     1.007825032230

  Basis Set: AUG-CC-PVTZ
    Blend: AUG-CC-PVTZ
  Basis Set: (AUG-CC-PVTZ AUX)
    Blend: AUG-CC-PVTZ-JKFIT
	 Reference Energy          =    -473.8397002486921679 [Eh]
	 Singles Energy            =      -0.0000000000000000 [Eh]
	 Same-Spin Energy          =      -0.4667626002052108 [Eh]
	 Opposite-Spin Energy      =      -1.4577136699395856 [Eh]
	 Correlation Energy        =      -1.9244762701447964 [Eh]
	 Total Energy              =    -475.7641765188369618 [Eh]

	 ================> DF-SCS-MP2 Energies <==================
	-----------------------------------------------------------
	 SCS Same-Spin Scale       =       0.3333333333333333 [-]
	 SCS Opposite-Spin Scale   =       1.2000000000000000 [-]
	 SCS Same-Spin Energy      =      -0.1555875334017369 [Eh]
	 SCS Opposite-Spin Energy  =      -1.7492564039275027 [Eh]
	 SCS Correlation Energy    =      -1.9048439373292396 [Eh]
	 SCS Total Energy          =    -475.7445441860214146 [Eh]
	-----------------------------------------------------------

  Dipole Moment: [D]
     X:    -0.9839      Y:     1.8584      Z:    -1.7527     Total:     2.7374

*** Psi4 exiting successfully. Buy a developer a beer!
