                               Psi4 1.4a3.dev225

  ==> Input File <==

--------------------------------------------------------------------------
#psi4
#
memory 32 gb

molecule  {
0 1
  O        0.8764270    -0.2428500     1.2911470
  O       -3.1675390     0.0980960     0.5443480
  O       -1.5839830     1.3406500    -0.5070920
  N        0.0834400    -0.8734940    -0.7544630
  C        2.2681300     0.2178930    -0.6380450
  C        1.0330250    -0.3000120     0.0721840
  C       -1.2394860    -1.0499030    -0.2084880
  C        3.4385850     0.4137260     0.3159750
  C       -1.9785770     0.2694000    -0.0851210
  H        2.5310470    -0.4685700    -1.4513520
  H        1.9929790     1.1708880    -1.1091590
  H       -1.1549390    -1.4972460     0.7835340
  H       -1.8497024    -1.7619415    -0.8647206
  H        0.1282230    -0.6025030    -1.7308050
  H        3.7379630    -0.5375510     0.7615240
  H        4.2975370     0.8343390    -0.2133880
  H        3.1581410     1.0869690     1.1269820
  H       -3.5812870     0.9851770     0.5837010
units angstrom
no_reorient  #important for SAPT in psi4, default
symmetry c1  #important for SAPT in psi4, default
}

set PROPERTIES_ORIGIN ["COM"]
properties('MP2/aug-cc-pvtz', properties = ['dipole'])
--------------------------------------------------------------------------

    Molecular point group: c1
  Charge       = 0
  Multiplicity = 1
  Basis Set: AUG-CC-PVTZ
    Blend: AUG-CC-PVTZ
  Basis Set: (AUG-CC-PVTZ AUX)
    Blend: AUG-CC-PVTZ-JKFIT

    Orbital Energies [Eh]
    ---------------------

    Doubly Occupied:

       1A    -20.624548     2A    -20.561052     3A    -20.527915
       4A    -15.593912     5A    -11.398052     6A    -11.355592
       7A    -11.297562     8A    -11.243954     9A    -11.217599
      10A     -1.469129    11A     -1.384079    12A     -1.366816
      13A     -1.241025    14A     -1.061854    15A     -1.002494
      16A     -0.889181    17A     -0.822806    18A     -0.784668
      19A     -0.715162    20A     -0.711041    21A     -0.695528
      22A     -0.652065    23A     -0.646185    24A     -0.629777
      25A     -0.604211    26A     -0.597536    27A     -0.555018
      28A     -0.544543    29A     -0.523452    30A     -0.515139
      31A     -0.495080    32A     -0.489656    33A     -0.469004
      34A     -0.432852    35A     -0.411124

  @DF-RHF Final Energy:  -473.83756584939709

   => Energetics <=

    Nuclear Repulsion Energy =            460.2039163604279679
    One-Electron Energy =               -1561.0237437688442697
    Two-Electron Energy =                 626.9822615590192072
    Total Energy =                       -473.8375658493971514
  Basis Set: (AUG-CC-PVTZ AUX)
    Blend: AUG-CC-PVTZ-RI
    Molecular point group: c1

    Geometry (in Angstrom), charge = 0, multiplicity = 1:

       Center              X                  Y                   Z               Mass
    ------------   -----------------  -----------------  -----------------  -----------------
         O            0.946783902801    -0.248292447309     1.275652147852    15.994914619570
         O           -3.097182097199     0.092653552691     0.528853147852    15.994914619570
         O           -1.513626097199     1.335207552691    -0.522586852148    15.994914619570
         N            0.153796902801    -0.878936447309    -0.769957852148    14.003074004430
         C            2.338486902801     0.212450552691    -0.653539852148    12.000000000000
         C            1.103381902801    -0.305454447309     0.056689147852    12.000000000000
         C           -1.169129097199    -1.055345447309    -0.223982852148    12.000000000000
         C            3.508941902801     0.408283552691     0.300480147852    12.000000000000
         C           -1.908220097199     0.263957552691    -0.100615852148    12.000000000000
         H            2.601403902801    -0.474012447309    -1.466846852148     1.007825032230
         H            2.063335902801     1.165445552691    -1.124653852148     1.007825032230
         H           -1.084582097199    -1.502688447309     0.768039147852     1.007825032230
         H           -1.779345497199    -1.767383947309    -0.880215452148     1.007825032230
         H            0.198579902801    -0.607945447309    -1.746299852148     1.007825032230
         H            3.808319902801    -0.542993447309     0.746029147852     1.007825032230
         H            4.367893902801     0.828896552691    -0.228882852148     1.007825032230
         H            3.228497902801     1.081526552691     1.111487147852     1.007825032230
         H           -3.510930097199     0.979734552691     0.568206147852     1.007825032230

  Basis Set: AUG-CC-PVTZ
    Blend: AUG-CC-PVTZ
  Basis Set: (AUG-CC-PVTZ AUX)
    Blend: AUG-CC-PVTZ-JKFIT
	 Reference Energy          =    -473.8375658493970946 [Eh]
	 Singles Energy            =      -0.0000000000000000 [Eh]
	 Same-Spin Energy          =      -0.4668691380114276 [Eh]
	 Opposite-Spin Energy      =      -1.4583455118965523 [Eh]
	 Correlation Energy        =      -1.9252146499079799 [Eh]
	 Total Energy              =    -475.7627804993050518 [Eh]

	 ================> DF-SCS-MP2 Energies <==================
	-----------------------------------------------------------
	 SCS Same-Spin Scale       =       0.3333333333333333 [-]
	 SCS Opposite-Spin Scale   =       1.2000000000000000 [-]
	 SCS Same-Spin Energy      =      -0.1556230460038092 [Eh]
	 SCS Opposite-Spin Energy  =      -1.7500146142758626 [Eh]
	 SCS Correlation Energy    =      -1.9056376602796719 [Eh]
	 SCS Total Energy          =    -475.7432035096767891 [Eh]
	-----------------------------------------------------------

  Dipole Moment: [D]
     X:    -0.8872      Y:    -0.7766      Z:    -2.6627     Total:     2.9121

*** Psi4 exiting successfully. Buy a developer a beer!
