                               Psi4 1.3.2 release

  ==> Input File <==

--------------------------------------------------------------------------
#psi4
#
memory 32 gb

molecule  {
0 1
  O        1.0830410    -1.2590340     0.2697030
  O       -3.0460190    -0.6564700     0.3579990
  O       -1.7208190     1.1319200     0.8547670
  N        0.1334480     0.3363350    -1.0591540
  C        2.3767950     0.7348440    -0.1800510
  C        1.1677051    -0.1370485    -0.2753615
  C       -1.1510247    -0.3086075    -1.0157042
  C        3.4883670     0.0910310     0.6318210
  C       -1.9580260     0.1406600     0.1881420
  H        2.7160870     0.9611190    -1.1975940
  H        2.0743670     1.6930220     0.2624750
  H       -0.9793980    -1.4015010    -0.9274340
  H       -1.7176060    -0.1322810    -1.9133280
  H        0.1138710     1.3396710    -1.2046940
  H        3.7876720    -0.8582410     0.1862610
  H        4.3593370     0.7487140     0.6762100
  H        3.1503700    -0.1123850     1.6481590
  H       -3.5474700    -0.2792990     1.1088070
units angstrom
no_reorient  #important for SAPT in psi4, default
symmetry c1  #important for SAPT in psi4, default
}

set PROPERTIES_ORIGIN ["COM"]
properties('MP2/aug-cc-pvtz', properties = ['dipole'])
--------------------------------------------------------------------------

    Molecular point group: c1
  Charge       = 0
  Multiplicity = 1
  Basis Set: AUG-CC-PVTZ
    Blend: AUG-CC-PVTZ
  Basis Set: (AUG-CC-PVTZ AUX)
    Blend: AUG-CC-PVTZ-JKFIT

    Orbital Energies [Eh]
    ---------------------

    Doubly Occupied:

       1A    -20.625478     2A    -20.562645     3A    -20.526012
       4A    -15.594037     5A    -11.399007     6A    -11.358192
       7A    -11.291235     8A    -11.245607     9A    -11.217643
      10A     -1.468282    11A     -1.374409    12A     -1.366923
      13A     -1.239524    14A     -1.067982    15A     -1.006760
      16A     -0.893353    17A     -0.826273    18A     -0.782911
      19A     -0.716031    20A     -0.712313    21A     -0.700297
      22A     -0.655171    23A     -0.641063    24A     -0.639058
      25A     -0.603323    26A     -0.597850    27A     -0.555784
      28A     -0.537902    29A     -0.527472    30A     -0.517362
      31A     -0.495465    32A     -0.491063    33A     -0.467905
      34A     -0.434353    35A     -0.408200

  @DF-RHF Final Energy:  -473.83624859875624

   => Energetics <=

    Nuclear Repulsion Energy =            457.6572995759021296
    One-Electron Energy =               -1555.8933289471920034
    Two-Electron Energy =                 624.3997807725337452
    Total Energy =                       -473.8362485987562422
  Basis Set: (AUG-CC-PVTZ AUX)
    Blend: AUG-CC-PVTZ-RI
    Molecular point group: c1

    Geometry (in Angstrom), charge = 0, multiplicity = 1:

       Center              X                  Y                   Z               Mass
    ------------   -----------------  -----------------  -----------------  -----------------
         O            1.082525151680    -1.262094162644     0.272030820855    15.994914619570
         O           -3.046534848320    -0.659530162644     0.360326820855    15.994914619570
         O           -1.721334848320     1.128859837356     0.857094820855    15.994914619570
         N            0.132932151680     0.333274837356    -1.056826179145    14.003074004430
         C            2.376279151680     0.731783837356    -0.177723179145    12.000000000000
         C            1.167189251680    -0.140108662644    -0.273033679145    12.000000000000
         C           -1.151540548320    -0.311667662644    -1.013376379145    12.000000000000
         C            3.487851151680     0.087970837356     0.634148820855    12.000000000000
         C           -1.958541848320     0.137599837356     0.190469820855    12.000000000000
         H            2.715571151680     0.958058837356    -1.195266179145     1.007825032230
         H            2.073851151680     1.689961837356     0.264802820855     1.007825032230
         H           -0.979913848320    -1.404561162644    -0.925106179145     1.007825032230
         H           -1.718121848320    -0.135341162644    -1.911000179145     1.007825032230
         H            0.113355151680     1.336610837356    -1.202366179145     1.007825032230
         H            3.787156151680    -0.861301162644     0.188588820855     1.007825032230
         H            4.358821151680     0.745653837356     0.678537820855     1.007825032230
         H            3.149854151680    -0.115445162644     1.650486820855     1.007825032230
         H           -3.547985848320    -0.282359162644     1.111134820855     1.007825032230

  Basis Set: AUG-CC-PVTZ
    Blend: AUG-CC-PVTZ
  Basis Set: (AUG-CC-PVTZ AUX)
    Blend: AUG-CC-PVTZ-JKFIT
	 Reference Energy          =    -473.8362485987562422 [Eh]
	 Singles Energy            =      -0.0000000000000000 [Eh]
	 Same-Spin Energy          =      -0.4672971134449239 [Eh]
	 Opposite-Spin Energy      =      -1.4588390231666215 [Eh]
	 Correlation Energy        =      -1.9261361366115455 [Eh]
	 Total Energy              =    -475.7623847353677888 [Eh]

	 ================> DF-SCS-MP2 Energies <==================
	-----------------------------------------------------------
	 SCS Same-Spin Scale       =       0.3333333333333333 [-]
	 SCS Opposite-Spin Scale   =       1.2000000000000000 [-]
	 SCS Same-Spin Energy      =      -0.1557657044816413 [Eh]
	 SCS Opposite-Spin Energy  =      -1.7506068277999458 [Eh]
	 SCS Correlation Energy    =      -1.9063725322815870 [Eh]
	 SCS Total Energy          =    -475.7426211310378221 [Eh]
	-----------------------------------------------------------

  Dipole Moment: [D]
     X:    -0.9071      Y:     1.9763      Z:    -1.7841     Total:     2.8128

*** Psi4 exiting successfully. Buy a developer a beer!
