                               Psi4 1.3.2 release

  ==> Input File <==

--------------------------------------------------------------------------
#psi4
#
memory 32 gb

molecule  {
0 1
  O        1.0830410    -1.2590340     0.2697030
  O       -3.0585029    -0.6300521     0.3953855
  O       -1.7208190     1.1319200     0.8547670
  N        0.1334480     0.3363350    -1.0591540
  C        2.3767950     0.7348440    -0.1800510
  C        1.1530800    -0.1541890    -0.2667860
  C       -1.1080183    -0.2854965    -0.9897456
  C        3.4883670     0.0910310     0.6318210
  C       -1.9580260     0.1406600     0.1881420
  H        2.7160870     0.9611190    -1.1975940
  H        2.0743670     1.6930220     0.2624750
  H       -0.9793980    -1.4015010    -0.9274340
  H       -1.7176060    -0.1322810    -1.9133280
  H        0.1138710     1.3396710    -1.2046940
  H        3.7876720    -0.8582410     0.1862610
  H        4.3593370     0.7487140     0.6762100
  H        3.1503700    -0.1123850     1.6481590
  H       -3.5474700    -0.2792990     1.1088070
units angstrom
no_reorient  #important for SAPT in psi4, default
symmetry c1  #important for SAPT in psi4, default
}

set PROPERTIES_ORIGIN ["COM"]
properties('MP2/aug-cc-pvtz', properties = ['dipole'])
--------------------------------------------------------------------------

    Molecular point group: c1
  Charge       = 0
  Multiplicity = 1
  Basis Set: AUG-CC-PVTZ
    Blend: AUG-CC-PVTZ
  Basis Set: (AUG-CC-PVTZ AUX)
    Blend: AUG-CC-PVTZ-JKFIT

    Orbital Energies [Eh]
    ---------------------

    Doubly Occupied:

       1A    -20.618973     2A    -20.558168     3A    -20.531843
       4A    -15.595246     5A    -11.396918     6A    -11.358937
       7A    -11.293175     8A    -11.246061     9A    -11.217772
      10A     -1.472046    11A     -1.388974    12A     -1.367909
      13A     -1.255342    14A     -1.065680    15A     -1.004820
      16A     -0.895110    17A     -0.833020    18A     -0.790856
      19A     -0.721229    20A     -0.714578    21A     -0.698675
      22A     -0.662991    23A     -0.642654    24A     -0.638007
      25A     -0.606694    26A     -0.599530    27A     -0.548420
      28A     -0.541290    29A     -0.526391    30A     -0.518970
      31A     -0.496186    32A     -0.488569    33A     -0.467047
      34A     -0.437550    35A     -0.411936

  @DF-RHF Final Energy:  -473.83741696934828

   => Energetics <=

    Nuclear Repulsion Energy =            458.8021711637620115
    One-Electron Energy =               -1558.0560446439178577
    Two-Electron Energy =                 625.4164565108075067
    Total Energy =                       -473.8374169693482827
  Basis Set: (AUG-CC-PVTZ AUX)
    Blend: AUG-CC-PVTZ-RI
    Molecular point group: c1

    Geometry (in Angstrom), charge = 0, multiplicity = 1:

       Center              X                  Y                   Z               Mass
    ------------   -----------------  -----------------  -----------------  -----------------
         O            1.081450082443    -1.265864990354     0.264305987597    15.994914619570
         O           -3.060093817557    -0.636883090354     0.389988487597    15.994914619570
         O           -1.722409917557     1.125089009646     0.849369987597    15.994914619570
         N            0.131857082443     0.329504009646    -1.064551012403    14.003074004430
         C            2.375204082443     0.728013009646    -0.185448012403    12.000000000000
         C            1.151489082443    -0.161019990354    -0.272183012403    12.000000000000
         C           -1.109609217557    -0.292327490354    -0.995142612403    12.000000000000
         C            3.486776082443     0.084200009646     0.626423987597    12.000000000000
         C           -1.959616917557     0.133829009646     0.182744987597    12.000000000000
         H            2.714496082443     0.954288009646    -1.202991012403     1.007825032230
         H            2.072776082443     1.686191009646     0.257077987597     1.007825032230
         H           -0.980988917557    -1.408331990354    -0.932831012403     1.007825032230
         H           -1.719196917557    -0.139111990354    -1.918725012403     1.007825032230
         H            0.112280082443     1.332840009646    -1.210091012403     1.007825032230
         H            3.786081082443    -0.865071990354     0.180863987597     1.007825032230
         H            4.357746082443     0.741883009646     0.670812987597     1.007825032230
         H            3.148779082443    -0.119215990354     1.642761987597     1.007825032230
         H           -3.549060917557    -0.286129990354     1.103409987597     1.007825032230

  Basis Set: AUG-CC-PVTZ
    Blend: AUG-CC-PVTZ
  Basis Set: (AUG-CC-PVTZ AUX)
    Blend: AUG-CC-PVTZ-JKFIT
	 Reference Energy          =    -473.8374169693482827 [Eh]
	 Singles Energy            =      -0.0000000000000000 [Eh]
	 Same-Spin Energy          =      -0.4662846646375525 [Eh]
	 Opposite-Spin Energy      =      -1.4560426091035517 [Eh]
	 Correlation Energy        =      -1.9223272737411041 [Eh]
	 Total Energy              =    -475.7597442430894148 [Eh]

	 ================> DF-SCS-MP2 Energies <==================
	-----------------------------------------------------------
	 SCS Same-Spin Scale       =       0.3333333333333333 [-]
	 SCS Opposite-Spin Scale   =       1.2000000000000000 [-]
	 SCS Same-Spin Energy      =      -0.1554282215458508 [Eh]
	 SCS Opposite-Spin Energy  =      -1.7472511309242620 [Eh]
	 SCS Correlation Energy    =      -1.9026793524701129 [Eh]
	 SCS Total Energy          =    -475.7400963218183847 [Eh]
	-----------------------------------------------------------

  Dipole Moment: [D]
     X:    -0.7119      Y:     1.8629      Z:    -1.8107     Total:     2.6936

*** Psi4 exiting successfully. Buy a developer a beer!
