                               Psi4 1.3.2 release

  ==> Input File <==

--------------------------------------------------------------------------
#psi4
#
memory 32 gb

molecule  {
0 1
  O        1.0830410    -1.2590340     0.2697030
  O       -3.0460190    -0.6564700     0.3579990
  O       -1.7208190     1.1319200     0.8547670
  N        0.1334480     0.3363350    -1.0591540
  C        2.3767950     0.7348440    -0.1800510
  C        1.1530800    -0.1541890    -0.2667860
  C       -1.1420340    -0.3248900    -0.9988550
  C        3.4883670     0.0910310     0.6318210
  C       -1.9808890     0.1803028     0.2426485
  H        2.7160870     0.9611190    -1.1975940
  H        2.0743670     1.6930220     0.2624750
  H       -0.9793980    -1.4015010    -0.9274340
  H       -1.7176060    -0.1322810    -1.9133280
  H        0.1138710     1.3396710    -1.2046940
  H        3.7876720    -0.8582410     0.1862610
  H        4.3593370     0.7487140     0.6762100
  H        3.1503700    -0.1123850     1.6481590
  H       -3.5117444    -0.2427789     1.1125739
units angstrom
no_reorient  #important for SAPT in psi4, default
symmetry c1  #important for SAPT in psi4, default
}

set PROPERTIES_ORIGIN ["COM"]
properties('MP2/aug-cc-pvtz', properties = ['dipole'])
--------------------------------------------------------------------------

    Molecular point group: c1
  Charge       = 0
  Multiplicity = 1
  Basis Set: AUG-CC-PVTZ
    Blend: AUG-CC-PVTZ
  Basis Set: (AUG-CC-PVTZ AUX)
    Blend: AUG-CC-PVTZ-JKFIT

    Orbital Energies [Eh]
    ---------------------

    Doubly Occupied:

       1A    -20.626128     2A    -20.571983     3A    -20.526720
       4A    -15.589690     5A    -11.393280     6A    -11.353846
       7A    -11.285652     8A    -11.243226     9A    -11.215841
      10A     -1.488259    11A     -1.399043    12A     -1.381864
      13A     -1.237562    14A     -1.060260    15A     -0.989283
      16A     -0.884809    17A     -0.817597    18A     -0.782362
      19A     -0.728327    20A     -0.711816    21A     -0.698276
      22A     -0.655809    23A     -0.645050    24A     -0.637799
      25A     -0.613083    26A     -0.599625    27A     -0.556447
      28A     -0.540887    29A     -0.523672    30A     -0.516613
      31A     -0.512868    32A     -0.494542    33A     -0.469223
      34A     -0.431166    35A     -0.402238

  @DF-RHF Final Energy:  -473.83496663166306

   => Energetics <=

    Nuclear Repulsion Energy =            458.2030901011221431
    One-Electron Energy =               -1556.9064276346007318
    Two-Electron Energy =                 624.8683709018155241
    Total Energy =                       -473.8349666316630646
  Basis Set: (AUG-CC-PVTZ AUX)
    Blend: AUG-CC-PVTZ-RI
    Molecular point group: c1

    Geometry (in Angstrom), charge = 0, multiplicity = 1:

       Center              X                  Y                   Z               Mass
    ------------   -----------------  -----------------  -----------------  -----------------
         O            1.084859714075    -1.262944498100     0.264683165699    15.994914619570
         O           -3.044200285925    -0.660380498100     0.352979165699    15.994914619570
         O           -1.719000285925     1.128009501900     0.849747165699    15.994914619570
         N            0.135266714075     0.332424501900    -1.064173834301    14.003074004430
         C            2.378613714075     0.730933501900    -0.185070834301    12.000000000000
         C            1.154898714075    -0.158099498100    -0.271805834301    12.000000000000
         C           -1.140215285925    -0.328800498100    -1.003874834301    12.000000000000
         C            3.490185714075     0.087120501900     0.626801165699    12.000000000000
         C           -1.979070285925     0.176392301900     0.237628665699    12.000000000000
         H            2.717905714075     0.957208501900    -1.202613834301     1.007825032230
         H            2.076185714075     1.689111501900     0.257455165699     1.007825032230
         H           -0.977579285925    -1.405411498100    -0.932453834301     1.007825032230
         H           -1.715787285925    -0.136191498100    -1.918347834301     1.007825032230
         H            0.115689714075     1.335760501900    -1.209713834301     1.007825032230
         H            3.789490714075    -0.862151498100     0.181241165699     1.007825032230
         H            4.361155714075     0.744803501900     0.671190165699     1.007825032230
         H            3.152188714075    -0.116295498100     1.643139165699     1.007825032230
         H           -3.509925685925    -0.246689398100     1.107554065699     1.007825032230

  Basis Set: AUG-CC-PVTZ
    Blend: AUG-CC-PVTZ
  Basis Set: (AUG-CC-PVTZ AUX)
    Blend: AUG-CC-PVTZ-JKFIT
	 Reference Energy          =    -473.8349666316630646 [Eh]
	 Singles Energy            =      -0.0000000000000000 [Eh]
	 Same-Spin Energy          =      -0.4658796482631081 [Eh]
	 Opposite-Spin Energy      =      -1.4559966057483447 [Eh]
	 Correlation Energy        =      -1.9218762540114529 [Eh]
	 Total Energy              =    -475.7568428856745300 [Eh]

	 ================> DF-SCS-MP2 Energies <==================
	-----------------------------------------------------------
	 SCS Same-Spin Scale       =       0.3333333333333333 [-]
	 SCS Opposite-Spin Scale   =       1.2000000000000000 [-]
	 SCS Same-Spin Energy      =      -0.1552932160877027 [Eh]
	 SCS Opposite-Spin Energy  =      -1.7471959268980135 [Eh]
	 SCS Correlation Energy    =      -1.9024891429857163 [Eh]
	 SCS Total Energy          =    -475.7374557746487653 [Eh]
	-----------------------------------------------------------

  Dipole Moment: [D]
     X:    -1.0222      Y:     2.1627      Z:    -1.4834     Total:     2.8147

*** Psi4 exiting successfully. Buy a developer a beer!
