                               Psi4 1.3.2 release

  ==> Input File <==

--------------------------------------------------------------------------
#psi4
#
memory 32 gb

molecule  {
0 1
  O        1.0830410    -1.2590340     0.2697030
  O       -3.0460190    -0.6564700     0.3579990
  O       -1.7208190     1.1319200     0.8547670
  N        0.1334480     0.3363350    -1.0591540
  C        2.3767950     0.7348440    -0.1800510
  C        1.1538612    -0.1538787    -0.2799805
  C       -1.1420340    -0.3248900    -0.9988550
  C        3.4883670     0.0910310     0.6318210
  C       -1.9580260     0.1406600     0.1881420
  H        2.7089174     0.9558518    -1.2011110
  H        2.0743670     1.6930220     0.2624750
  H       -0.9793980    -1.4015010    -0.9274340
  H       -1.7176060    -0.1322810    -1.9133280
  H        0.1138710     1.3396710    -1.2046940
  H        3.7876720    -0.8582410     0.1862610
  H        4.3593370     0.7487140     0.6762100
  H        3.1503700    -0.1123850     1.6481590
  H       -3.5474700    -0.2792990     1.1088070
units angstrom
no_reorient  #important for SAPT in psi4, default
symmetry c1  #important for SAPT in psi4, default
}

set PROPERTIES_ORIGIN ["COM"]
properties('MP2/aug-cc-pvtz', properties = ['dipole'])
--------------------------------------------------------------------------

    Molecular point group: c1
  Charge       = 0
  Multiplicity = 1
  Basis Set: AUG-CC-PVTZ
    Blend: AUG-CC-PVTZ
  Basis Set: (AUG-CC-PVTZ AUX)
    Blend: AUG-CC-PVTZ-JKFIT

    Orbital Energies [Eh]
    ---------------------

    Doubly Occupied:

       1A    -20.625756     2A    -20.563199     3A    -20.527063
       4A    -15.594150     5A    -11.399404     6A    -11.355956
       7A    -11.291625     8A    -11.244347     9A    -11.216428
      10A     -1.468800    11A     -1.381360    12A     -1.368588
      13A     -1.243323    14A     -1.063548    15A     -1.007206
      16A     -0.890080    17A     -0.825399    18A     -0.787237
      19A     -0.716435    20A     -0.712969    21A     -0.697862
      22A     -0.653453    23A     -0.644266    24A     -0.637188
      25A     -0.603998    26A     -0.598314    27A     -0.560049
      28A     -0.539885    29A     -0.525377    30A     -0.516957
      31A     -0.495451    32A     -0.491859    33A     -0.469257
      34A     -0.433016    35A     -0.410079

  @DF-RHF Final Energy:  -473.83930659125411

   => Energetics <=

    Nuclear Repulsion Energy =            458.0059963218578218
    One-Electron Energy =               -1556.5708416889724504
    Two-Electron Energy =                 624.7255387758605139
    Total Energy =                       -473.8393065912541715
  Basis Set: (AUG-CC-PVTZ AUX)
    Blend: AUG-CC-PVTZ-RI
    Molecular point group: c1

    Geometry (in Angstrom), charge = 0, multiplicity = 1:

       Center              X                  Y                   Z               Mass
    ------------   -----------------  -----------------  -----------------  -----------------
         O            1.083024655570    -1.259021781950     0.270938040455    15.994914619570
         O           -3.046035344430    -0.656457781950     0.359234040455    15.994914619570
         O           -1.720835344430     1.131932218050     0.856002040455    15.994914619570
         N            0.133431655570     0.336347218050    -1.057918959545    14.003074004430
         C            2.376778655570     0.734856218050    -0.178815959545    12.000000000000
         C            1.153844855570    -0.153866481950    -0.278745459545    12.000000000000
         C           -1.142050344430    -0.324877781950    -0.997619959545    12.000000000000
         C            3.488350655570     0.091043218050     0.633056040455    12.000000000000
         C           -1.958042344430     0.140672218050     0.189377040455    12.000000000000
         H            2.708901055570     0.955864018050    -1.199875959545     1.007825032230
         H            2.074350655570     1.693034218050     0.263710040455     1.007825032230
         H           -0.979414344430    -1.401488781950    -0.926198959545     1.007825032230
         H           -1.717622344430    -0.132268781950    -1.912092959545     1.007825032230
         H            0.113854655570     1.339683218050    -1.203458959545     1.007825032230
         H            3.787655655570    -0.858228781950     0.187496040455     1.007825032230
         H            4.359320655570     0.748726218050     0.677445040455     1.007825032230
         H            3.150353655570    -0.112372781950     1.649394040455     1.007825032230
         H           -3.547486344430    -0.279286781950     1.110042040455     1.007825032230

  Basis Set: AUG-CC-PVTZ
    Blend: AUG-CC-PVTZ
  Basis Set: (AUG-CC-PVTZ AUX)
    Blend: AUG-CC-PVTZ-JKFIT
	 Reference Energy          =    -473.8393065912541147 [Eh]
	 Singles Energy            =      -0.0000000000000000 [Eh]
	 Same-Spin Energy          =      -0.4668490531965942 [Eh]
	 Opposite-Spin Energy      =      -1.4579187710626083 [Eh]
	 Correlation Energy        =      -1.9247678242592023 [Eh]
	 Total Energy              =    -475.7640744155133348 [Eh]

	 ================> DF-SCS-MP2 Energies <==================
	-----------------------------------------------------------
	 SCS Same-Spin Scale       =       0.3333333333333333 [-]
	 SCS Opposite-Spin Scale   =       1.2000000000000000 [-]
	 SCS Same-Spin Energy      =      -0.1556163510655314 [Eh]
	 SCS Opposite-Spin Energy  =      -1.7495025252751299 [Eh]
	 SCS Correlation Energy    =      -1.9051188763406612 [Eh]
	 SCS Total Energy          =    -475.7444254675947946 [Eh]
	-----------------------------------------------------------

  Dipole Moment: [D]
     X:    -0.9859      Y:     1.9055      Z:    -1.7833     Total:     2.7898

*** Psi4 exiting successfully. Buy a developer a beer!
