                               Psi4 1.3.2 release

  ==> Input File <==

--------------------------------------------------------------------------
#psi4
#
memory 32 gb

molecule  {
0 1
  O        1.0830410    -1.2590340     0.2697030
  O       -3.0460190    -0.6564700     0.3579990
  O       -1.7208190     1.1319200     0.8547670
  N        0.1334480     0.3363350    -1.0591540
  C        2.3767950     0.7348440    -0.1800510
  C        1.1530800    -0.1541890    -0.2667860
  C       -1.1420340    -0.3248900    -0.9988550
  C        3.4883670     0.0910310     0.6318210
  C       -1.9580260     0.1406600     0.1881420
  H        2.7160870     0.9611190    -1.1975940
  H        2.0743670     1.6930220     0.2624750
  H       -0.9793980    -1.4015010    -0.9274340
  H       -1.7176060    -0.1322810    -1.9133280
  H        0.1138710     1.3396710    -1.2046940
  H        3.7876720    -0.8582410     0.1862610
  H        4.3593370     0.7487140     0.6762100
  H        3.1503700    -0.1123850     1.6481590
  H       -3.5987179    -0.2407524     1.1855390
units angstrom
no_reorient  #important for SAPT in psi4, default
symmetry c1  #important for SAPT in psi4, default
}

set PROPERTIES_ORIGIN ["COM"]
properties('MP2/aug-cc-pvtz', properties = ['dipole'])
--------------------------------------------------------------------------

    Molecular point group: c1
  Charge       = 0
  Multiplicity = 1
  Basis Set: AUG-CC-PVTZ
    Blend: AUG-CC-PVTZ
  Basis Set: (AUG-CC-PVTZ AUX)
    Blend: AUG-CC-PVTZ-JKFIT

    Orbital Energies [Eh]
    ---------------------

    Doubly Occupied:

       1A    -20.630648     2A    -20.561023     3A    -20.528336
       4A    -15.592377     5A    -11.397058     6A    -11.355667
       7A    -11.290432     8A    -11.243908     9A    -11.216230
      10A     -1.456698    11A     -1.384060    12A     -1.359548
      13A     -1.241310    14A     -1.062817    15A     -1.002628
      16A     -0.886553    17A     -0.812347    18A     -0.784511
      19A     -0.711777    20A     -0.705767    21A     -0.696527
      22A     -0.651016    23A     -0.641329    24A     -0.635812
      25A     -0.600015    26A     -0.595474    27A     -0.558021
      28A     -0.539165    29A     -0.524869    30A     -0.517143
      31A     -0.494638    32A     -0.489478    33A     -0.467548
      34A     -0.433557    35A     -0.409514

  @DF-RHF Final Energy:  -473.82674090276669

   => Energetics <=

    Nuclear Repulsion Energy =            457.4596645236591144
    One-Electron Energy =               -1555.6172119366583502
    Two-Electron Energy =                 624.3308065102326054
    Total Energy =                       -473.8267409027666872
  Basis Set: (AUG-CC-PVTZ AUX)
    Blend: AUG-CC-PVTZ-RI
    Molecular point group: c1

    Geometry (in Angstrom), charge = 0, multiplicity = 1:

       Center              X                  Y                   Z               Mass
    ------------   -----------------  -----------------  -----------------  -----------------
         O            1.083435141876    -1.259330293978     0.269112814165    15.994914619570
         O           -3.045624858124    -0.656766293978     0.357408814165    15.994914619570
         O           -1.720424858124     1.131623706022     0.854176814165    15.994914619570
         N            0.133842141876     0.336038706022    -1.059744185835    14.003074004430
         C            2.377189141876     0.734547706022    -0.180641185835    12.000000000000
         C            1.153474141876    -0.154485293978    -0.267376185835    12.000000000000
         C           -1.141639858124    -0.325186293978    -0.999445185835    12.000000000000
         C            3.488761141876     0.090734706022     0.631230814165    12.000000000000
         C           -1.957631858124     0.140363706022     0.187551814165    12.000000000000
         H            2.716481141876     0.960822706022    -1.198184185835     1.007825032230
         H            2.074761141876     1.692725706022     0.261884814165     1.007825032230
         H           -0.979003858124    -1.401797293978    -0.928024185835     1.007825032230
         H           -1.717211858124    -0.132577293978    -1.913918185835     1.007825032230
         H            0.114265141876     1.339374706022    -1.205284185835     1.007825032230
         H            3.788066141876    -0.858537293978     0.185670814165     1.007825032230
         H            4.359731141876     0.748417706022     0.675619814165     1.007825032230
         H            3.150764141876    -0.112681293978     1.647568814165     1.007825032230
         H           -3.598323758124    -0.241048693978     1.184948814165     1.007825032230

  Basis Set: AUG-CC-PVTZ
    Blend: AUG-CC-PVTZ
  Basis Set: (AUG-CC-PVTZ AUX)
    Blend: AUG-CC-PVTZ-JKFIT
	 Reference Energy          =    -473.8267409027666872 [Eh]
	 Singles Energy            =      -0.0000000000000000 [Eh]
	 Same-Spin Energy          =      -0.4680043444467425 [Eh]
	 Opposite-Spin Energy      =      -1.4608244421954553 [Eh]
	 Correlation Energy        =      -1.9288287866421978 [Eh]
	 Total Energy              =    -475.7555696894089010 [Eh]

	 ================> DF-SCS-MP2 Energies <==================
	-----------------------------------------------------------
	 SCS Same-Spin Scale       =       0.3333333333333333 [-]
	 SCS Opposite-Spin Scale   =       1.2000000000000000 [-]
	 SCS Same-Spin Energy      =      -0.1560014481489142 [Eh]
	 SCS Opposite-Spin Energy  =      -1.7529893306345463 [Eh]
	 SCS Correlation Energy    =      -1.9089907787834606 [Eh]
	 SCS Total Energy          =    -475.7357316815501349 [Eh]
	-----------------------------------------------------------

  Dipole Moment: [D]
     X:    -1.0334      Y:     1.8993      Z:    -1.6582     Total:     2.7249

*** Psi4 exiting successfully. Buy a developer a beer!
