                               Psi4 1.3.2 release

  ==> Input File <==

--------------------------------------------------------------------------
#psi4
#
memory 32 gb

molecule  {
0 1
  O        1.0636452    -1.2618528     0.2609362
  O       -3.0460190    -0.6564700     0.3579990
  O       -1.7208190     1.1319200     0.8547670
  N        0.1209521     0.3160927    -1.0552386
  C        2.3767950     0.7348440    -0.1800510
  C        1.1530800    -0.1541890    -0.2667860
  C       -1.1420340    -0.3248900    -0.9988550
  C        3.4883670     0.0910310     0.6318210
  C       -1.9580260     0.1406600     0.1881420
  H        2.7160870     0.9611190    -1.1975940
  H        2.0743670     1.6930220     0.2624750
  H       -0.9793980    -1.4015010    -0.9274340
  H       -1.7176060    -0.1322810    -1.9133280
  H        0.1138710     1.3396710    -1.2046940
  H        3.7876720    -0.8582410     0.1862610
  H        4.3593370     0.7487140     0.6762100
  H        3.1503700    -0.1123850     1.6481590
  H       -3.5474700    -0.2792990     1.1088070
units angstrom
no_reorient  #important for SAPT in psi4, default
symmetry c1  #important for SAPT in psi4, default
}

set PROPERTIES_ORIGIN ["COM"]
properties('MP2/aug-cc-pvtz', properties = ['dipole'])
--------------------------------------------------------------------------

    Molecular point group: c1
  Charge       = 0
  Multiplicity = 1
  Basis Set: AUG-CC-PVTZ
    Blend: AUG-CC-PVTZ
  Basis Set: (AUG-CC-PVTZ AUX)
    Blend: AUG-CC-PVTZ-JKFIT

    Orbital Energies [Eh]
    ---------------------

    Doubly Occupied:

       1A    -20.624560     2A    -20.562159     3A    -20.527679
       4A    -15.592272     5A    -11.397641     6A    -11.356062
       7A    -11.288397     8A    -11.246604     9A    -11.217995
      10A     -1.467661    11A     -1.385672    12A     -1.367792
      13A     -1.242116    14A     -1.065254    15A     -1.005160
      16A     -0.890644    17A     -0.825632    18A     -0.779965
      19A     -0.715526    20A     -0.714111    21A     -0.698991
      22A     -0.655112    23A     -0.643394    24A     -0.637763
      25A     -0.604222    26A     -0.599641    27A     -0.555223
      28A     -0.540613    29A     -0.527603    30A     -0.518747
      31A     -0.496335    32A     -0.491358    33A     -0.468820
      34A     -0.434434    35A     -0.407715

  @DF-RHF Final Energy:  -473.83840828047147

   => Energetics <=

    Nuclear Repulsion Energy =            458.4253230635873138
    One-Electron Energy =               -1557.4217191612083298
    Two-Electron Energy =                 625.1579878171495466
    Total Energy =                       -473.8384082804715263
  Basis Set: (AUG-CC-PVTZ AUX)
    Blend: AUG-CC-PVTZ-RI
    Molecular point group: c1

    Geometry (in Angstrom), charge = 0, multiplicity = 1:

       Center              X                  Y                   Z               Mass
    ------------   -----------------  -----------------  -----------------  -----------------
         O            1.067347537153    -1.259345843226     0.261587668318    15.994914619570
         O           -3.042316662847    -0.653963043226     0.358650468318    15.994914619570
         O           -1.717116662847     1.134426956774     0.855418468318    15.994914619570
         N            0.124654437153     0.318599656774    -1.054587131682    14.003074004430
         C            2.380497337153     0.737350956774    -0.179399531682    12.000000000000
         C            1.156782337153    -0.151682043226    -0.266134531682    12.000000000000
         C           -1.138331662847    -0.322383043226    -0.998203531682    12.000000000000
         C            3.492069337153     0.093537956774     0.632472468318    12.000000000000
         C           -1.954323662847     0.143166956774     0.188793468318    12.000000000000
         H            2.719789337153     0.963625956774    -1.196942531682     1.007825032230
         H            2.078069337153     1.695528956774     0.263126468318     1.007825032230
         H           -0.975695662847    -1.398994043226    -0.926782531682     1.007825032230
         H           -1.713903662847    -0.129774043226    -1.912676531682     1.007825032230
         H            0.117573337153     1.342177956774    -1.204042531682     1.007825032230
         H            3.791374337153    -0.855734043226     0.186912468318     1.007825032230
         H            4.363039337153     0.751220956774     0.676861468318     1.007825032230
         H            3.154072337153    -0.109878043226     1.648810468318     1.007825032230
         H           -3.543767662847    -0.276792043226     1.109458468318     1.007825032230

  Basis Set: AUG-CC-PVTZ
    Blend: AUG-CC-PVTZ
  Basis Set: (AUG-CC-PVTZ AUX)
    Blend: AUG-CC-PVTZ-JKFIT
	 Reference Energy          =    -473.8384082804714694 [Eh]
	 Singles Energy            =      -0.0000000000000000 [Eh]
	 Same-Spin Energy          =      -0.4669637651012315 [Eh]
	 Opposite-Spin Energy      =      -1.4579310625926869 [Eh]
	 Correlation Energy        =      -1.9248948276939184 [Eh]
	 Total Energy              =    -475.7633031081653598 [Eh]

	 ================> DF-SCS-MP2 Energies <==================
	-----------------------------------------------------------
	 SCS Same-Spin Scale       =       0.3333333333333333 [-]
	 SCS Opposite-Spin Scale   =       1.2000000000000000 [-]
	 SCS Same-Spin Energy      =      -0.1556545883670772 [Eh]
	 SCS Opposite-Spin Energy  =      -1.7495172751112242 [Eh]
	 SCS Correlation Energy    =      -1.9051718634783015 [Eh]
	 SCS Total Energy          =    -475.7435801439497709 [Eh]
	-----------------------------------------------------------

  Dipole Moment: [D]
     X:    -0.8257      Y:     1.9154      Z:    -1.7317     Total:     2.7109

*** Psi4 exiting successfully. Buy a developer a beer!
