                               Psi4 1.3.2 release

  ==> Input File <==

--------------------------------------------------------------------------
#psi4
#
memory 32 gb

molecule  {
0 1
  O        1.0830410    -1.2590340     0.2697030
  O       -3.0460190    -0.6564700     0.3579990
  O       -1.7208190     1.1319200     0.8547670
  N        0.1468154     0.3558231    -1.0639243
  C        2.3649979     0.7522529    -0.1960808
  C        1.1530800    -0.1541890    -0.2667860
  C       -1.1420340    -0.3248900    -0.9988550
  C        3.4883670     0.0910310     0.6318210
  C       -1.9580260     0.1406600     0.1881420
  H        2.7160870     0.9611190    -1.1975940
  H        2.0743670     1.6930220     0.2624750
  H       -0.9793980    -1.4015010    -0.9274340
  H       -1.7176060    -0.1322810    -1.9133280
  H        0.1138710     1.3396710    -1.2046940
  H        3.7876720    -0.8582410     0.1862610
  H        4.3593370     0.7487140     0.6762100
  H        3.1503700    -0.1123850     1.6481590
  H       -3.5474700    -0.2792990     1.1088070
units angstrom
no_reorient  #important for SAPT in psi4, default
symmetry c1  #important for SAPT in psi4, default
}

set PROPERTIES_ORIGIN ["COM"]
properties('MP2/aug-cc-pvtz', properties = ['dipole'])
--------------------------------------------------------------------------

    Molecular point group: c1
  Charge       = 0
  Multiplicity = 1
  Basis Set: AUG-CC-PVTZ
    Blend: AUG-CC-PVTZ
  Basis Set: (AUG-CC-PVTZ AUX)
    Blend: AUG-CC-PVTZ-JKFIT

    Orbital Energies [Eh]
    ---------------------

    Doubly Occupied:

       1A    -20.626020     2A    -20.563248     3A    -20.530441
       4A    -15.591970     5A    -11.399824     6A    -11.356585
       7A    -11.292300     8A    -11.241750     9A    -11.216797
      10A     -1.468974    11A     -1.384723    12A     -1.368991
      13A     -1.240651    14A     -1.060633    15A     -1.005259
      16A     -0.889208    17A     -0.824039    18A     -0.790989
      19A     -0.716346    20A     -0.712319    21A     -0.697826
      22A     -0.651005    23A     -0.644731    24A     -0.638311
      25A     -0.604124    26A     -0.598876    27A     -0.562333
      28A     -0.540285    29A     -0.521230    30A     -0.512296
      31A     -0.499293    32A     -0.492658    33A     -0.469394
      34A     -0.434677    35A     -0.411913

  @DF-RHF Final Energy:  -473.83858400743145

   => Energetics <=

    Nuclear Repulsion Energy =            457.6245726724743008
    One-Electron Energy =               -1555.8062745128002007
    Two-Electron Energy =                 624.3431178328943361
    Total Energy =                       -473.8385840074314501
  Basis Set: (AUG-CC-PVTZ AUX)
    Blend: AUG-CC-PVTZ-RI
    Molecular point group: c1

    Geometry (in Angstrom), charge = 0, multiplicity = 1:

       Center              X                  Y                   Z               Mass
    ------------   -----------------  -----------------  -----------------  -----------------
         O            1.082692964921    -1.262710103347     0.271680290168    15.994914619570
         O           -3.046367035079    -0.660146103347     0.359976290168    15.994914619570
         O           -1.721167035079     1.128243896653     0.856744290168    15.994914619570
         N            0.146467364921     0.352146996653    -1.061947009832    14.003074004430
         C            2.364649864921     0.748576796653    -0.194103509832    12.000000000000
         C            1.152731964921    -0.157865103347    -0.264808709832    12.000000000000
         C           -1.142382035079    -0.328566103347    -0.996877709832    12.000000000000
         C            3.488018964921     0.087354896653     0.633798290168    12.000000000000
         C           -1.958374035079     0.136983896653     0.190119290168    12.000000000000
         H            2.715738964921     0.957442896653    -1.195616709832     1.007825032230
         H            2.074018964921     1.689345896653     0.264452290168     1.007825032230
         H           -0.979746035079    -1.405177103347    -0.925456709832     1.007825032230
         H           -1.717954035079    -0.135957103347    -1.911350709832     1.007825032230
         H            0.113522964921     1.335994896653    -1.202716709832     1.007825032230
         H            3.787323964921    -0.861917103347     0.188238290168     1.007825032230
         H            4.358988964921     0.745037896653     0.678187290168     1.007825032230
         H            3.150021964921    -0.116061103347     1.650136290168     1.007825032230
         H           -3.547818035079    -0.282975103347     1.110784290168     1.007825032230

  Basis Set: AUG-CC-PVTZ
    Blend: AUG-CC-PVTZ
  Basis Set: (AUG-CC-PVTZ AUX)
    Blend: AUG-CC-PVTZ-JKFIT
	 Reference Energy          =    -473.8385840074314501 [Eh]
	 Singles Energy            =      -0.0000000000000000 [Eh]
	 Same-Spin Energy          =      -0.4664929218887711 [Eh]
	 Opposite-Spin Energy      =      -1.4576599362058151 [Eh]
	 Correlation Energy        =      -1.9241528580945864 [Eh]
	 Total Energy              =    -475.7627368655260511 [Eh]

	 ================> DF-SCS-MP2 Energies <==================
	-----------------------------------------------------------
	 SCS Same-Spin Scale       =       0.3333333333333333 [-]
	 SCS Opposite-Spin Scale   =       1.2000000000000000 [-]
	 SCS Same-Spin Energy      =      -0.1554976406295904 [Eh]
	 SCS Opposite-Spin Energy  =      -1.7491919234469782 [Eh]
	 SCS Correlation Energy    =      -1.9046895640765684 [Eh]
	 SCS Total Energy          =    -475.7432735715080412 [Eh]
	-----------------------------------------------------------

  Dipole Moment: [D]
     X:    -1.0133      Y:     1.8461      Z:    -1.7424     Total:     2.7333

*** Psi4 exiting successfully. Buy a developer a beer!
