                               Psi4 1.3.2 release

  ==> Input File <==

--------------------------------------------------------------------------
#psi4
#
memory 32 gb

molecule  {
0 1
  O        1.0830410    -1.2590340     0.2697030
  O       -3.0460190    -0.6564700     0.3579990
  O       -1.7208190     1.1319200     0.8547670
  N        0.1334480     0.3363350    -1.0591540
  C        2.3767950     0.7348440    -0.1800510
  C        1.1530800    -0.1541890    -0.2667860
  C       -1.1420340    -0.3248900    -0.9988550
  C        3.5354262     0.0966111     0.5679170
  C       -1.9580260     0.1406600     0.1881420
  H        2.7673343     0.9393132    -1.1837365
  H        2.0743670     1.6930220     0.2624750
  H       -0.9793980    -1.4015010    -0.9274340
  H       -1.7176060    -0.1322810    -1.9133280
  H        0.1138710     1.3396710    -1.2046940
  H        3.7876720    -0.8582410     0.1862610
  H        4.3593370     0.7487140     0.6762100
  H        3.1503700    -0.1123850     1.6481590
  H       -3.5474700    -0.2792990     1.1088070
units angstrom
no_reorient  #important for SAPT in psi4, default
symmetry c1  #important for SAPT in psi4, default
}

set PROPERTIES_ORIGIN ["COM"]
properties('MP2/aug-cc-pvtz', properties = ['dipole'])
--------------------------------------------------------------------------

    Molecular point group: c1
  Charge       = 0
  Multiplicity = 1
  Basis Set: AUG-CC-PVTZ
    Blend: AUG-CC-PVTZ
  Basis Set: (AUG-CC-PVTZ AUX)
    Blend: AUG-CC-PVTZ-JKFIT

    Orbital Energies [Eh]
    ---------------------

    Doubly Occupied:

       1A    -20.625656     2A    -20.563132     3A    -20.529414
       4A    -15.593489     5A    -11.399195     6A    -11.357436
       7A    -11.291251     8A    -11.244421     9A    -11.216957
      10A     -1.468709    11A     -1.385303    12A     -1.368791
      13A     -1.242318    14A     -1.063808    15A     -1.006797
      16A     -0.889881    17A     -0.824862    18A     -0.786117
      19A     -0.716355    20A     -0.713465    21A     -0.699086
      22A     -0.653221    23A     -0.644912    24A     -0.637932
      25A     -0.603760    26A     -0.602759    27A     -0.560090
      28A     -0.543529    29A     -0.534620    30A     -0.517162
      31A     -0.492968    32A     -0.476273    33A     -0.469370
      34A     -0.434913    35A     -0.410547

  @DF-RHF Final Energy:  -473.83223711769261

   => Energetics <=

    Nuclear Repulsion Energy =            457.6773960634444620
    One-Electron Energy =               -1555.8822688382979322
    Two-Electron Energy =                 624.3726356571607994
    Total Energy =                       -473.8322371176925571
  Basis Set: (AUG-CC-PVTZ AUX)
    Blend: AUG-CC-PVTZ-RI
    Molecular point group: c1

    Geometry (in Angstrom), charge = 0, multiplicity = 1:

       Center              X                  Y                   Z               Mass
    ------------   -----------------  -----------------  -----------------  -----------------
         O            1.078338113165    -1.259377116981     0.275447512960    15.994914619570
         O           -3.050721886835    -0.656813116981     0.363743512960    15.994914619570
         O           -1.725521886835     1.131576883019     0.860511512960    15.994914619570
         N            0.128745113165     0.335991883019    -1.053409487040    14.003074004430
         C            2.372092113165     0.734500883019    -0.174306487040    12.000000000000
         C            1.148377113165    -0.154532116981    -0.261041487040    12.000000000000
         C           -1.146736886835    -0.325233116981    -0.993110487040    12.000000000000
         C            3.530723313165     0.096267983019     0.573661512960    12.000000000000
         C           -1.962728886835     0.140316883019     0.193886512960    12.000000000000
         H            2.762631413165     0.938970083019    -1.177991987040     1.007825032230
         H            2.069664113165     1.692678883019     0.268219512960     1.007825032230
         H           -0.984100886835    -1.401844116981    -0.921689487040     1.007825032230
         H           -1.722308886835    -0.132624116981    -1.907583487040     1.007825032230
         H            0.109168113165     1.339327883019    -1.198949487040     1.007825032230
         H            3.782969113165    -0.858584116981     0.192005512960     1.007825032230
         H            4.354634113165     0.748370883019     0.681954512960     1.007825032230
         H            3.145667113165    -0.112728116981     1.653903512960     1.007825032230
         H           -3.552172886835    -0.279642116981     1.114551512960     1.007825032230

  Basis Set: AUG-CC-PVTZ
    Blend: AUG-CC-PVTZ
  Basis Set: (AUG-CC-PVTZ AUX)
    Blend: AUG-CC-PVTZ-JKFIT
	 Reference Energy          =    -473.8322371176926140 [Eh]
	 Singles Energy            =      -0.0000000000000000 [Eh]
	 Same-Spin Energy          =      -0.4668728745022038 [Eh]
	 Opposite-Spin Energy      =      -1.4581565978082889 [Eh]
	 Correlation Energy        =      -1.9250294723104928 [Eh]
	 Total Energy              =    -475.7572665900030984 [Eh]

	 ================> DF-SCS-MP2 Energies <==================
	-----------------------------------------------------------
	 SCS Same-Spin Scale       =       0.3333333333333333 [-]
	 SCS Opposite-Spin Scale   =       1.2000000000000000 [-]
	 SCS Same-Spin Energy      =      -0.1556242915007346 [Eh]
	 SCS Opposite-Spin Energy  =      -1.7497879173699467 [Eh]
	 SCS Correlation Energy    =      -1.9054122088706813 [Eh]
	 SCS Total Energy          =    -475.7376493265633144 [Eh]
	-----------------------------------------------------------

  Dipole Moment: [D]
     X:    -0.9477      Y:     1.8741      Z:    -1.7802     Total:     2.7531

*** Psi4 exiting successfully. Buy a developer a beer!
