                               Psi4 1.3.2 release

  ==> Input File <==

--------------------------------------------------------------------------
#psi4
#
memory 32 gb

molecule  {
0 1
  O        1.0830410    -1.2590340     0.2697030
  O       -3.0392790    -0.6693167     0.3392253
  O       -1.7208190     1.1319200     0.8547670
  N        0.1334480     0.3363350    -1.0591540
  C        2.3767950     0.7348440    -0.1800510
  C        1.1530800    -0.1541890    -0.2667860
  C       -1.1594173    -0.3443770    -1.0028680
  C        3.4883670     0.0910310     0.6318210
  C       -1.9580260     0.1406600     0.1881420
  H        2.7160870     0.9611190    -1.1975940
  H        2.0743670     1.6930220     0.2624750
  H       -0.9793980    -1.4015010    -0.9274340
  H       -1.7176060    -0.1322810    -1.9133280
  H        0.1138710     1.3396710    -1.2046940
  H        3.7876720    -0.8582410     0.1862610
  H        4.3593370     0.7487140     0.6762100
  H        3.1503700    -0.1123850     1.6481590
  H       -3.5474700    -0.2792990     1.1088070
units angstrom
no_reorient  #important for SAPT in psi4, default
symmetry c1  #important for SAPT in psi4, default
}

set PROPERTIES_ORIGIN ["COM"]
properties('MP2/aug-cc-pvtz', properties = ['dipole'])
--------------------------------------------------------------------------

    Molecular point group: c1
  Charge       = 0
  Multiplicity = 1
  Basis Set: AUG-CC-PVTZ
    Blend: AUG-CC-PVTZ
  Basis Set: (AUG-CC-PVTZ AUX)
    Blend: AUG-CC-PVTZ-JKFIT

    Orbital Energies [Eh]
    ---------------------

    Doubly Occupied:

       1A    -20.628649     2A    -20.565382     3A    -20.527297
       4A    -15.591492     5A    -11.400236     6A    -11.354698
       7A    -11.290195     8A    -11.243328     9A    -11.215847
      10A     -1.467234    11A     -1.383008    12A     -1.369186
      13A     -1.235587    14A     -1.062436    15A     -1.006828
      16A     -0.887397    17A     -0.820936    18A     -0.783394
      19A     -0.716481    20A     -0.710105    21A     -0.698176
      22A     -0.650871    23A     -0.642874    24A     -0.636183
      25A     -0.604099    26A     -0.598055    27A     -0.565167
      28A     -0.539931    29A     -0.524069    30A     -0.516663
      31A     -0.496044    32A     -0.492326    33A     -0.470449
      34A     -0.432300    35A     -0.409010

  @DF-RHF Final Energy:  -473.83642040396489

   => Energetics <=

    Nuclear Repulsion Energy =            457.6746055265140853
    One-Electron Energy =               -1555.9501894088305107
    Two-Electron Energy =                 624.4391634783514746
    Total Energy =                       -473.8364204039648939
  Basis Set: (AUG-CC-PVTZ AUX)
    Blend: AUG-CC-PVTZ-RI
    Molecular point group: c1

    Geometry (in Angstrom), charge = 0, multiplicity = 1:

       Center              X                  Y                   Z               Mass
    ------------   -----------------  -----------------  -----------------  -----------------
         O            1.083810127515    -1.255681732190     0.272361538920    15.994914619570
         O           -3.038509872485    -0.665964432190     0.341883838920    15.994914619570
         O           -1.720049872485     1.135272267810     0.857425538920    15.994914619570
         N            0.134217127515     0.339687267810    -1.056495461080    14.003074004430
         C            2.377564127515     0.738196267810    -0.177392461080    12.000000000000
         C            1.153849127515    -0.150836732190    -0.264127461080    12.000000000000
         C           -1.158648172485    -0.341024732190    -1.000209461080    12.000000000000
         C            3.489136127515     0.094383267810     0.634479538920    12.000000000000
         C           -1.957256872485     0.144012267810     0.190800538920    12.000000000000
         H            2.716856127515     0.964471267810    -1.194935461080     1.007825032230
         H            2.075136127515     1.696374267810     0.265133538920     1.007825032230
         H           -0.978628872485    -1.398148732190    -0.924775461080     1.007825032230
         H           -1.716836872485    -0.128928732190    -1.910669461080     1.007825032230
         H            0.114640127515     1.343023267810    -1.202035461080     1.007825032230
         H            3.788441127515    -0.854888732190     0.188919538920     1.007825032230
         H            4.360106127515     0.752066267810     0.678868538920     1.007825032230
         H            3.151139127515    -0.109032732190     1.650817538920     1.007825032230
         H           -3.546700872485    -0.275946732190     1.111465538920     1.007825032230

  Basis Set: AUG-CC-PVTZ
    Blend: AUG-CC-PVTZ
  Basis Set: (AUG-CC-PVTZ AUX)
    Blend: AUG-CC-PVTZ-JKFIT
	 Reference Energy          =    -473.8364204039648939 [Eh]
	 Singles Energy            =      -0.0000000000000000 [Eh]
	 Same-Spin Energy          =      -0.4670908311871189 [Eh]
	 Opposite-Spin Energy      =      -1.4588347613756798 [Eh]
	 Correlation Energy        =      -1.9259255925627987 [Eh]
	 Total Energy              =    -475.7623459965276993 [Eh]

	 ================> DF-SCS-MP2 Energies <==================
	-----------------------------------------------------------
	 SCS Same-Spin Scale       =       0.3333333333333333 [-]
	 SCS Opposite-Spin Scale   =       1.2000000000000000 [-]
	 SCS Same-Spin Energy      =      -0.1556969437290396 [Eh]
	 SCS Opposite-Spin Energy  =      -1.7506017136508156 [Eh]
	 SCS Correlation Energy    =      -1.9062986573798553 [Eh]
	 SCS Total Energy          =    -475.7427190613447578 [Eh]
	-----------------------------------------------------------

  Dipole Moment: [D]
     X:    -1.0654      Y:     1.8834      Z:    -1.7142     Total:     2.7605

*** Psi4 exiting successfully. Buy a developer a beer!
