                               Psi4 1.3.2 release

  ==> Input File <==

--------------------------------------------------------------------------
#psi4
#
memory 32 gb

molecule  {
0 1
  O        1.0830410    -1.2590340     0.2697030
  O       -3.0460190    -0.6564700     0.3579990
  O       -1.7208190     1.1319200     0.8547670
  N        0.1334480     0.3363350    -1.0591540
  C        2.3767950     0.7348440    -0.1800510
  C        1.1530800    -0.1541890    -0.2667860
  C       -1.1420340    -0.3248900    -0.9988550
  C        3.4883670     0.0910310     0.6318210
  C       -1.9190722     0.3034434     0.2976143
  H        2.7160870     0.9611190    -1.1975940
  H        2.0743670     1.6930220     0.2624750
  H       -0.9793980    -1.4015010    -0.9274340
  H       -1.7176060    -0.1322810    -1.9133280
  H        0.1138710     1.3396710    -1.2046940
  H        3.7876720    -0.8582410     0.1862610
  H        4.3593370     0.7487140     0.6762100
  H        3.1503700    -0.1123850     1.6481590
  H       -3.5474700    -0.2792990     1.1088070
units angstrom
no_reorient  #important for SAPT in psi4, default
symmetry c1  #important for SAPT in psi4, default
}

set PROPERTIES_ORIGIN ["COM"]
properties('MP2/aug-cc-pvtz', properties = ['dipole'])
--------------------------------------------------------------------------

    Molecular point group: c1
  Charge       = 0
  Multiplicity = 1
  Basis Set: AUG-CC-PVTZ
    Blend: AUG-CC-PVTZ
  Basis Set: (AUG-CC-PVTZ AUX)
    Blend: AUG-CC-PVTZ-JKFIT

    Orbital Energies [Eh]
    ---------------------

    Doubly Occupied:

       1A    -20.599664     2A    -20.584809     3A    -20.527572
       4A    -15.589379     5A    -11.378444     6A    -11.354325
       7A    -11.283105     8A    -11.245002     9A    -11.217371
      10A     -1.586827    11A     -1.383021    12A     -1.359367
      13A     -1.238581    14A     -1.060885    15A     -0.975815
      16A     -0.878385    17A     -0.796925    18A     -0.783567
      19A     -0.745550    20A     -0.738568    21A     -0.705588
      22A     -0.685030    23A     -0.649292    24A     -0.636064
      25A     -0.609793    26A     -0.599964    27A     -0.559236
      28A     -0.546483    29A     -0.525269    30A     -0.518198
      31A     -0.511176    32A     -0.497263    33A     -0.465419
      34A     -0.430158    35A     -0.389786

  @DF-RHF Final Energy:  -473.75566404988757

   => Energetics <=

    Nuclear Repulsion Energy =            459.4080265853292531
    One-Electron Energy =               -1559.0156169788160696
    Two-Electron Energy =                 625.8519263435993025
    Total Energy =                       -473.7556640498875140
  Basis Set: (AUG-CC-PVTZ AUX)
    Blend: AUG-CC-PVTZ-RI
    Molecular point group: c1

    Geometry (in Angstrom), charge = 0, multiplicity = 1:

       Center              X                  Y                   Z               Mass
    ------------   -----------------  -----------------  -----------------  -----------------
         O            1.079474349301    -1.273938704144     0.259679335279    15.994914619570
         O           -3.049585650699    -0.671374704144     0.347975335279    15.994914619570
         O           -1.724385650699     1.117015295856     0.844743335279    15.994914619570
         N            0.129881349301     0.321430295856    -1.069177664721    14.003074004430
         C            2.373228349301     0.719939295856    -0.190074664721    12.000000000000
         C            1.149513349301    -0.169093704144    -0.276809664721    12.000000000000
         C           -1.145600650699    -0.339794704144    -1.008878664721    12.000000000000
         C            3.484800349301     0.076126295856     0.621797335279    12.000000000000
         C           -1.922638850699     0.288538695856     0.287590635279    12.000000000000
         H            2.712520349301     0.946214295856    -1.207617664721     1.007825032230
         H            2.070800349301     1.678117295856     0.252451335279     1.007825032230
         H           -0.982964650699    -1.416405704144    -0.937457664721     1.007825032230
         H           -1.721172650699    -0.147185704144    -1.923351664721     1.007825032230
         H            0.110304349301     1.324766295856    -1.214717664721     1.007825032230
         H            3.784105349301    -0.873145704144     0.176237335279     1.007825032230
         H            4.355770349301     0.733809295856     0.666186335279     1.007825032230
         H            3.146803349301    -0.127289704144     1.638135335279     1.007825032230
         H           -3.551036650699    -0.294203704144     1.098783335279     1.007825032230

  Basis Set: AUG-CC-PVTZ
    Blend: AUG-CC-PVTZ
  Basis Set: (AUG-CC-PVTZ AUX)
    Blend: AUG-CC-PVTZ-JKFIT
	 Reference Energy          =    -473.7556640498875709 [Eh]
	 Singles Energy            =      -0.0000000000000000 [Eh]
	 Same-Spin Energy          =      -0.4642137081669138 [Eh]
	 Opposite-Spin Energy      =      -1.4533367316082224 [Eh]
	 Correlation Energy        =      -1.9175504397751362 [Eh]
	 Total Energy              =    -475.6732144896627119 [Eh]

	 ================> DF-SCS-MP2 Energies <==================
	-----------------------------------------------------------
	 SCS Same-Spin Scale       =       0.3333333333333333 [-]
	 SCS Opposite-Spin Scale   =       1.2000000000000000 [-]
	 SCS Same-Spin Energy      =      -0.1547379027223046 [Eh]
	 SCS Opposite-Spin Energy  =      -1.7440040779298669 [Eh]
	 SCS Correlation Energy    =      -1.8987419806521715 [Eh]
	 SCS Total Energy          =    -475.6544060305397466 [Eh]
	-----------------------------------------------------------

  Dipole Moment: [D]
     X:    -0.3594      Y:     3.1495      Z:    -1.1825     Total:     3.3833

*** Psi4 exiting successfully. Buy a developer a beer!
