                               Psi4 1.4a3.dev225

  ==> Input File <==

--------------------------------------------------------------------------
#psi4
#
memory 32 gb

molecule  {
0 1
  O        0.8764270    -0.2428500     1.2911470
  O       -3.1675390     0.0980960     0.5443480
  O       -1.5839830     1.3406500    -0.5070920
  N        0.0834400    -0.8734940    -0.7544630
  C        2.2681300     0.2178930    -0.6380450
  C        0.9987056    -0.3207385     0.0423077
  C       -1.2394860    -1.0499030    -0.2084880
  C        3.4385850     0.4137260     0.3159750
  C       -1.9785770     0.2694000    -0.0851210
  H        2.5310470    -0.4685700    -1.4513520
  H        1.9929790     1.1708880    -1.1091590
  H       -1.1549390    -1.4972460     0.7835340
  H       -1.8230450    -1.7308360    -0.8360530
  H        0.1282230    -0.6025030    -1.7308050
  H        3.7379630    -0.5375510     0.7615240
  H        4.2975370     0.8343390    -0.2133880
  H        3.1581410     1.0869690     1.1269820
  H       -3.5812870     0.9851770     0.5837010
units angstrom
no_reorient  #important for SAPT in psi4, default
symmetry c1  #important for SAPT in psi4, default
}

set PROPERTIES_ORIGIN ["COM"]
properties('MP2/aug-cc-pvtz', properties = ['dipole'])
--------------------------------------------------------------------------

    Molecular point group: c1
  Charge       = 0
  Multiplicity = 1
  Basis Set: AUG-CC-PVTZ
    Blend: AUG-CC-PVTZ
  Basis Set: (AUG-CC-PVTZ AUX)
    Blend: AUG-CC-PVTZ-JKFIT

    Orbital Energies [Eh]
    ---------------------

    Doubly Occupied:

       1A    -20.626916     2A    -20.563448     3A    -20.518763
       4A    -15.602186     5A    -11.401101     6A    -11.353214
       7A    -11.296737     8A    -11.243029     9A    -11.215343
      10A     -1.471574    11A     -1.374366    12A     -1.364704
      13A     -1.253071    14A     -1.058567    15A     -1.011572
      16A     -0.887261    17A     -0.829193    18A     -0.796209
      19A     -0.718528    20A     -0.714330    21A     -0.694805
      22A     -0.654628    23A     -0.648435    24A     -0.629195
      25A     -0.604467    26A     -0.590448    27A     -0.562524
      28A     -0.543611    29A     -0.521451    30A     -0.511260
      31A     -0.494850    32A     -0.490164    33A     -0.469867
      34A     -0.424990    35A     -0.412071

  @DF-RHF Final Energy:  -473.83513454378920

   => Energetics <=

    Nuclear Repulsion Energy =            460.6417507595742791
    One-Electron Energy =               -1561.8480232568365409
    Two-Electron Energy =                 627.3711379534730668
    Total Energy =                       -473.8351345437891950
  Basis Set: (AUG-CC-PVTZ AUX)
    Blend: AUG-CC-PVTZ-RI
    Molecular point group: c1

    Geometry (in Angstrom), charge = 0, multiplicity = 1:

       Center              X                  Y                   Z               Mass
    ------------   -----------------  -----------------  -----------------  -----------------
         O            0.949721274734    -0.246633878620     1.278167240891    15.994914619570
         O           -3.094244725266     0.094312121380     0.531368240891    15.994914619570
         O           -1.510688725266     1.336866121380    -0.520071759109    15.994914619570
         N            0.156734274734    -0.877277878620    -0.767442759109    14.003074004430
         C            2.341424274734     0.214109121380    -0.651024759109    12.000000000000
         C            1.071999874734    -0.324522378620     0.029327940891    12.000000000000
         C           -1.166191725266    -1.053686878620    -0.221467759109    12.000000000000
         C            3.511879274734     0.409942121380     0.302995240891    12.000000000000
         C           -1.905282725266     0.265616121380    -0.098100759109    12.000000000000
         H            2.604341274734    -0.472353878620    -1.464331759109     1.007825032230
         H            2.066273274734     1.167104121380    -1.122138759109     1.007825032230
         H           -1.081644725266    -1.501029878620     0.770554240891     1.007825032230
         H           -1.749750725266    -1.734619878620    -0.849032759109     1.007825032230
         H            0.201517274734    -0.606286878620    -1.743784759109     1.007825032230
         H            3.811257274734    -0.541334878620     0.748544240891     1.007825032230
         H            4.370831274734     0.830555121380    -0.226367759109     1.007825032230
         H            3.231435274734     1.083185121380     1.114002240891     1.007825032230
         H           -3.507992725266     0.981393121380     0.570721240891     1.007825032230

  Basis Set: AUG-CC-PVTZ
    Blend: AUG-CC-PVTZ
  Basis Set: (AUG-CC-PVTZ AUX)
    Blend: AUG-CC-PVTZ-JKFIT
	 Reference Energy          =    -473.8351345437891950 [Eh]
	 Singles Energy            =      -0.0000000000000000 [Eh]
	 Same-Spin Energy          =      -0.4672961275263152 [Eh]
	 Opposite-Spin Energy      =      -1.4588173119808698 [Eh]
	 Correlation Energy        =      -1.9261134395071851 [Eh]
	 Total Energy              =    -475.7612479832963572 [Eh]

	 ================> DF-SCS-MP2 Energies <==================
	-----------------------------------------------------------
	 SCS Same-Spin Scale       =       0.3333333333333333 [-]
	 SCS Opposite-Spin Scale   =       1.2000000000000000 [-]
	 SCS Same-Spin Energy      =      -0.1557653758421051 [Eh]
	 SCS Opposite-Spin Energy  =      -1.7505807743770438 [Eh]
	 SCS Correlation Energy    =      -1.9063461502191490 [Eh]
	 SCS Total Energy          =    -475.7414806940083167 [Eh]
	-----------------------------------------------------------

  Dipole Moment: [D]
     X:    -1.2182      Y:    -0.9222      Z:    -2.8997     Total:     3.2776

*** Psi4 exiting successfully. Buy a developer a beer!
