                               Psi4 1.3.2 release

  ==> Input File <==

--------------------------------------------------------------------------
#psi4
#
memory 32 gb

molecule  {
0 1
  O        1.0830410    -1.2590340     0.2697030
  O       -3.0460190    -0.6564700     0.3579990
  O       -1.7208190     1.1319200     0.8547670
  N        0.1334480     0.3363350    -1.0591540
  C        2.3767950     0.7348440    -0.1800510
  C        1.2268945    -0.1896996    -0.2094239
  C       -1.1420340    -0.3248900    -0.9988550
  C        3.4883670     0.0910310     0.6318210
  C       -1.9580260     0.1406600     0.1881420
  H        2.7160870     0.9611190    -1.1975940
  H        2.0743670     1.6930220     0.2624750
  H       -0.9793980    -1.4015010    -0.9274340
  H       -1.7176060    -0.1322810    -1.9133280
  H        0.1138710     1.3396710    -1.2046940
  H        3.7876720    -0.8582410     0.1862610
  H        4.3593370     0.7487140     0.6762100
  H        3.1503700    -0.1123850     1.6481590
  H       -3.5474700    -0.2792990     1.1088070
units angstrom
no_reorient  #important for SAPT in psi4, default
symmetry c1  #important for SAPT in psi4, default
}

set PROPERTIES_ORIGIN ["COM"]
properties('MP2/aug-cc-pvtz', properties = ['dipole'])
--------------------------------------------------------------------------

    Molecular point group: c1
  Charge       = 0
  Multiplicity = 1
  Basis Set: AUG-CC-PVTZ
    Blend: AUG-CC-PVTZ
  Basis Set: (AUG-CC-PVTZ AUX)
    Blend: AUG-CC-PVTZ-JKFIT

    Orbital Energies [Eh]
    ---------------------

    Doubly Occupied:

       1A    -20.620637     2A    -20.557177     3A    -20.546099
       4A    -15.573489     5A    -11.391791     6A    -11.359965
       7A    -11.281424     8A    -11.247106     9A    -11.221282
      10A     -1.463283    11A     -1.421686    12A     -1.363578
      13A     -1.213487    14A     -1.074711    15A     -0.991166
      16A     -0.893802    17A     -0.815464    18A     -0.765801
      19A     -0.716978    20A     -0.709994    21A     -0.696712
      22A     -0.650454    23A     -0.649276    24A     -0.641474
      25A     -0.611319    26A     -0.596675    27A     -0.552554
      28A     -0.548619    29A     -0.531356    30A     -0.523142
      31A     -0.502607    32A     -0.487659    33A     -0.465149
      34A     -0.441877    35A     -0.398927

  @DF-RHF Final Energy:  -473.83065557140725

   => Energetics <=

    Nuclear Repulsion Energy =            457.7843916648586742
    One-Electron Energy =               -1556.1766538221211249
    Two-Electron Energy =                 624.5616065858552020
    Total Energy =                       -473.8306555714071919
  Basis Set: (AUG-CC-PVTZ AUX)
    Blend: AUG-CC-PVTZ-RI
    Molecular point group: c1

    Geometry (in Angstrom), charge = 0, multiplicity = 1:

       Center              X                  Y                   Z               Mass
    ------------   -----------------  -----------------  -----------------  -----------------
         O            1.076282421880    -1.255782440618     0.264450667359    15.994914619570
         O           -3.052777578120    -0.653218440618     0.352746667359    15.994914619570
         O           -1.727577578120     1.135171559382     0.849514667359    15.994914619570
         N            0.126689421880     0.339586559382    -1.064406332641    14.003074004430
         C            2.370036421880     0.738095559382    -0.185303332641    12.000000000000
         C            1.220135921880    -0.186448040618    -0.214676232641    12.000000000000
         C           -1.148792578120    -0.321638440618    -1.004107332641    12.000000000000
         C            3.481608421880     0.094282559382     0.626568667359    12.000000000000
         C           -1.964784578120     0.143911559382     0.182889667359    12.000000000000
         H            2.709328421880     0.964370559382    -1.202846332641     1.007825032230
         H            2.067608421880     1.696273559382     0.257222667359     1.007825032230
         H           -0.986156578120    -1.398249440618    -0.932686332641     1.007825032230
         H           -1.724364578120    -0.129029440618    -1.918580332641     1.007825032230
         H            0.107112421880     1.342922559382    -1.209946332641     1.007825032230
         H            3.780913421880    -0.854989440618     0.181008667359     1.007825032230
         H            4.352578421880     0.751965559382     0.670957667359     1.007825032230
         H            3.143611421880    -0.109133440618     1.642906667359     1.007825032230
         H           -3.554228578120    -0.276047440618     1.103554667359     1.007825032230

  Basis Set: AUG-CC-PVTZ
    Blend: AUG-CC-PVTZ
  Basis Set: (AUG-CC-PVTZ AUX)
    Blend: AUG-CC-PVTZ-JKFIT
	 Reference Energy          =    -473.8306555714072488 [Eh]
	 Singles Energy            =      -0.0000000000000000 [Eh]
	 Same-Spin Energy          =      -0.4662568714230709 [Eh]
	 Opposite-Spin Energy      =      -1.4569238276134739 [Eh]
	 Correlation Energy        =      -1.9231806990365450 [Eh]
	 Total Energy              =    -475.7538362704437986 [Eh]

	 ================> DF-SCS-MP2 Energies <==================
	-----------------------------------------------------------
	 SCS Same-Spin Scale       =       0.3333333333333333 [-]
	 SCS Opposite-Spin Scale   =       1.2000000000000000 [-]
	 SCS Same-Spin Energy      =      -0.1554189571410236 [Eh]
	 SCS Opposite-Spin Energy  =      -1.7483085931361686 [Eh]
	 SCS Correlation Energy    =      -1.9037275502771922 [Eh]
	 SCS Total Energy          =    -475.7343831216844592 [Eh]
	-----------------------------------------------------------

  Dipole Moment: [D]
     X:    -0.2122      Y:     1.5818      Z:    -1.3092     Total:     2.0642

*** Psi4 exiting successfully. Buy a developer a beer!
