                               Psi4 1.4a3.dev225

  ==> Input File <==

--------------------------------------------------------------------------
#psi4
#
memory 32 gb

molecule  {
0 1
  O        0.8764270    -0.2428500     1.2911470
  O       -3.1675390     0.0980960     0.5443480
  O       -1.5839830     1.3406500    -0.5070920
  N        0.0834400    -0.8734940    -0.7544630
  C        2.2681300     0.2178930    -0.6380450
  C        1.0330250    -0.3000120     0.0721840
  C       -1.2394860    -1.0499030    -0.2084880
  C        3.4385850     0.4137260     0.3159750
  C       -1.9720929     0.2870033    -0.0920550
  H        2.5310470    -0.4685700    -1.4513520
  H        1.9929790     1.1708880    -1.1091590
  H       -1.1549390    -1.4972460     0.7835340
  H       -1.8230450    -1.7308360    -0.8360530
  H        0.1282230    -0.6025030    -1.7308050
  H        3.7379630    -0.5375510     0.7615240
  H        4.2975370     0.8343390    -0.2133880
  H        3.1581410     1.0869690     1.1269820
  H       -3.5812870     0.9851770     0.5837010
units angstrom
no_reorient  #important for SAPT in psi4, default
symmetry c1  #important for SAPT in psi4, default
}

set PROPERTIES_ORIGIN ["COM"]
properties('MP2/aug-cc-pvtz', properties = ['dipole'])
--------------------------------------------------------------------------

    Molecular point group: c1
  Charge       = 0
  Multiplicity = 1
  Basis Set: AUG-CC-PVTZ
    Blend: AUG-CC-PVTZ
  Basis Set: (AUG-CC-PVTZ AUX)
    Blend: AUG-CC-PVTZ-JKFIT

    Orbital Energies [Eh]
    ---------------------

    Doubly Occupied:

       1A    -20.621111     2A    -20.564563     3A    -20.527639
       4A    -15.593056     5A    -11.395852     6A    -11.355154
       7A    -11.291253     8A    -11.243890     9A    -11.217578
      10A     -1.470139    11A     -1.384025    12A     -1.374510
      13A     -1.240831    14A     -1.061794    15A     -1.001613
      16A     -0.887849    17A     -0.821032    18A     -0.783906
      19A     -0.717137    20A     -0.710353    21A     -0.698389
      22A     -0.652332    23A     -0.645812    24A     -0.630196
      25A     -0.606375    26A     -0.599993    27A     -0.557686
      28A     -0.544741    29A     -0.523953    30A     -0.515299
      31A     -0.498737    32A     -0.492797    33A     -0.470523
      34A     -0.432247    35A     -0.410101

  @DF-RHF Final Energy:  -473.84050756482134

   => Energetics <=

    Nuclear Repulsion Energy =            460.5647829299328464
    One-Electron Energy =               -1561.7256463809810612
    Two-Electron Energy =                 627.3203558862269347
    Total Energy =                       -473.8405075648213369
  Basis Set: (AUG-CC-PVTZ AUX)
    Blend: AUG-CC-PVTZ-RI
    Molecular point group: c1

    Geometry (in Angstrom), charge = 0, multiplicity = 1:

       Center              X                  Y                   Z               Mass
    ------------   -----------------  -----------------  -----------------  -----------------
         O            0.945985210613    -0.250143444970     1.276066590116    15.994914619570
         O           -3.097980789387     0.090802555030     0.529267590116    15.994914619570
         O           -1.514424789387     1.333356555030    -0.522172409884    15.994914619570
         N            0.152998210613    -0.880787444970    -0.769543409884    14.003074004430
         C            2.337688210613     0.210599555030    -0.653125409884    12.000000000000
         C            1.102583210613    -0.307305444970     0.057103590116    12.000000000000
         C           -1.169927789387    -1.057196444970    -0.223568409884    12.000000000000
         C            3.508143210613     0.406432555030     0.300894590116    12.000000000000
         C           -1.902534689387     0.279709855030    -0.107135409884    12.000000000000
         H            2.600605210613    -0.475863444970    -1.466432409884     1.007825032230
         H            2.062537210613     1.163594555030    -1.124239409884     1.007825032230
         H           -1.085380789387    -1.504539444970     0.768453590116     1.007825032230
         H           -1.753486789387    -1.738129444970    -0.851133409884     1.007825032230
         H            0.197781210613    -0.609796444970    -1.745885409884     1.007825032230
         H            3.807521210613    -0.544844444970     0.746443590116     1.007825032230
         H            4.367095210613     0.827045555030    -0.228468409884     1.007825032230
         H            3.227699210613     1.079675555030     1.111901590116     1.007825032230
         H           -3.511728789387     0.977883555030     0.568620590116     1.007825032230

  Basis Set: AUG-CC-PVTZ
    Blend: AUG-CC-PVTZ
  Basis Set: (AUG-CC-PVTZ AUX)
    Blend: AUG-CC-PVTZ-JKFIT
	 Reference Energy          =    -473.8405075648213369 [Eh]
	 Singles Energy            =      -0.0000000000000000 [Eh]
	 Same-Spin Energy          =      -0.4664798396110953 [Eh]
	 Opposite-Spin Energy      =      -1.4573895948039701 [Eh]
	 Correlation Energy        =      -1.9238694344150655 [Eh]
	 Total Energy              =    -475.7643769992363900 [Eh]

	 ================> DF-SCS-MP2 Energies <==================
	-----------------------------------------------------------
	 SCS Same-Spin Scale       =       0.3333333333333333 [-]
	 SCS Opposite-Spin Scale   =       1.2000000000000000 [-]
	 SCS Same-Spin Energy      =      -0.1554932798703651 [Eh]
	 SCS Opposite-Spin Energy  =      -1.7488675137647640 [Eh]
	 SCS Correlation Energy    =      -1.9043607936351292 [Eh]
	 SCS Total Energy          =    -475.7448683584564719 [Eh]
	-----------------------------------------------------------

  Dipole Moment: [D]
     X:    -0.8348      Y:    -0.6878      Z:    -2.7252     Total:     2.9320

*** Psi4 exiting successfully. Buy a developer a beer!
