                               Psi4 1.3.2 release

  ==> Input File <==

--------------------------------------------------------------------------
#psi4
#
memory 32 gb

molecule  {
0 1
  O        1.0830410    -1.2590340     0.2697030
  O       -3.0460190    -0.6564700     0.3579990
  O       -1.7208190     1.1319200     0.8547670
  N        0.1334480     0.3363350    -1.0591540
  C        2.3767950     0.7348440    -0.1800510
  C        1.1567633    -0.1525418    -0.3195144
  C       -1.1420340    -0.3248900    -0.9988550
  C        3.4883670     0.0910310     0.6318210
  C       -1.9580260     0.1406600     0.1881420
  H        2.6872590     0.9399510    -1.2111942
  H        2.0743670     1.6930220     0.2624750
  H       -0.9793980    -1.4015010    -0.9274340
  H       -1.7176060    -0.1322810    -1.9133280
  H        0.1138710     1.3396710    -1.2046940
  H        3.7876720    -0.8582410     0.1862610
  H        4.3593370     0.7487140     0.6762100
  H        3.1503700    -0.1123850     1.6481590
  H       -3.5474700    -0.2792990     1.1088070
units angstrom
no_reorient  #important for SAPT in psi4, default
symmetry c1  #important for SAPT in psi4, default
}

set PROPERTIES_ORIGIN ["COM"]
properties('MP2/aug-cc-pvtz', properties = ['dipole'])
--------------------------------------------------------------------------

    Molecular point group: c1
  Charge       = 0
  Multiplicity = 1
  Basis Set: AUG-CC-PVTZ
    Blend: AUG-CC-PVTZ
  Basis Set: (AUG-CC-PVTZ AUX)
    Blend: AUG-CC-PVTZ-JKFIT

    Orbital Energies [Eh]
    ---------------------

    Doubly Occupied:

       1A    -20.626475     2A    -20.563929     3A    -20.521936
       4A    -15.598069     5A    -11.400633     6A    -11.355668
       7A    -11.293698     8A    -11.244831     9A    -11.216289
      10A     -1.469535    11A     -1.373638    12A     -1.366231
      13A     -1.246675    14A     -1.063885    15A     -1.010307
      16A     -0.891344    17A     -0.827592    18A     -0.791837
      19A     -0.717335    20A     -0.713126    21A     -0.696400
      22A     -0.654205    23A     -0.644592    24A     -0.637808
      25A     -0.604326    26A     -0.592778    27A     -0.561225
      28A     -0.538379    29A     -0.526365    30A     -0.514817
      31A     -0.495303    32A     -0.492141    33A     -0.469038
      34A     -0.429227    35A     -0.409122

  @DF-RHF Final Energy:  -473.83599668976757

   => Energetics <=

    Nuclear Repulsion Energy =            457.9132925697793439
    One-Electron Energy =               -1556.3810639370874469
    Two-Electron Energy =                 624.6317746775406476
    Total Energy =                       -473.8359966897675122
  Basis Set: (AUG-CC-PVTZ AUX)
    Blend: AUG-CC-PVTZ-RI
    Molecular point group: c1

    Geometry (in Angstrom), charge = 0, multiplicity = 1:

       Center              X                  Y                   Z               Mass
    ------------   -----------------  -----------------  -----------------  -----------------
         O            1.082925483462    -1.259021916056     0.274635395842    15.994914619570
         O           -3.046134516538    -0.656457916056     0.362931395842    15.994914619570
         O           -1.720934516538     1.131932083944     0.859699395842    15.994914619570
         N            0.133332483462     0.336347083944    -1.054221604158    14.003074004430
         C            2.376679483462     0.734856083944    -0.175118604158    12.000000000000
         C            1.156647783462    -0.152529716056    -0.314582004158    12.000000000000
         C           -1.142149516538    -0.324877916056    -0.993922604158    12.000000000000
         C            3.488251483462     0.091043083944     0.636753395842    12.000000000000
         C           -1.958141516538     0.140672083944     0.193074395842    12.000000000000
         H            2.687143483462     0.939963083944    -1.206261804158     1.007825032230
         H            2.074251483462     1.693034083944     0.267407395842     1.007825032230
         H           -0.979513516538    -1.401488916056    -0.922501604158     1.007825032230
         H           -1.717721516538    -0.132268916056    -1.908395604158     1.007825032230
         H            0.113755483462     1.339683083944    -1.199761604158     1.007825032230
         H            3.787556483462    -0.858228916056     0.191193395842     1.007825032230
         H            4.359221483462     0.748726083944     0.681142395842     1.007825032230
         H            3.150254483462    -0.112372916056     1.653091395842     1.007825032230
         H           -3.547585516538    -0.279286916056     1.113739395842     1.007825032230

  Basis Set: AUG-CC-PVTZ
    Blend: AUG-CC-PVTZ
  Basis Set: (AUG-CC-PVTZ AUX)
    Blend: AUG-CC-PVTZ-JKFIT
	 Reference Energy          =    -473.8359966897675690 [Eh]
	 Singles Energy            =      -0.0000000000000000 [Eh]
	 Same-Spin Energy          =      -0.4672531347321543 [Eh]
	 Opposite-Spin Energy      =      -1.4586679191806733 [Eh]
	 Correlation Energy        =      -1.9259210539128275 [Eh]
	 Total Energy              =    -475.7619177436803852 [Eh]

	 ================> DF-SCS-MP2 Energies <==================
	-----------------------------------------------------------
	 SCS Same-Spin Scale       =       0.3333333333333333 [-]
	 SCS Opposite-Spin Scale   =       1.2000000000000000 [-]
	 SCS Same-Spin Energy      =      -0.1557510449107181 [Eh]
	 SCS Opposite-Spin Energy  =      -1.7504015030168079 [Eh]
	 SCS Correlation Energy    =      -1.9061525479275259 [Eh]
	 SCS Total Energy          =    -475.7421492376951164 [Eh]
	-----------------------------------------------------------

  Dipole Moment: [D]
     X:    -1.0910      Y:     1.9927      Z:    -1.8896     Total:     2.9549

*** Psi4 exiting successfully. Buy a developer a beer!
