                               Psi4 1.3.2 release

  ==> Input File <==

--------------------------------------------------------------------------
#psi4
#
memory 32 gb

molecule  {
0 1
  O        1.0830410    -1.2590340     0.2697030
  O       -3.0460190    -0.6564700     0.3579990
  O       -1.7208190     1.1319200     0.8547670
  N        0.1334480     0.3363350    -1.0591540
  C        2.3767950     0.7348440    -0.1800510
  C        1.1530800    -0.1541890    -0.2667860
  C       -0.9646315    -0.2329225    -1.0072418
  C        3.4883670     0.0910310     0.6318210
  C       -1.9580260     0.1406600     0.1881420
  H        2.7160870     0.9611190    -1.1975940
  H        2.0743670     1.6930220     0.2624750
  H       -0.9793980    -1.4015010    -0.9274340
  H       -1.7176060    -0.1322810    -1.9133280
  H        0.1138710     1.3396710    -1.2046940
  H        3.7876720    -0.8582410     0.1862610
  H        4.3593370     0.7487140     0.6762100
  H        3.1503700    -0.1123850     1.6481590
  H       -3.5474700    -0.2792990     1.1088070
units angstrom
no_reorient  #important for SAPT in psi4, default
symmetry c1  #important for SAPT in psi4, default
}

set PROPERTIES_ORIGIN ["COM"]
properties('MP2/aug-cc-pvtz', properties = ['dipole'])
--------------------------------------------------------------------------

    Molecular point group: c1
  Charge       = 0
  Multiplicity = 1
  Basis Set: AUG-CC-PVTZ
    Blend: AUG-CC-PVTZ
  Basis Set: (AUG-CC-PVTZ AUX)
    Blend: AUG-CC-PVTZ-JKFIT

    Orbital Energies [Eh]
    ---------------------

    Doubly Occupied:

       1A    -20.623081     2A    -20.552242     3A    -20.539668
       4A    -15.596886     5A    -11.388301     6A    -11.365198
       7A    -11.293902     8A    -11.250362     9A    -11.220839
      10A     -1.461022    11A     -1.403689    12A     -1.361794
      13A     -1.302466    14A     -1.070824    15A     -0.984620
      16A     -0.895731    17A     -0.829732    18A     -0.808374
      19A     -0.729851    20A     -0.709039    21A     -0.700466
      22A     -0.683470    23A     -0.641688    24A     -0.632841
      25A     -0.615424    26A     -0.601276    27A     -0.540344
      28A     -0.537702    29A     -0.522823    30A     -0.508351
      31A     -0.499058    32A     -0.482737    33A     -0.467143
      34A     -0.443536    35A     -0.394765

  @DF-RHF Final Energy:  -473.78517624207404

   => Energetics <=

    Nuclear Repulsion Energy =            460.3570314070232143
    One-Electron Energy =               -1560.9659229076269185
    Two-Electron Energy =                 626.8237152585296599
    Total Energy =                       -473.7851762420740442
  Basis Set: (AUG-CC-PVTZ AUX)
    Blend: AUG-CC-PVTZ-RI
    Molecular point group: c1

    Geometry (in Angstrom), charge = 0, multiplicity = 1:

       Center              X                  Y                   Z               Mass
    ------------   -----------------  -----------------  -----------------  -----------------
         O            1.066797661745    -1.267454634317     0.270470790787    15.994914619570
         O           -3.062262338255    -0.664890634317     0.358766790787    15.994914619570
         O           -1.737062338255     1.123499365683     0.855534790787    15.994914619570
         N            0.117204661745     0.327914365683    -1.058386209213    14.003074004430
         C            2.360551661745     0.726423365683    -0.179283209213    12.000000000000
         C            1.136836661745    -0.162609634317    -0.266018209213    12.000000000000
         C           -0.980874838255    -0.241343134317    -1.006474009213    12.000000000000
         C            3.472123661745     0.082610365683     0.632588790787    12.000000000000
         C           -1.974269338255     0.132239365683     0.188909790787    12.000000000000
         H            2.699843661745     0.952698365683    -1.196826209213     1.007825032230
         H            2.058123661745     1.684601365683     0.263242790787     1.007825032230
         H           -0.995641338255    -1.409921634317    -0.926666209213     1.007825032230
         H           -1.733849338255    -0.140701634317    -1.912560209213     1.007825032230
         H            0.097627661745     1.331250365683    -1.203926209213     1.007825032230
         H            3.771428661745    -0.866661634317     0.187028790787     1.007825032230
         H            4.343093661745     0.740293365683     0.676977790787     1.007825032230
         H            3.134126661745    -0.120805634317     1.648926790787     1.007825032230
         H           -3.563713338255    -0.287719634317     1.109574790787     1.007825032230

  Basis Set: AUG-CC-PVTZ
    Blend: AUG-CC-PVTZ
  Basis Set: (AUG-CC-PVTZ AUX)
    Blend: AUG-CC-PVTZ-JKFIT
	 Reference Energy          =    -473.7851762420740442 [Eh]
	 Singles Energy            =      -0.0000000000000000 [Eh]
	 Same-Spin Energy          =      -0.4693173156435796 [Eh]
	 Opposite-Spin Energy      =      -1.4600271235889957 [Eh]
	 Correlation Energy        =      -1.9293444392325754 [Eh]
	 Total Energy              =    -475.7145206813066238 [Eh]

	 ================> DF-SCS-MP2 Energies <==================
	-----------------------------------------------------------
	 SCS Same-Spin Scale       =       0.3333333333333333 [-]
	 SCS Opposite-Spin Scale   =       1.2000000000000000 [-]
	 SCS Same-Spin Energy      =      -0.1564391052145265 [Eh]
	 SCS Opposite-Spin Energy  =      -1.7520325483067947 [Eh]
	 SCS Correlation Energy    =      -1.9084716535213211 [Eh]
	 SCS Total Energy          =    -475.6936478955953476 [Eh]
	-----------------------------------------------------------

  Dipole Moment: [D]
     X:    -0.1935      Y:     1.9399      Z:    -1.7269     Total:     2.6044

*** Psi4 exiting successfully. Buy a developer a beer!
