                               Psi4 1.3.2 release

  ==> Input File <==

--------------------------------------------------------------------------
#psi4
#
memory 32 gb

molecule  {
0 1
  O        1.0830410    -1.2590340     0.2697030
  O       -3.0460190    -0.6564700     0.3579990
  O       -1.7208190     1.1319200     0.8547670
  N        0.1362706     0.3318069    -1.0477965
  C        2.3767950     0.7348440    -0.1800510
  C        1.1530800    -0.1541890    -0.2667860
  C       -1.1420340    -0.3248900    -0.9988550
  C        3.4883670     0.0910310     0.6318210
  C       -1.9580260     0.1406600     0.1881420
  H        2.7160870     0.9611190    -1.1975940
  H        2.0743670     1.6930220     0.2624750
  H       -0.9793980    -1.4015010    -0.9274340
  H       -1.7247780    -0.1376161    -1.9098875
  H        0.1138710     1.3396710    -1.2046940
  H        3.7876720    -0.8582410     0.1862610
  H        4.3593370     0.7487140     0.6762100
  H        3.1503700    -0.1123850     1.6481590
  H       -3.5474700    -0.2792990     1.1088070
units angstrom
no_reorient  #important for SAPT in psi4, default
symmetry c1  #important for SAPT in psi4, default
}

set PROPERTIES_ORIGIN ["COM"]
properties('MP2/aug-cc-pvtz', properties = ['dipole'])
--------------------------------------------------------------------------

    Molecular point group: c1
  Charge       = 0
  Multiplicity = 1
  Basis Set: AUG-CC-PVTZ
    Blend: AUG-CC-PVTZ
  Basis Set: (AUG-CC-PVTZ AUX)
    Blend: AUG-CC-PVTZ-JKFIT

    Orbital Energies [Eh]
    ---------------------

    Doubly Occupied:

       1A    -20.625591     2A    -20.563013     3A    -20.526744
       4A    -15.593712     5A    -11.399095     6A    -11.354692
       7A    -11.291477     8A    -11.243919     9A    -11.216183
      10A     -1.468657    11A     -1.384740    12A     -1.368657
      13A     -1.242827    14A     -1.063523    15A     -1.007195
      16A     -0.889445    17A     -0.825125    18A     -0.786001
      19A     -0.716360    20A     -0.713045    21A     -0.698356
      22A     -0.654352    23A     -0.644170    24A     -0.637150
      25A     -0.603983    26A     -0.599087    27A     -0.558888
      28A     -0.540782    29A     -0.525294    30A     -0.517129
      31A     -0.495408    32A     -0.491724    33A     -0.469199
      34A     -0.433074    35A     -0.409894

  @DF-RHF Final Energy:  -473.83973526982601

   => Energetics <=

    Nuclear Repulsion Energy =            458.2681793140149011
    One-Electron Energy =               -1557.0988514655043673
    Two-Electron Energy =                 624.9909368816635151
    Total Energy =                       -473.8397352698260647
  Basis Set: (AUG-CC-PVTZ AUX)
    Blend: AUG-CC-PVTZ-RI
    Molecular point group: c1

    Geometry (in Angstrom), charge = 0, multiplicity = 1:

       Center              X                  Y                   Z               Mass
    ------------   -----------------  -----------------  -----------------  -----------------
         O            1.082794618472    -1.258509037775     0.268462913002    15.994914619570
         O           -3.046265381528    -0.655945037775     0.356758913002    15.994914619570
         O           -1.721065381528     1.132444962225     0.853526913002    15.994914619570
         N            0.136024218472     0.332331862225    -1.049036586998    14.003074004430
         C            2.376548618472     0.735368962225    -0.181291086998    12.000000000000
         C            1.152833618472    -0.153664037775    -0.268026086998    12.000000000000
         C           -1.142280381528    -0.324365037775    -1.000095086998    12.000000000000
         C            3.488120618472     0.091555962225     0.630580913002    12.000000000000
         C           -1.958272381528     0.141184962225     0.186901913002    12.000000000000
         H            2.715840618472     0.961643962225    -1.198834086998     1.007825032230
         H            2.074120618472     1.693546962225     0.261234913002     1.007825032230
         H           -0.979644381528    -1.400976037775    -0.928674086998     1.007825032230
         H           -1.725024381528    -0.137091137775    -1.911127586998     1.007825032230
         H            0.113624618472     1.340195962225    -1.205934086998     1.007825032230
         H            3.787425618472    -0.857716037775     0.185020913002     1.007825032230
         H            4.359090618472     0.749238962225     0.674969913002     1.007825032230
         H            3.150123618472    -0.111860037775     1.646918913002     1.007825032230
         H           -3.547716381528    -0.278774037775     1.107566913002     1.007825032230

  Basis Set: AUG-CC-PVTZ
    Blend: AUG-CC-PVTZ
  Basis Set: (AUG-CC-PVTZ AUX)
    Blend: AUG-CC-PVTZ-JKFIT
	 Reference Energy          =    -473.8397352698260079 [Eh]
	 Singles Energy            =      -0.0000000000000000 [Eh]
	 Same-Spin Energy          =      -0.4667747126694736 [Eh]
	 Opposite-Spin Energy      =      -1.4576452535643032 [Eh]
	 Correlation Energy        =      -1.9244199662337769 [Eh]
	 Total Energy              =    -475.7641552360597643 [Eh]

	 ================> DF-SCS-MP2 Energies <==================
	-----------------------------------------------------------
	 SCS Same-Spin Scale       =       0.3333333333333333 [-]
	 SCS Opposite-Spin Scale   =       1.2000000000000000 [-]
	 SCS Same-Spin Energy      =      -0.1555915708898245 [Eh]
	 SCS Opposite-Spin Energy  =      -1.7491743042771637 [Eh]
	 SCS Correlation Energy    =      -1.9047658751669883 [Eh]
	 SCS Total Energy          =    -475.7445011449930234 [Eh]
	-----------------------------------------------------------

  Dipole Moment: [D]
     X:    -0.9908      Y:     1.9002      Z:    -1.7931     Total:     2.7942

*** Psi4 exiting successfully. Buy a developer a beer!
