                               Psi4 1.3.2 release

  ==> Input File <==

--------------------------------------------------------------------------
#psi4
#
memory 32 gb

molecule  {
0 1
  O        1.0830410    -1.2590340     0.2697030
  O       -3.0460190    -0.6564700     0.3579990
  O       -1.7208190     1.1319200     0.8547670
  N        0.1334480     0.3363350    -1.0591540
  C        2.3767950     0.7348440    -0.1800510
  C        1.1530800    -0.1541890    -0.2667860
  C       -1.1420340    -0.3248900    -0.9988550
  C        3.4883670     0.0910310     0.6318210
  C       -2.0149661     0.1628138     0.1376643
  H        2.7160870     0.9611190    -1.1975940
  H        2.0743670     1.6930220     0.2624750
  H       -0.9793980    -1.4015010    -0.9274340
  H       -1.7595176    -0.1105553    -1.8805675
  H        0.1138710     1.3396710    -1.2046940
  H        3.7876720    -0.8582410     0.1862610
  H        4.3593370     0.7487140     0.6762100
  H        3.1503700    -0.1123850     1.6481590
  H       -3.5474700    -0.2792990     1.1088070
units angstrom
no_reorient  #important for SAPT in psi4, default
symmetry c1  #important for SAPT in psi4, default
}

set PROPERTIES_ORIGIN ["COM"]
properties('MP2/aug-cc-pvtz', properties = ['dipole'])
--------------------------------------------------------------------------

    Molecular point group: c1
  Charge       = 0
  Multiplicity = 1
  Basis Set: AUG-CC-PVTZ
    Blend: AUG-CC-PVTZ
  Basis Set: (AUG-CC-PVTZ AUX)
    Blend: AUG-CC-PVTZ-JKFIT

    Orbital Energies [Eh]
    ---------------------

    Doubly Occupied:

       1A    -20.632771     2A    -20.557510     3A    -20.527996
       4A    -15.593479     5A    -11.399828     6A    -11.355869
       7A    -11.291620     8A    -11.243812     9A    -11.216040
      10A     -1.475600    11A     -1.384079    12A     -1.358366
      13A     -1.240906    14A     -1.063198    15A     -1.008563
      16A     -0.891100    17A     -0.829989    18A     -0.785823
      19A     -0.717287    20A     -0.714011    21A     -0.695734
      22A     -0.656487    23A     -0.646387    24A     -0.636968
      25A     -0.603450    26A     -0.595043    27A     -0.562855
      28A     -0.537990    29A     -0.525399    30A     -0.516961
      31A     -0.493870    32A     -0.484715    33A     -0.465109
      34A     -0.433607    35A     -0.409217

  @DF-RHF Final Energy:  -473.83517606121308

   => Energetics <=

    Nuclear Repulsion Energy =            457.6106644636040528
    One-Electron Energy =               -1555.7884091574062495
    Two-Electron Energy =                 624.3425686325890638
    Total Energy =                       -473.8351760612131329
  Basis Set: (AUG-CC-PVTZ AUX)
    Blend: AUG-CC-PVTZ-RI
    Molecular point group: c1

    Geometry (in Angstrom), charge = 0, multiplicity = 1:

       Center              X                  Y                   Z               Mass
    ------------   -----------------  -----------------  -----------------  -----------------
         O            1.088576915693    -1.261229396773     0.274072807239    15.994914619570
         O           -3.040483084307    -0.658665396773     0.362368807239    15.994914619570
         O           -1.715283084307     1.129724603227     0.859136807239    15.994914619570
         N            0.138983915693     0.334139603227    -1.054784192761    14.003074004430
         C            2.382330915693     0.732648603227    -0.175681192761    12.000000000000
         C            1.158615915693    -0.156384396773    -0.262416192761    12.000000000000
         C           -1.136498084307    -0.327085396773    -0.994485192761    12.000000000000
         C            3.493902915693     0.088835603227     0.636190807239    12.000000000000
         C           -2.009430184307     0.160618403227     0.142034107239    12.000000000000
         H            2.721622915693     0.958923603227    -1.193224192761     1.007825032230
         H            2.079902915693     1.690826603227     0.266844807239     1.007825032230
         H           -0.973862084307    -1.403696396773    -0.923064192761     1.007825032230
         H           -1.753981684307    -0.112750696773    -1.876197692761     1.007825032230
         H            0.119406915693     1.337475603227    -1.200324192761     1.007825032230
         H            3.793207915693    -0.860436396773     0.190630807239     1.007825032230
         H            4.364872915693     0.746518603227     0.680579807239     1.007825032230
         H            3.155905915693    -0.114580396773     1.652528807239     1.007825032230
         H           -3.541934084307    -0.281494396773     1.113176807239     1.007825032230

  Basis Set: AUG-CC-PVTZ
    Blend: AUG-CC-PVTZ
  Basis Set: (AUG-CC-PVTZ AUX)
    Blend: AUG-CC-PVTZ-JKFIT
	 Reference Energy          =    -473.8351760612130761 [Eh]
	 Singles Energy            =      -0.0000000000000000 [Eh]
	 Same-Spin Energy          =      -0.4671164845931733 [Eh]
	 Opposite-Spin Energy      =      -1.4582016587024960 [Eh]
	 Correlation Energy        =      -1.9253181432956694 [Eh]
	 Total Energy              =    -475.7604942045087455 [Eh]

	 ================> DF-SCS-MP2 Energies <==================
	-----------------------------------------------------------
	 SCS Same-Spin Scale       =       0.3333333333333333 [-]
	 SCS Opposite-Spin Scale   =       1.2000000000000000 [-]
	 SCS Same-Spin Energy      =      -0.1557054948643911 [Eh]
	 SCS Opposite-Spin Energy  =      -1.7498419904429952 [Eh]
	 SCS Correlation Energy    =      -1.9055474853073862 [Eh]
	 SCS Total Energy          =    -475.7407235465204849 [Eh]
	-----------------------------------------------------------

  Dipole Moment: [D]
     X:    -1.1350      Y:     1.7697      Z:    -1.7854     Total:     2.7582

*** Psi4 exiting successfully. Buy a developer a beer!
