                               Psi4 1.3.2 release

  ==> Input File <==

--------------------------------------------------------------------------
#psi4
#
memory 32 gb

molecule  {
0 1
  O        1.0830410    -1.2590340     0.2697030
  O       -3.0460190    -0.6564700     0.3579990
  O       -1.7292804     1.1298037     0.8608400
  N        0.1334480     0.3363350    -1.0591540
  C        2.3767950     0.7348440    -0.1800510
  C        1.1530800    -0.1541890    -0.2667860
  C       -1.1502069    -0.3351569    -1.0003731
  C        3.4883670     0.0910310     0.6318210
  C       -1.9580260     0.1406600     0.1881420
  H        2.7160870     0.9611190    -1.1975940
  H        2.0743670     1.6930220     0.2624750
  H       -0.9793980    -1.4015010    -0.9274340
  H       -1.7176060    -0.1322810    -1.9133280
  H        0.1138710     1.3396710    -1.2046940
  H        3.7876720    -0.8582410     0.1862610
  H        4.3593370     0.7487140     0.6762100
  H        3.1503700    -0.1123850     1.6481590
  H       -3.5474700    -0.2792990     1.1088070
units angstrom
no_reorient  #important for SAPT in psi4, default
symmetry c1  #important for SAPT in psi4, default
}

set PROPERTIES_ORIGIN ["COM"]
properties('MP2/aug-cc-pvtz', properties = ['dipole'])
--------------------------------------------------------------------------

    Molecular point group: c1
  Charge       = 0
  Multiplicity = 1
  Basis Set: AUG-CC-PVTZ
    Blend: AUG-CC-PVTZ
  Basis Set: (AUG-CC-PVTZ AUX)
    Blend: AUG-CC-PVTZ-JKFIT

    Orbital Energies [Eh]
    ---------------------

    Doubly Occupied:

       1A    -20.624676     2A    -20.563447     3A    -20.528466
       4A    -15.592874     5A    -11.399491     6A    -11.355828
       7A    -11.291671     8A    -11.244077     9A    -11.216379
      10A     -1.468795    11A     -1.384353    12A     -1.368154
      13A     -1.239429    14A     -1.063373    15A     -1.007348
      16A     -0.889152    17A     -0.824718    18A     -0.785207
      19A     -0.716015    20A     -0.712304    21A     -0.698380
      22A     -0.651726    23A     -0.644472    24A     -0.636855
      25A     -0.604023    26A     -0.599148    27A     -0.563055
      28A     -0.540587    29A     -0.525015    30A     -0.517299
      31A     -0.495447    32A     -0.491727    33A     -0.469835
      34A     -0.433628    35A     -0.410289

  @DF-RHF Final Energy:  -473.83962014708487

   => Energetics <=

    Nuclear Repulsion Energy =            457.7782643304722114
    One-Electron Energy =               -1556.1212793355844042
    Two-Electron Energy =                 624.5033948580273773
    Total Energy =                       -473.8396201470848155
  Basis Set: (AUG-CC-PVTZ AUX)
    Blend: AUG-CC-PVTZ-RI
    Molecular point group: c1

    Geometry (in Angstrom), charge = 0, multiplicity = 1:

       Center              X                  Y                   Z               Mass
    ------------   -----------------  -----------------  -----------------  -----------------
         O            1.084822046277    -1.257835530570     0.269100701335    15.994914619570
         O           -3.044237953723    -0.655271530570     0.357396701335    15.994914619570
         O           -1.727499353723     1.131002169430     0.860237701335    15.994914619570
         N            0.135229046277     0.337533469430    -1.059756298665    14.003074004430
         C            2.378576046277     0.736042469430    -0.180653298665    12.000000000000
         C            1.154861046277    -0.152990530570    -0.267388298665    12.000000000000
         C           -1.148425853723    -0.333958430570    -1.000975398665    12.000000000000
         C            3.490148046277     0.092229469430     0.631218701335    12.000000000000
         C           -1.956244953723     0.141858469430     0.187539701335    12.000000000000
         H            2.717868046277     0.962317469430    -1.198196298665     1.007825032230
         H            2.076148046277     1.694220469430     0.261872701335     1.007825032230
         H           -0.977616953723    -1.400302530570    -0.928036298665     1.007825032230
         H           -1.715824953723    -0.131082530570    -1.913930298665     1.007825032230
         H            0.115652046277     1.340869469430    -1.205296298665     1.007825032230
         H            3.789453046277    -0.857042530570     0.185658701335     1.007825032230
         H            4.361118046277     0.749912469430     0.675607701335     1.007825032230
         H            3.152151046277    -0.111186530570     1.647556701335     1.007825032230
         H           -3.545688953723    -0.278100530570     1.108204701335     1.007825032230

  Basis Set: AUG-CC-PVTZ
    Blend: AUG-CC-PVTZ
  Basis Set: (AUG-CC-PVTZ AUX)
    Blend: AUG-CC-PVTZ-JKFIT
	 Reference Energy          =    -473.8396201470848723 [Eh]
	 Singles Energy            =      -0.0000000000000000 [Eh]
	 Same-Spin Energy          =      -0.4666507922746738 [Eh]
	 Opposite-Spin Energy      =      -1.4577179990921620 [Eh]
	 Correlation Energy        =      -1.9243687913668359 [Eh]
	 Total Energy              =    -475.7639889384516891 [Eh]

	 ================> DF-SCS-MP2 Energies <==================
	-----------------------------------------------------------
	 SCS Same-Spin Scale       =       0.3333333333333333 [-]
	 SCS Opposite-Spin Scale   =       1.2000000000000000 [-]
	 SCS Same-Spin Energy      =      -0.1555502640915579 [Eh]
	 SCS Opposite-Spin Energy  =      -1.7492615989105944 [Eh]
	 SCS Correlation Energy    =      -1.9048118630021524 [Eh]
	 SCS Total Energy          =    -475.7444320100870527 [Eh]
	-----------------------------------------------------------

  Dipole Moment: [D]
     X:    -0.9586      Y:     1.8756      Z:    -1.7657     Total:     2.7485

*** Psi4 exiting successfully. Buy a developer a beer!
