                               Psi4 1.3.2 release

  ==> Input File <==

--------------------------------------------------------------------------
#psi4
#
memory 32 gb

molecule  {
0 1
  O        1.0830410    -1.2590340     0.2697030
  O       -3.0460190    -0.6564700     0.3579990
  O       -1.7208190     1.1319200     0.8547670
  N        0.0952252     0.2769981    -1.0434012
  C        2.4099360     0.6810142    -0.1321396
  C        1.1530800    -0.1541890    -0.2667860
  C       -1.1420340    -0.3248900    -0.9988550
  C        3.4883670     0.0910310     0.6318210
  C       -1.9580260     0.1406600     0.1881420
  H        2.7160870     0.9611190    -1.1975940
  H        2.0743670     1.6930220     0.2624750
  H       -0.9793980    -1.4015010    -0.9274340
  H       -1.7176060    -0.1322810    -1.9133280
  H        0.1138710     1.3396710    -1.2046940
  H        3.7876720    -0.8582410     0.1862610
  H        4.3593370     0.7487140     0.6762100
  H        3.1503700    -0.1123850     1.6481590
  H       -3.5474700    -0.2792990     1.1088070
units angstrom
no_reorient  #important for SAPT in psi4, default
symmetry c1  #important for SAPT in psi4, default
}

set PROPERTIES_ORIGIN ["COM"]
properties('MP2/aug-cc-pvtz', properties = ['dipole'])
--------------------------------------------------------------------------

    Molecular point group: c1
  Charge       = 0
  Multiplicity = 1
  Basis Set: AUG-CC-PVTZ
    Blend: AUG-CC-PVTZ
  Basis Set: (AUG-CC-PVTZ AUX)
    Blend: AUG-CC-PVTZ-JKFIT

    Orbital Energies [Eh]
    ---------------------

    Doubly Occupied:

       1A    -20.623931     2A    -20.562044     3A    -20.524223
       4A    -15.595650     5A    -11.396359     6A    -11.355924
       7A    -11.286738     8A    -11.253052     9A    -11.215557
      10A     -1.467253    11A     -1.386350    12A     -1.367472
      13A     -1.248406    14A     -1.074388    15A     -1.008558
      16A     -0.891834    17A     -0.827327    18A     -0.771495
      19A     -0.715843    20A     -0.715475    21A     -0.699770
      22A     -0.662823    23A     -0.641595    24A     -0.634662
      25A     -0.604854    26A     -0.601183    27A     -0.557109
      28A     -0.547737    29A     -0.538646    30A     -0.515592
      31A     -0.492047    32A     -0.480102    33A     -0.468118
      34A     -0.431117    35A     -0.404906

  @DF-RHF Final Energy:  -473.82309467274712

   => Energetics <=

    Nuclear Repulsion Energy =            459.3522367275780880
    One-Electron Energy =               -1559.2143715149850323
    Two-Electron Energy =                 626.0390401146596560
    Total Energy =                       -473.8230946727471746
  Basis Set: (AUG-CC-PVTZ AUX)
    Blend: AUG-CC-PVTZ-RI
    Molecular point group: c1

    Geometry (in Angstrom), charge = 0, multiplicity = 1:

       Center              X                  Y                   Z               Mass
    ------------   -----------------  -----------------  -----------------  -----------------
         O            1.084090543464    -1.247765170001     0.263632868939    15.994914619570
         O           -3.044969456536    -0.645201170001     0.351928868939    15.994914619570
         O           -1.719769456536     1.143188829999     0.848696868939    15.994914619570
         N            0.096274743464     0.288266929999    -1.049471331061    14.003074004430
         C            2.410985543464     0.692283029999    -0.138209731061    12.000000000000
         C            1.154129543464    -0.142920170001    -0.272856131061    12.000000000000
         C           -1.140984456536    -0.313621170001    -1.004925131061    12.000000000000
         C            3.489416543464     0.102299829999     0.625750868939    12.000000000000
         C           -1.956976456536     0.151928829999     0.182071868939    12.000000000000
         H            2.717136543464     0.972387829999    -1.203664131061     1.007825032230
         H            2.075416543464     1.704290829999     0.256404868939     1.007825032230
         H           -0.978348456536    -1.390232170001    -0.933504131061     1.007825032230
         H           -1.716556456536    -0.121012170001    -1.919398131061     1.007825032230
         H            0.114920543464     1.350939829999    -1.210764131061     1.007825032230
         H            3.788721543464    -0.846972170001     0.180190868939     1.007825032230
         H            4.360386543464     0.759982829999     0.670139868939     1.007825032230
         H            3.151419543464    -0.101116170001     1.642088868939     1.007825032230
         H           -3.546420456536    -0.268030170001     1.102736868939     1.007825032230

  Basis Set: AUG-CC-PVTZ
    Blend: AUG-CC-PVTZ
  Basis Set: (AUG-CC-PVTZ AUX)
    Blend: AUG-CC-PVTZ-JKFIT
	 Reference Energy          =    -473.8230946727471178 [Eh]
	 Singles Energy            =      -0.0000000000000000 [Eh]
	 Same-Spin Energy          =      -0.4680831596720630 [Eh]
	 Opposite-Spin Energy      =      -1.4592529375058514 [Eh]
	 Correlation Energy        =      -1.9273360971779145 [Eh]
	 Total Energy              =    -475.7504307699250603 [Eh]

	 ================> DF-SCS-MP2 Energies <==================
	-----------------------------------------------------------
	 SCS Same-Spin Scale       =       0.3333333333333333 [-]
	 SCS Opposite-Spin Scale   =       1.2000000000000000 [-]
	 SCS Same-Spin Energy      =      -0.1560277198906877 [Eh]
	 SCS Opposite-Spin Energy  =      -1.7511035250070217 [Eh]
	 SCS Correlation Energy    =      -1.9071312448977094 [Eh]
	 SCS Total Energy          =    -475.7302259176448160 [Eh]
	-----------------------------------------------------------

  Dipole Moment: [D]
     X:    -0.7431      Y:     1.9494      Z:    -1.7443     Total:     2.7194

*** Psi4 exiting successfully. Buy a developer a beer!
