                               Psi4 1.3.2 release

  ==> Input File <==

--------------------------------------------------------------------------
#psi4
#
memory 32 gb

molecule  {
0 1
  O        1.0830410    -1.2590340     0.2697030
  O       -3.0460190    -0.6564700     0.3579990
  O       -1.7208190     1.1319200     0.8547670
  N        0.1334480     0.3363350    -1.0591540
  C        2.3767950     0.7348440    -0.1800510
  C        1.3007090    -0.2252103    -0.1520618
  C       -1.1420340    -0.3248900    -0.9988550
  C        3.4883670     0.0910310     0.6318210
  C       -1.9580260     0.1406600     0.1881420
  H        2.7160870     0.9611190    -1.1975940
  H        2.0743670     1.6930220     0.2624750
  H       -0.9793980    -1.4015010    -0.9274340
  H       -1.7176060    -0.1322810    -1.9133280
  H        0.1138710     1.3396710    -1.2046940
  H        3.7876720    -0.8582410     0.1862610
  H        4.3593370     0.7487140     0.6762100
  H        3.1503700    -0.1123850     1.6481590
  H       -3.5474700    -0.2792990     1.1088070
units angstrom
no_reorient  #important for SAPT in psi4, default
symmetry c1  #important for SAPT in psi4, default
}

set PROPERTIES_ORIGIN ["COM"]
properties('MP2/aug-cc-pvtz', properties = ['dipole'])
--------------------------------------------------------------------------

    Molecular point group: c1
  Charge       = 0
  Multiplicity = 1
  Basis Set: AUG-CC-PVTZ
    Blend: AUG-CC-PVTZ
  Basis Set: (AUG-CC-PVTZ AUX)
    Blend: AUG-CC-PVTZ-JKFIT

    Orbital Energies [Eh]
    ---------------------

    Doubly Occupied:

       1A    -20.615563     2A    -20.563731     3A    -20.551176
       4A    -15.551264     5A    -11.384491     6A    -11.365375
       7A    -11.271491     8A    -11.252408     9A    -11.227180
      10A     -1.462448    11A     -1.457243    12A     -1.357814
      13A     -1.186586    14A     -1.089016    15A     -0.976344
      16A     -0.898353    17A     -0.806337    18A     -0.758156
      19A     -0.722172    20A     -0.704009    21A     -0.690417
      22A     -0.668140    23A     -0.658497    24A     -0.637858
      25A     -0.605747    26A     -0.590803    27A     -0.564567
      28A     -0.545354    29A     -0.539393    30A     -0.530524
      31A     -0.512001    32A     -0.482544    33A     -0.459142
      34A     -0.434869    35A     -0.380770

  @DF-RHF Final Energy:  -473.80238181372647

   => Energetics <=

    Nuclear Repulsion Energy =            457.6237366507054389
    One-Electron Energy =               -1555.8486725355289764
    Two-Electron Energy =                 624.4225540710970108
    Total Energy =                       -473.8023818137264698
  Basis Set: (AUG-CC-PVTZ AUX)
    Blend: AUG-CC-PVTZ-RI
    Molecular point group: c1

    Geometry (in Angstrom), charge = 0, multiplicity = 1:

       Center              X                  Y                   Z               Mass
    ------------   -----------------  -----------------  -----------------  -----------------
         O            1.069523793207    -1.252530997673     0.259198459002    15.994914619570
         O           -3.059536206793    -0.649966997673     0.347494459002    15.994914619570
         O           -1.734336206793     1.138423002327     0.844262459002    15.994914619570
         N            0.119930793207     0.342838002327    -1.069658540998    14.003074004430
         C            2.363277793207     0.741347002327    -0.190555540998    12.000000000000
         C            1.287191793207    -0.218707297673    -0.162566340998    12.000000000000
         C           -1.155551206793    -0.318386997673    -1.009359540998    12.000000000000
         C            3.474849793207     0.097534002327     0.621316459002    12.000000000000
         C           -1.971543206793     0.147163002327     0.177637459002    12.000000000000
         H            2.702569793207     0.967622002327    -1.208098540998     1.007825032230
         H            2.060849793207     1.699525002327     0.251970459002     1.007825032230
         H           -0.992915206793    -1.394997997673    -0.937938540998     1.007825032230
         H           -1.731123206793    -0.125777997673    -1.923832540998     1.007825032230
         H            0.100353793207     1.346174002327    -1.215198540998     1.007825032230
         H            3.774154793207    -0.851737997673     0.175756459002     1.007825032230
         H            4.345819793207     0.755217002327     0.665705459002     1.007825032230
         H            3.136852793207    -0.105881997673     1.637654459002     1.007825032230
         H           -3.560987206793    -0.272795997673     1.098302459002     1.007825032230

  Basis Set: AUG-CC-PVTZ
    Blend: AUG-CC-PVTZ
  Basis Set: (AUG-CC-PVTZ AUX)
    Blend: AUG-CC-PVTZ-JKFIT
	 Reference Energy          =    -473.8023818137264698 [Eh]
	 Singles Energy            =      -0.0000000000000000 [Eh]
	 Same-Spin Energy          =      -0.4664926792680687 [Eh]
	 Opposite-Spin Energy      =      -1.4573918361250344 [Eh]
	 Correlation Energy        =      -1.9238845153931030 [Eh]
	 Total Energy              =    -475.7262663291195963 [Eh]

	 ================> DF-SCS-MP2 Energies <==================
	-----------------------------------------------------------
	 SCS Same-Spin Scale       =       0.3333333333333333 [-]
	 SCS Opposite-Spin Scale   =       1.2000000000000000 [-]
	 SCS Same-Spin Energy      =      -0.1554975597560229 [Eh]
	 SCS Opposite-Spin Energy  =      -1.7488702033500412 [Eh]
	 SCS Correlation Energy    =      -1.9043677631060640 [Eh]
	 SCS Total Energy          =    -475.7067495768325216 [Eh]
	-----------------------------------------------------------

  Dipole Moment: [D]
     X:     0.6002      Y:     1.2825      Z:    -0.8369     Total:     1.6449

*** Psi4 exiting successfully. Buy a developer a beer!
