                               Psi4 1.3.2 release

  ==> Input File <==

--------------------------------------------------------------------------
#psi4
#
memory 32 gb

molecule  {
0 1
  O        1.0631206    -1.2612945     0.2620175
  O       -3.0460190    -0.6564700     0.3579990
  O       -1.7208190     1.1319200     0.8547670
  N        0.1334480     0.3363350    -1.0591540
  C        2.3644161     0.7529328    -0.1948413
  C        1.1530800    -0.1541890    -0.2667860
  C       -1.1420340    -0.3248900    -0.9988550
  C        3.4883670     0.0910310     0.6318210
  C       -1.9580260     0.1406600     0.1881420
  H        2.7160870     0.9611190    -1.1975940
  H        2.0743670     1.6930220     0.2624750
  H       -0.9793980    -1.4015010    -0.9274340
  H       -1.7176060    -0.1322810    -1.9133280
  H        0.1138710     1.3396710    -1.2046940
  H        3.7876720    -0.8582410     0.1862610
  H        4.3593370     0.7487140     0.6762100
  H        3.1503700    -0.1123850     1.6481590
  H       -3.5474700    -0.2792990     1.1088070
units angstrom
no_reorient  #important for SAPT in psi4, default
symmetry c1  #important for SAPT in psi4, default
}

set PROPERTIES_ORIGIN ["COM"]
properties('MP2/aug-cc-pvtz', properties = ['dipole'])
--------------------------------------------------------------------------

    Molecular point group: c1
  Charge       = 0
  Multiplicity = 1
  Basis Set: AUG-CC-PVTZ
    Blend: AUG-CC-PVTZ
  Basis Set: (AUG-CC-PVTZ AUX)
    Blend: AUG-CC-PVTZ-JKFIT

    Orbital Energies [Eh]
    ---------------------

    Doubly Occupied:

       1A    -20.625036     2A    -20.562416     3A    -20.529250
       4A    -15.591305     5A    -11.398436     6A    -11.356403
       7A    -11.289777     8A    -11.244090     9A    -11.218306
      10A     -1.468051    11A     -1.385354    12A     -1.368132
      13A     -1.240556    14A     -1.062353    15A     -1.004304
      16A     -0.890034    17A     -0.824817    18A     -0.785246
      19A     -0.715701    20A     -0.713322    21A     -0.698446
      22A     -0.652406    23A     -0.644246    24A     -0.639089
      25A     -0.604037    26A     -0.599072    27A     -0.558409
      28A     -0.540301    29A     -0.523092    30A     -0.514183
      31A     -0.500392    32A     -0.491964    33A     -0.468849
      34A     -0.435096    35A     -0.409404

  @DF-RHF Final Energy:  -473.83906375277024

   => Energetics <=

    Nuclear Repulsion Energy =            458.0322618062937181
    One-Electron Energy =               -1556.6388972975166780
    Two-Electron Energy =                 624.7675717384527161
    Total Energy =                       -473.8390637527702438
  Basis Set: (AUG-CC-PVTZ AUX)
    Blend: AUG-CC-PVTZ-RI
    Molecular point group: c1

    Geometry (in Angstrom), charge = 0, multiplicity = 1:

       Center              X                  Y                   Z               Mass
    ------------   -----------------  -----------------  -----------------  -----------------
         O            1.066685263400    -1.262674746148     0.264309581907    15.994914619570
         O           -3.042454336600    -0.657850246148     0.360291081907    15.994914619570
         O           -1.717254336600     1.130539753852     0.857059081907    15.994914619570
         N            0.137012663400     0.334954753852    -1.056861918093    14.003074004430
         C            2.367980763400     0.751552553852    -0.192549218093    12.000000000000
         C            1.156644663400    -0.155569246148    -0.264493918093    12.000000000000
         C           -1.138469336600    -0.326270246148    -0.996562918093    12.000000000000
         C            3.491931663400     0.089650753852     0.634113081907    12.000000000000
         C           -1.954461336600     0.139279753852     0.190434081907    12.000000000000
         H            2.719651663400     0.959738753852    -1.195301918093     1.007825032230
         H            2.077931663400     1.691641753852     0.264767081907     1.007825032230
         H           -0.975833336600    -1.402881246148    -0.925141918093     1.007825032230
         H           -1.714041336600    -0.133661246148    -1.911035918093     1.007825032230
         H            0.117435663400     1.338290753852    -1.202401918093     1.007825032230
         H            3.791236663400    -0.859621246148     0.188553081907     1.007825032230
         H            4.362901663400     0.747333753852     0.678502081907     1.007825032230
         H            3.153934663400    -0.113765246148     1.650451081907     1.007825032230
         H           -3.543905336600    -0.280679246148     1.111099081907     1.007825032230

  Basis Set: AUG-CC-PVTZ
    Blend: AUG-CC-PVTZ
  Basis Set: (AUG-CC-PVTZ AUX)
    Blend: AUG-CC-PVTZ-JKFIT
	 Reference Energy          =    -473.8390637527702438 [Eh]
	 Singles Energy            =      -0.0000000000000000 [Eh]
	 Same-Spin Energy          =      -0.4666710712802503 [Eh]
	 Opposite-Spin Energy      =      -1.4577382644186783 [Eh]
	 Correlation Energy        =      -1.9244093356989285 [Eh]
	 Total Energy              =    -475.7634730884691976 [Eh]

	 ================> DF-SCS-MP2 Energies <==================
	-----------------------------------------------------------
	 SCS Same-Spin Scale       =       0.3333333333333333 [-]
	 SCS Opposite-Spin Scale   =       1.2000000000000000 [-]
	 SCS Same-Spin Energy      =      -0.1555570237600834 [Eh]
	 SCS Opposite-Spin Energy  =      -1.7492859173024138 [Eh]
	 SCS Correlation Energy    =      -1.9048429410624972 [Eh]
	 SCS Total Energy          =    -475.7439066938327414 [Eh]
	-----------------------------------------------------------

  Dipole Moment: [D]
     X:    -0.8895      Y:     1.8859      Z:    -1.7324     Total:     2.7109

*** Psi4 exiting successfully. Buy a developer a beer!
