                               Psi4 1.3.2 release

  ==> Input File <==

--------------------------------------------------------------------------
#psi4
#
memory 32 gb

molecule  {
0 1
  O        1.0830410    -1.2590340     0.2697030
  O       -3.0248130    -0.6942661     0.3015456
  O       -1.7208190     1.1319200     0.8547670
  N        0.1334480     0.3363350    -1.0591540
  C        2.3767950     0.7348440    -0.1800510
  C        1.1530800    -0.1541890    -0.2667860
  C       -1.1949083    -0.3829019    -1.0098045
  C        3.4883670     0.0910310     0.6318210
  C       -1.9580260     0.1406600     0.1881420
  H        2.7160870     0.9611190    -1.1975940
  H        2.0743670     1.6930220     0.2624750
  H       -0.9793980    -1.4015010    -0.9274340
  H       -1.7176060    -0.1322810    -1.9133280
  H        0.1138710     1.3396710    -1.2046940
  H        3.7876720    -0.8582410     0.1862610
  H        4.3593370     0.7487140     0.6762100
  H        3.1503700    -0.1123850     1.6481590
  H       -3.5474700    -0.2792990     1.1088070
units angstrom
no_reorient  #important for SAPT in psi4, default
symmetry c1  #important for SAPT in psi4, default
}

set PROPERTIES_ORIGIN ["COM"]
properties('MP2/aug-cc-pvtz', properties = ['dipole'])
--------------------------------------------------------------------------

    Molecular point group: c1
  Charge       = 0
  Multiplicity = 1
  Basis Set: AUG-CC-PVTZ
    Blend: AUG-CC-PVTZ
  Basis Set: (AUG-CC-PVTZ AUX)
    Blend: AUG-CC-PVTZ-JKFIT

    Orbital Energies [Eh]
    ---------------------

    Doubly Occupied:

       1A    -20.634696     2A    -20.570316     3A    -20.524378
       4A    -15.588376     5A    -11.403111     6A    -11.351856
       7A    -11.289570     8A    -11.241491     9A    -11.214547
      10A     -1.465442    11A     -1.379507    12A     -1.370758
      13A     -1.223780    14A     -1.060369    15A     -1.008221
      16A     -0.883436    17A     -0.814746    18A     -0.779211
      19A     -0.717151    20A     -0.705461    21A     -0.697893
      22A     -0.653240    23A     -0.637464    24A     -0.631988
      25A     -0.604114    26A     -0.592812    27A     -0.574851
      28A     -0.538448    29A     -0.520648    30A     -0.515080
      31A     -0.498840    32A     -0.491635    33A     -0.472637
      34A     -0.428766    35A     -0.406083

  @DF-RHF Final Energy:  -473.82191880680227

   => Energetics <=

    Nuclear Repulsion Energy =            457.0239986884552650
    One-Electron Energy =               -1554.7099824195208839
    Two-Electron Energy =                 623.8640649242632890
    Total Energy =                       -473.8219188068022731
  Basis Set: (AUG-CC-PVTZ AUX)
    Blend: AUG-CC-PVTZ-RI
    Molecular point group: c1

    Geometry (in Angstrom), charge = 0, multiplicity = 1:

       Center              X                  Y                   Z               Mass
    ------------   -----------------  -----------------  -----------------  -----------------
         O            1.085294273498    -1.249109369383     0.277595254617    15.994914619570
         O           -3.022559726502    -0.684341469383     0.309437854617    15.994914619570
         O           -1.718565726502     1.141844630617     0.862659254617    15.994914619570
         N            0.135701273498     0.346259630617    -1.051261745383    14.003074004430
         C            2.379048273498     0.744768630617    -0.172158745383    12.000000000000
         C            1.155333273498    -0.144264369383    -0.258893745383    12.000000000000
         C           -1.192655026502    -0.372977269383    -1.001912245383    12.000000000000
         C            3.490620273498     0.100955630617     0.639713254617    12.000000000000
         C           -1.955772726502     0.150584630617     0.196034254617    12.000000000000
         H            2.718340273498     0.971043630617    -1.189701745383     1.007825032230
         H            2.076620273498     1.702946630617     0.270367254617     1.007825032230
         H           -0.977144726502    -1.391576369383    -0.919541745383     1.007825032230
         H           -1.715352726502    -0.122356369383    -1.905435745383     1.007825032230
         H            0.116124273498     1.349595630617    -1.196801745383     1.007825032230
         H            3.789925273498    -0.848316369383     0.194153254617     1.007825032230
         H            4.361590273498     0.758638630617     0.684102254617     1.007825032230
         H            3.152623273498    -0.102460369383     1.656051254617     1.007825032230
         H           -3.545216726502    -0.269374369383     1.116699254617     1.007825032230

  Basis Set: AUG-CC-PVTZ
    Blend: AUG-CC-PVTZ
  Basis Set: (AUG-CC-PVTZ AUX)
    Blend: AUG-CC-PVTZ-JKFIT
	 Reference Energy          =    -473.8219188068022731 [Eh]
	 Singles Energy            =      -0.0000000000000000 [Eh]
	 Same-Spin Energy          =      -0.4680449327212178 [Eh]
	 Opposite-Spin Energy      =      -1.4615617427621908 [Eh]
	 Correlation Energy        =      -1.9296066754834085 [Eh]
	 Total Energy              =    -475.7515254822856718 [Eh]

	 ================> DF-SCS-MP2 Energies <==================
	-----------------------------------------------------------
	 SCS Same-Spin Scale       =       0.3333333333333333 [-]
	 SCS Opposite-Spin Scale   =       1.2000000000000000 [-]
	 SCS Same-Spin Energy      =      -0.1560149775737393 [Eh]
	 SCS Opposite-Spin Energy  =      -1.7538740913146289 [Eh]
	 SCS Correlation Energy    =      -1.9098890688883681 [Eh]
	 SCS Total Energy          =    -475.7318078756906630 [Eh]
	-----------------------------------------------------------

  Dipole Moment: [D]
     X:    -1.2893      Y:     1.8958      Z:    -1.6505     Total:     2.8250

*** Psi4 exiting successfully. Buy a developer a beer!
