                               Psi4 1.3.2 release

  ==> Input File <==

--------------------------------------------------------------------------
#psi4
#
memory 32 gb

molecule  {
0 1
  O        1.0830410    -1.2590340     0.2697030
  O       -3.0460190    -0.6564700     0.3579990
  O       -1.7208190     1.1319200     0.8547670
  N        0.1275116     0.3452398    -1.0818544
  C        2.3767950     0.7348440    -0.1800510
  C        1.1530800    -0.1541890    -0.2667860
  C       -1.1420340    -0.3248900    -0.9988550
  C        3.4883670     0.0910310     0.6318210
  C       -1.9580260     0.1406600     0.1881420
  H        2.7160870     0.9611190    -1.1975940
  H        2.0743670     1.6930220     0.2624750
  H       -0.9793980    -1.4015010    -0.9274340
  H       -1.7031311    -0.1216551    -1.9199999
  H        0.1138710     1.3396710    -1.2046940
  H        3.7876720    -0.8582410     0.1862610
  H        4.3593370     0.7487140     0.6762100
  H        3.1503700    -0.1123850     1.6481590
  H       -3.5474700    -0.2792990     1.1088070
units angstrom
no_reorient  #important for SAPT in psi4, default
symmetry c1  #important for SAPT in psi4, default
}

set PROPERTIES_ORIGIN ["COM"]
properties('MP2/aug-cc-pvtz', properties = ['dipole'])
--------------------------------------------------------------------------

    Molecular point group: c1
  Charge       = 0
  Multiplicity = 1
  Basis Set: AUG-CC-PVTZ
    Blend: AUG-CC-PVTZ
  Basis Set: (AUG-CC-PVTZ AUX)
    Blend: AUG-CC-PVTZ-JKFIT

    Orbital Energies [Eh]
    ---------------------

    Doubly Occupied:

       1A    -20.625378     2A    -20.562855     3A    -20.532788
       4A    -15.591195     5A    -11.398824     6A    -11.358841
       7A    -11.289882     8A    -11.244885     9A    -11.217097
      10A     -1.468366    11A     -1.385371    12A     -1.368550
      13A     -1.239994    14A     -1.063502    15A     -1.004107
      16A     -0.890198    17A     -0.824046    18A     -0.784742
      19A     -0.715742    20A     -0.713092    21A     -0.698346
      22A     -0.650666    23A     -0.644576    24A     -0.636717
      25A     -0.605346    26A     -0.600275    27A     -0.560840
      28A     -0.540073    29A     -0.525182    30A     -0.517943
      31A     -0.495762    32A     -0.491775    33A     -0.469540
      34A     -0.435904    35A     -0.410690

  @DF-RHF Final Energy:  -473.83873150551756

   => Energetics <=

    Nuclear Repulsion Energy =            457.5573228518308042
    One-Electron Energy =               -1555.6659313076211220
    Two-Electron Energy =                 624.2698769502727600
    Total Energy =                       -473.8387315055175577
  Basis Set: (AUG-CC-PVTZ AUX)
    Blend: AUG-CC-PVTZ-RI
    Molecular point group: c1

    Geometry (in Angstrom), charge = 0, multiplicity = 1:

       Center              X                  Y                   Z               Mass
    ------------   -----------------  -----------------  -----------------  -----------------
         O            1.083564021717    -1.260067030491     0.272179633234    15.994914619570
         O           -3.045495978283    -0.657503030491     0.360475633234    15.994914619570
         O           -1.720295978283     1.130886969509     0.857243633234    15.994914619570
         N            0.128034621717     0.344206769509    -1.079377766766    14.003074004430
         C            2.377318021717     0.733810969509    -0.177574366766    12.000000000000
         C            1.153603021717    -0.155222030491    -0.264309366766    12.000000000000
         C           -1.141510978283    -0.325923030491    -0.996378366766    12.000000000000
         C            3.488890021717     0.089997969509     0.634297633234    12.000000000000
         C           -1.957502978283     0.139626969509     0.190618633234    12.000000000000
         H            2.716610021717     0.960085969509    -1.195117366766     1.007825032230
         H            2.074890021717     1.691988969509     0.264951633234     1.007825032230
         H           -0.978874978283    -1.402534030491    -0.924957366766     1.007825032230
         H           -1.702608078283    -0.122688130491    -1.917523266766     1.007825032230
         H            0.114394021717     1.338637969509    -1.202217366766     1.007825032230
         H            3.788195021717    -0.859274030491     0.188737633234     1.007825032230
         H            4.359860021717     0.747680969509     0.678686633234     1.007825032230
         H            3.150893021717    -0.113418030491     1.650635633234     1.007825032230
         H           -3.546946978283    -0.280332030491     1.111283633234     1.007825032230

  Basis Set: AUG-CC-PVTZ
    Blend: AUG-CC-PVTZ
  Basis Set: (AUG-CC-PVTZ AUX)
    Blend: AUG-CC-PVTZ-JKFIT
	 Reference Energy          =    -473.8387315055175577 [Eh]
	 Singles Energy            =      -0.0000000000000000 [Eh]
	 Same-Spin Energy          =      -0.4666905446620344 [Eh]
	 Opposite-Spin Energy      =      -1.4579574035935181 [Eh]
	 Correlation Energy        =      -1.9246479482555525 [Eh]
	 Total Energy              =    -475.7633794537730978 [Eh]

	 ================> DF-SCS-MP2 Energies <==================
	-----------------------------------------------------------
	 SCS Same-Spin Scale       =       0.3333333333333333 [-]
	 SCS Opposite-Spin Scale   =       1.2000000000000000 [-]
	 SCS Same-Spin Energy      =      -0.1555635148873448 [Eh]
	 SCS Opposite-Spin Energy  =      -1.7495488843122218 [Eh]
	 SCS Correlation Energy    =      -1.9051123991995667 [Eh]
	 SCS Total Energy          =    -475.7438439047170959 [Eh]
	-----------------------------------------------------------

  Dipole Moment: [D]
     X:    -0.8680      Y:     1.8292      Z:    -1.6520     Total:     2.6131

*** Psi4 exiting successfully. Buy a developer a beer!
