                               Psi4 1.3.2 release

  ==> Input File <==

--------------------------------------------------------------------------
#psi4
#
memory 32 gb

molecule  {
0 1
  O        1.0830410    -1.2590340     0.2697030
  O       -3.0460190    -0.6564700     0.3579990
  O       -1.7208190     1.1319200     0.8547670
  N        0.1334480     0.3363350    -1.0591540
  C        2.3767950     0.7348440    -0.1800510
  C        1.2338505    -0.0955089    -0.2610611
  C       -1.1420340    -0.3248900    -0.9988550
  C        3.4883670     0.0910310     0.6318210
  C       -1.9580260     0.1406600     0.1881420
  H        2.7160870     0.9611190    -1.1975940
  H        2.0743670     1.6930220     0.2624750
  H       -0.9793980    -1.4015010    -0.9274340
  H       -1.7176060    -0.1322810    -1.9133280
  H        0.1138710     1.3396710    -1.2046940
  H        3.7876720    -0.8582410     0.1862610
  H        4.3593370     0.7487140     0.6762100
  H        3.1503700    -0.1123850     1.6481590
  H       -3.5474700    -0.2792990     1.1088070
units angstrom
no_reorient  #important for SAPT in psi4, default
symmetry c1  #important for SAPT in psi4, default
}

set PROPERTIES_ORIGIN ["COM"]
properties('MP2/aug-cc-pvtz', properties = ['dipole'])
--------------------------------------------------------------------------

    Molecular point group: c1
  Charge       = 0
  Multiplicity = 1
  Basis Set: AUG-CC-PVTZ
    Blend: AUG-CC-PVTZ
  Basis Set: (AUG-CC-PVTZ AUX)
    Blend: AUG-CC-PVTZ-JKFIT

    Orbital Energies [Eh]
    ---------------------

    Doubly Occupied:

       1A    -20.623088     2A    -20.559929     3A    -20.525838
       4A    -15.590188     5A    -11.396022     6A    -11.364930
       7A    -11.288725     8A    -11.248600     9A    -11.222775
      10A     -1.465842    11A     -1.367105    12A     -1.351756
      13A     -1.223144    14A     -1.087753    15A     -1.002674
      16A     -0.906309    17A     -0.823527    18A     -0.770193
      19A     -0.714443    20A     -0.712931    21A     -0.699450
      22A     -0.654466    23A     -0.646145    24A     -0.638997
      25A     -0.601045    26A     -0.593269    27A     -0.554343
      28A     -0.535321    29A     -0.529183    30A     -0.519612
      31A     -0.493537    32A     -0.488123    33A     -0.464570
      34A     -0.436916    35A     -0.400973

  @DF-RHF Final Energy:  -473.81921501861399

   => Energetics <=

    Nuclear Repulsion Energy =            457.2487832083480157
    One-Electron Energy =               -1555.1325518807041135
    Two-Electron Energy =                 624.0645536537421094
    Total Energy =                       -473.8192150186140452
  Basis Set: (AUG-CC-PVTZ AUX)
    Blend: AUG-CC-PVTZ-RI
    Molecular point group: c1

    Geometry (in Angstrom), charge = 0, multiplicity = 1:

       Center              X                  Y                   Z               Mass
    ------------   -----------------  -----------------  -----------------  -----------------
         O            1.075645514212    -1.264406761933     0.269178690451    15.994914619570
         O           -3.053414485788    -0.661842761933     0.357474690451    15.994914619570
         O           -1.728214485788     1.126547238067     0.854242690451    15.994914619570
         N            0.126052514212     0.330962238067    -1.059678309549    14.003074004430
         C            2.369399514212     0.729471238067    -0.180575309549    12.000000000000
         C            1.226455014212    -0.100881661933    -0.261585409549    12.000000000000
         C           -1.149429485788    -0.330262761933    -0.999379309549    12.000000000000
         C            3.480971514212     0.085658238067     0.631296690451    12.000000000000
         C           -1.965421485788     0.135287238067     0.187617690451    12.000000000000
         H            2.708691514212     0.955746238067    -1.198118309549     1.007825032230
         H            2.066971514212     1.687649238067     0.261950690451     1.007825032230
         H           -0.986793485788    -1.406873761933    -0.927958309549     1.007825032230
         H           -1.725001485788    -0.137653761933    -1.913852309549     1.007825032230
         H            0.106475514212     1.334298238067    -1.205218309549     1.007825032230
         H            3.780276514212    -0.863613761933     0.185736690451     1.007825032230
         H            4.351941514212     0.743341238067     0.675685690451     1.007825032230
         H            3.142974514212    -0.117757761933     1.647634690451     1.007825032230
         H           -3.554865485788    -0.284671761933     1.108282690451     1.007825032230

  Basis Set: AUG-CC-PVTZ
    Blend: AUG-CC-PVTZ
  Basis Set: (AUG-CC-PVTZ AUX)
    Blend: AUG-CC-PVTZ-JKFIT
	 Reference Energy          =    -473.8192150186139884 [Eh]
	 Singles Energy            =      -0.0000000000000000 [Eh]
	 Same-Spin Energy          =      -0.4689569375021998 [Eh]
	 Opposite-Spin Energy      =      -1.4619574888465094 [Eh]
	 Correlation Energy        =      -1.9309144263487092 [Eh]
	 Total Energy              =    -475.7501294449626812 [Eh]

	 ================> DF-SCS-MP2 Energies <==================
	-----------------------------------------------------------
	 SCS Same-Spin Scale       =       0.3333333333333333 [-]
	 SCS Opposite-Spin Scale   =       1.2000000000000000 [-]
	 SCS Same-Spin Energy      =      -0.1563189791673999 [Eh]
	 SCS Opposite-Spin Energy  =      -1.7543489866158113 [Eh]
	 SCS Correlation Energy    =      -1.9106679657832113 [Eh]
	 SCS Total Energy          =    -475.7298829843971930 [Eh]
	-----------------------------------------------------------

  Dipole Moment: [D]
     X:    -0.4672      Y:     2.0910      Z:    -1.6663     Total:     2.7143

*** Psi4 exiting successfully. Buy a developer a beer!
