                               Psi4 1.3.2 release

  ==> Input File <==

--------------------------------------------------------------------------
#psi4
#
memory 32 gb

molecule  {
0 1
  O        1.0830410    -1.2590340     0.2697030
  O       -3.0460190    -0.6564700     0.3579990
  O       -1.7208190     1.1319200     0.8547670
  N        0.1334480     0.3363350    -1.0591540
  C        2.3767950     0.7348440    -0.1800510
  C        1.1530800    -0.1541890    -0.2667860
  C       -1.1420340    -0.3248900    -0.9988550
  C        3.4883670     0.0910310     0.6318210
  C       -1.9969798    -0.0221234     0.0786697
  H        2.7160870     0.9611190    -1.1975940
  H        2.0743670     1.6930220     0.2624750
  H       -0.9793980    -1.4015010    -0.9274340
  H       -1.7176060    -0.1322810    -1.9133280
  H        0.1138710     1.3396710    -1.2046940
  H        3.7876720    -0.8582410     0.1862610
  H        4.3593370     0.7487140     0.6762100
  H        3.1503700    -0.1123850     1.6481590
  H       -3.5474700    -0.2792990     1.1088070
units angstrom
no_reorient  #important for SAPT in psi4, default
symmetry c1  #important for SAPT in psi4, default
}

set PROPERTIES_ORIGIN ["COM"]
properties('MP2/aug-cc-pvtz', properties = ['dipole'])
--------------------------------------------------------------------------

    Molecular point group: c1
  Charge       = 0
  Multiplicity = 1
  Basis Set: AUG-CC-PVTZ
    Blend: AUG-CC-PVTZ
  Basis Set: (AUG-CC-PVTZ AUX)
    Blend: AUG-CC-PVTZ-JKFIT

    Orbital Energies [Eh]
    ---------------------

    Doubly Occupied:

       1A    -20.657947     2A    -20.530085     3A    -20.523678
       4A    -15.597472     5A    -11.412190     6A    -11.357902
       7A    -11.297682     8A    -11.243819     9A    -11.215865
      10A     -1.514356    11A     -1.386186    12A     -1.269547
      13A     -1.232788    14A     -1.074035    15A     -1.036221
      16A     -0.906005    17A     -0.860741    18A     -0.790529
      19A     -0.735598    20A     -0.719566    21A     -0.705343
      22A     -0.669124    23A     -0.659512    24A     -0.635523
      25A     -0.606372    26A     -0.577955    27A     -0.550930
      28A     -0.527509    29A     -0.520048    30A     -0.516623
      31A     -0.492980    32A     -0.440971    33A     -0.431157
      34A     -0.425484    35A     -0.415309

  @DF-RHF Final Energy:  -473.77448723060894

   => Energetics <=

    Nuclear Repulsion Energy =            457.6450874599602230
    One-Electron Energy =               -1555.7650462219653491
    Two-Electron Energy =                 624.3454715313961287
    Total Energy =                       -473.7744872306089974
  Basis Set: (AUG-CC-PVTZ AUX)
    Blend: AUG-CC-PVTZ-RI
    Molecular point group: c1

    Geometry (in Angstrom), charge = 0, multiplicity = 1:

       Center              X                  Y                   Z               Mass
    ------------   -----------------  -----------------  -----------------  -----------------
         O            1.086607751806    -1.244129044667     0.279726416155    15.994914619570
         O           -3.042452248194    -0.641565044667     0.368022416155    15.994914619570
         O           -1.717252248194     1.146824955333     0.864790416155    15.994914619570
         N            0.137014751806     0.351239955333    -1.049130583845    14.003074004430
         C            2.380361751806     0.749748955333    -0.170027583845    12.000000000000
         C            1.156646751806    -0.139284044667    -0.256762583845    12.000000000000
         C           -1.138467248194    -0.309985044667    -0.988831583845    12.000000000000
         C            3.491933751806     0.105935955333     0.641844416155    12.000000000000
         C           -1.993413048194    -0.007218444667     0.088693116155    12.000000000000
         H            2.719653751806     0.976023955333    -1.187570583845     1.007825032230
         H            2.077933751806     1.707926955333     0.272498416155     1.007825032230
         H           -0.975831248194    -1.386596044667    -0.917410583845     1.007825032230
         H           -1.714039248194    -0.117376044667    -1.903304583845     1.007825032230
         H            0.117437751806     1.354575955333    -1.194670583845     1.007825032230
         H            3.791238751806    -0.843336044667     0.196284416155     1.007825032230
         H            4.362903751806     0.763618955333     0.686233416155     1.007825032230
         H            3.153936751806    -0.097480044667     1.658182416155     1.007825032230
         H           -3.543903248194    -0.264394044667     1.118830416155     1.007825032230

  Basis Set: AUG-CC-PVTZ
    Blend: AUG-CC-PVTZ
  Basis Set: (AUG-CC-PVTZ AUX)
    Blend: AUG-CC-PVTZ-JKFIT
	 Reference Energy          =    -473.7744872306089405 [Eh]
	 Singles Energy            =      -0.0000000000000000 [Eh]
	 Same-Spin Energy          =      -0.4707085148490739 [Eh]
	 Opposite-Spin Energy      =      -1.4644251246878750 [Eh]
	 Correlation Energy        =      -1.9351336395369489 [Eh]
	 Total Energy              =    -475.7096208701458977 [Eh]

	 ================> DF-SCS-MP2 Energies <==================
	-----------------------------------------------------------
	 SCS Same-Spin Scale       =       0.3333333333333333 [-]
	 SCS Opposite-Spin Scale   =       1.2000000000000000 [-]
	 SCS Same-Spin Energy      =      -0.1569028382830246 [Eh]
	 SCS Opposite-Spin Energy  =      -1.7573101496254500 [Eh]
	 SCS Correlation Energy    =      -1.9142129879084746 [Eh]
	 SCS Total Energy          =    -475.6887002185173969 [Eh]
	-----------------------------------------------------------

  Dipole Moment: [D]
     X:    -1.4028      Y:     0.8427      Z:    -2.2114     Total:     2.7511

*** Psi4 exiting successfully. Buy a developer a beer!
