                               Psi4 1.4a3.dev225

  ==> Input File <==

--------------------------------------------------------------------------
#psi4
#
memory 32 gb

molecule  {
0 1
  O        0.8764270    -0.2428500     1.2911470
  O       -3.1675390     0.0980960     0.5443480
  O       -1.5839830     1.3406500    -0.5070920
  N        0.0834400    -0.8734940    -0.7544630
  C        2.2681300     0.2178930    -0.6380450
  C        1.0330250    -0.3000120     0.0721840
  C       -1.2578346    -1.0523497    -0.2009155
  C        3.4385850     0.4137260     0.3159750
  C       -1.9785770     0.2694000    -0.0851210
  H        2.5310470    -0.4685700    -1.4513520
  H        1.9929790     1.1708880    -1.1091590
  H       -1.1549390    -1.4972460     0.7835340
  H       -1.8230450    -1.7308360    -0.8360530
  H        0.1282230    -0.6025030    -1.7308050
  H        3.7379630    -0.5375510     0.7615240
  H        4.2975370     0.8343390    -0.2133880
  H        3.1581410     1.0869690     1.1269820
  H       -3.5812870     0.9851770     0.5837010
units angstrom
no_reorient  #important for SAPT in psi4, default
symmetry c1  #important for SAPT in psi4, default
}

set PROPERTIES_ORIGIN ["COM"]
properties('MP2/aug-cc-pvtz', properties = ['dipole'])
--------------------------------------------------------------------------

    Molecular point group: c1
  Charge       = 0
  Multiplicity = 1
  Basis Set: AUG-CC-PVTZ
    Blend: AUG-CC-PVTZ
  Basis Set: (AUG-CC-PVTZ AUX)
    Blend: AUG-CC-PVTZ-JKFIT

    Orbital Energies [Eh]
    ---------------------

    Doubly Occupied:

       1A    -20.624774     2A    -20.561894     3A    -20.526818
       4A    -15.592916     5A    -11.398565     6A    -11.354507
       7A    -11.292241     8A    -11.243275     9A    -11.217100
      10A     -1.469863    11A     -1.382637    12A     -1.367310
      13A     -1.236450    14A     -1.061804    15A     -1.007321
      16A     -0.888276    17A     -0.824754    18A     -0.782672
      19A     -0.716125    20A     -0.710635    21A     -0.698524
      22A     -0.650222    23A     -0.647098    24A     -0.629083
      25A     -0.604054    26A     -0.598043    27A     -0.562201
      28A     -0.544232    29A     -0.523271    30A     -0.514691
      31A     -0.495008    32A     -0.489839    33A     -0.469866
      34A     -0.431717    35A     -0.411154

  @DF-RHF Final Energy:  -473.83926691084724

   => Energetics <=

    Nuclear Repulsion Energy =            460.2687522174249466
    One-Electron Energy =               -1561.1581620387530620
    Two-Electron Energy =                 627.0501429104808722
    Total Energy =                       -473.8392669108473001
  Basis Set: (AUG-CC-PVTZ AUX)
    Blend: AUG-CC-PVTZ-RI
    Molecular point group: c1

    Geometry (in Angstrom), charge = 0, multiplicity = 1:

       Center              X                  Y                   Z               Mass
    ------------   -----------------  -----------------  -----------------  -----------------
         O            0.948258950843    -0.248307619964     1.274738340967    15.994914619570
         O           -3.095707049157     0.092638380036     0.527939340967    15.994914619570
         O           -1.512151049157     1.335192380036    -0.523500659033    15.994914619570
         N            0.155271950843    -0.878951619964    -0.770871659033    14.003074004430
         C            2.339961950843     0.212435380036    -0.654453659033    12.000000000000
         C            1.104856950843    -0.305469619964     0.055775340967    12.000000000000
         C           -1.186002649157    -1.057807319964    -0.217324159033    12.000000000000
         C            3.510416950843     0.408268380036     0.299566340967    12.000000000000
         C           -1.906745049157     0.263942380036    -0.101529659033    12.000000000000
         H            2.602878950843    -0.474027619964    -1.467760659033     1.007825032230
         H            2.064810950843     1.165430380036    -1.125567659033     1.007825032230
         H           -1.083107049157    -1.502703619964     0.767125340967     1.007825032230
         H           -1.751213049157    -1.736293619964    -0.852461659033     1.007825032230
         H            0.200054950843    -0.607960619964    -1.747213659033     1.007825032230
         H            3.809794950843    -0.543008619964     0.745115340967     1.007825032230
         H            4.369368950843     0.828881380036    -0.229796659033     1.007825032230
         H            3.229972950843     1.081511380036     1.110573340967     1.007825032230
         H           -3.509455049157     0.979719380036     0.567292340967     1.007825032230

  Basis Set: AUG-CC-PVTZ
    Blend: AUG-CC-PVTZ
  Basis Set: (AUG-CC-PVTZ AUX)
    Blend: AUG-CC-PVTZ-JKFIT
	 Reference Energy          =    -473.8392669108472433 [Eh]
	 Singles Energy            =      -0.0000000000000000 [Eh]
	 Same-Spin Energy          =      -0.4667790670999231 [Eh]
	 Opposite-Spin Energy      =      -1.4581232305790803 [Eh]
	 Correlation Energy        =      -1.9249022976790036 [Eh]
	 Total Energy              =    -475.7641692085262548 [Eh]

	 ================> DF-SCS-MP2 Energies <==================
	-----------------------------------------------------------
	 SCS Same-Spin Scale       =       0.3333333333333333 [-]
	 SCS Opposite-Spin Scale   =       1.2000000000000000 [-]
	 SCS Same-Spin Energy      =      -0.1555930223666410 [Eh]
	 SCS Opposite-Spin Energy  =      -1.7497478766948964 [Eh]
	 SCS Correlation Energy    =      -1.9053408990615375 [Eh]
	 SCS Total Energy          =    -475.7446078099087572 [Eh]
	-----------------------------------------------------------

  Dipole Moment: [D]
     X:    -0.9600      Y:    -0.7821      Z:    -2.6605     Total:     2.9346

*** Psi4 exiting successfully. Buy a developer a beer!
