                               Psi4 1.3.2 release

  ==> Input File <==

--------------------------------------------------------------------------
#psi4
#
memory 32 gb

molecule  {
0 1
  O        1.0730778    -1.2602064     0.2658805
  O       -3.0460190    -0.6564700     0.3579990
  O       -1.7208190     1.1319200     0.8547670
  N        0.1334480     0.3363350    -1.0591540
  C        2.3706519     0.7439226    -0.1874431
  C        1.1530800    -0.1541890    -0.2667860
  C       -1.1420340    -0.3248900    -0.9988550
  C        3.4883670     0.0910310     0.6318210
  C       -1.9580260     0.1406600     0.1881420
  H        2.7160870     0.9611190    -1.1975940
  H        2.0743670     1.6930220     0.2624750
  H       -0.9793980    -1.4015010    -0.9274340
  H       -1.7176060    -0.1322810    -1.9133280
  H        0.1138710     1.3396710    -1.2046940
  H        3.7876720    -0.8582410     0.1862610
  H        4.3593370     0.7487140     0.6762100
  H        3.1503700    -0.1123850     1.6481590
  H       -3.5474700    -0.2792990     1.1088070
units angstrom
no_reorient  #important for SAPT in psi4, default
symmetry c1  #important for SAPT in psi4, default
}

set PROPERTIES_ORIGIN ["COM"]
properties('MP2/aug-cc-pvtz', properties = ['dipole'])
--------------------------------------------------------------------------

    Molecular point group: c1
  Charge       = 0
  Multiplicity = 1
  Basis Set: AUG-CC-PVTZ
    Blend: AUG-CC-PVTZ
  Basis Set: (AUG-CC-PVTZ AUX)
    Blend: AUG-CC-PVTZ-JKFIT

    Orbital Energies [Eh]
    ---------------------

    Doubly Occupied:

       1A    -20.625276     2A    -20.562686     3A    -20.529017
       4A    -15.592076     5A    -11.398716     6A    -11.356244
       7A    -11.290354     8A    -11.244138     9A    -11.217397
      10A     -1.468302    11A     -1.385110    12A     -1.368375
      13A     -1.241220    14A     -1.062889    15A     -1.005218
      16A     -0.889859    17A     -0.824750    18A     -0.785469
      19A     -0.715913    20A     -0.713177    21A     -0.698400
      22A     -0.652731    23A     -0.644260    24A     -0.638034
      25A     -0.604159    26A     -0.599343    27A     -0.559002
      28A     -0.540384    29A     -0.523469    30A     -0.516562
      31A     -0.497836    32A     -0.492021    33A     -0.469084
      34A     -0.434606    35A     -0.409805

  @DF-RHF Final Energy:  -473.83961721174921

   => Energetics <=

    Nuclear Repulsion Energy =            458.0289981133423680
    One-Electron Energy =               -1556.6254647434052458
    Two-Electron Energy =                 624.7568494183136636
    Total Energy =                       -473.8396172117492142
  Basis Set: (AUG-CC-PVTZ AUX)
    Blend: AUG-CC-PVTZ-RI
    Molecular point group: c1

    Geometry (in Angstrom), charge = 0, multiplicity = 1:

       Center              X                  Y                   Z               Mass
    ------------   -----------------  -----------------  -----------------  -----------------
         O            1.074856279195    -1.260894447541     0.267023728149    15.994914619570
         O           -3.044240520805    -0.657158047541     0.359142228149    15.994914619570
         O           -1.719040520805     1.131231952459     0.855910228149    15.994914619570
         N            0.135226479195     0.335646952459    -1.058010771851    14.003074004430
         C            2.372430379195     0.743234552459    -0.186299871851    12.000000000000
         C            1.154858479195    -0.154877047541    -0.265642771851    12.000000000000
         C           -1.140255520805    -0.325578047541    -0.997711771851    12.000000000000
         C            3.490145479195     0.090342952459     0.632964228149    12.000000000000
         C           -1.956247520805     0.139971952459     0.189285228149    12.000000000000
         H            2.717865479195     0.960430952459    -1.196450771851     1.007825032230
         H            2.076145479195     1.692333952459     0.263618228149     1.007825032230
         H           -0.977619520805    -1.402189047541    -0.926290771851     1.007825032230
         H           -1.715827520805    -0.132969047541    -1.912184771851     1.007825032230
         H            0.115649479195     1.338982952459    -1.203550771851     1.007825032230
         H            3.789450479195    -0.858929047541     0.187404228149     1.007825032230
         H            4.361115479195     0.748025952459     0.677353228149     1.007825032230
         H            3.152148479195    -0.113073047541     1.649302228149     1.007825032230
         H           -3.545691520805    -0.279987047541     1.109950228149     1.007825032230

  Basis Set: AUG-CC-PVTZ
    Blend: AUG-CC-PVTZ
  Basis Set: (AUG-CC-PVTZ AUX)
    Blend: AUG-CC-PVTZ-JKFIT
	 Reference Energy          =    -473.8396172117492142 [Eh]
	 Singles Energy            =      -0.0000000000000000 [Eh]
	 Same-Spin Energy          =      -0.4666963743533213 [Eh]
	 Opposite-Spin Energy      =      -1.4577162307008011 [Eh]
	 Correlation Energy        =      -1.9244126050541226 [Eh]
	 Total Energy              =    -475.7640298168033155 [Eh]

	 ================> DF-SCS-MP2 Energies <==================
	-----------------------------------------------------------
	 SCS Same-Spin Scale       =       0.3333333333333333 [-]
	 SCS Opposite-Spin Scale   =       1.2000000000000000 [-]
	 SCS Same-Spin Energy      =      -0.1555654581177738 [Eh]
	 SCS Opposite-Spin Energy  =      -1.7492594768409613 [Eh]
	 SCS Correlation Energy    =      -1.9048249349587349 [Eh]
	 SCS Total Energy          =    -475.7444421467079678 [Eh]
	-----------------------------------------------------------

  Dipole Moment: [D]
     X:    -0.9200      Y:     1.8816      Z:    -1.7397     Total:     2.7227

*** Psi4 exiting successfully. Buy a developer a beer!
