                               Psi4 1.3.2 release

  ==> Input File <==

--------------------------------------------------------------------------
#psi4
#
memory 32 gb

molecule  {
0 1
  O        1.0830410    -1.2590340     0.2697030
  O       -3.0460190    -0.6564700     0.3579990
  O       -1.7208190     1.1319200     0.8547670
  N        0.1334480     0.3363350    -1.0591540
  C        2.3767950     0.7348440    -0.1800510
  C        1.1530800    -0.1541890    -0.2667860
  C       -1.1420340    -0.3248900    -0.9988550
  C        3.4883670     0.0910310     0.6318210
  C       -1.9444372     0.1130107     0.1520538
  H        2.7160870     0.9611190    -1.1975940
  H        2.0743670     1.6930220     0.2624750
  H       -0.9793980    -1.4015010    -0.9274340
  H       -1.7176060    -0.1322810    -1.9133280
  H        0.1138710     1.3396710    -1.2046940
  H        3.7876720    -0.8582410     0.1862610
  H        4.3593370     0.7487140     0.6762100
  H        3.1503700    -0.1123850     1.6481590
  H       -3.5705294    -0.3042264     1.1051516
units angstrom
no_reorient  #important for SAPT in psi4, default
symmetry c1  #important for SAPT in psi4, default
}

set PROPERTIES_ORIGIN ["COM"]
properties('MP2/aug-cc-pvtz', properties = ['dipole'])
--------------------------------------------------------------------------

    Molecular point group: c1
  Charge       = 0
  Multiplicity = 1
  Basis Set: AUG-CC-PVTZ
    Blend: AUG-CC-PVTZ
  Basis Set: (AUG-CC-PVTZ AUX)
    Blend: AUG-CC-PVTZ-JKFIT

    Orbital Energies [Eh]
    ---------------------

    Doubly Occupied:

       1A    -20.625562     2A    -20.557019     3A    -20.530041
       4A    -15.594949     5A    -11.403524     6A    -11.357498
       7A    -11.293418     8A    -11.244836     9A    -11.216863
      10A     -1.460297    11A     -1.386086    12A     -1.346258
      13A     -1.244514    14A     -1.066576    15A     -1.017667
      16A     -0.892696    17A     -0.829117    18A     -0.787862
      19A     -0.718053    20A     -0.710388    21A     -0.697314
      22A     -0.654819    23A     -0.643798    24A     -0.636514
      25A     -0.602498    26A     -0.592276    27A     -0.561126
      28A     -0.541186    29A     -0.526229    30A     -0.517916
      31A     -0.494724    32A     -0.478457    33A     -0.465816
      34A     -0.435746    35A     -0.413952

  @DF-RHF Final Energy:  -473.83230194207539

   => Energetics <=

    Nuclear Repulsion Energy =            457.9465797128849545
    One-Electron Energy =               -1556.4665772619694053
    Two-Electron Energy =                 624.6876956070092319
    Total Energy =                       -473.8323019420753326
  Basis Set: (AUG-CC-PVTZ AUX)
    Blend: AUG-CC-PVTZ-RI
    Molecular point group: c1

    Geometry (in Angstrom), charge = 0, multiplicity = 1:

       Center              X                  Y                   Z               Mass
    ------------   -----------------  -----------------  -----------------  -----------------
         O            1.081974152691    -1.256310550415     0.273035305582    15.994914619570
         O           -3.047085847309    -0.653746550415     0.361331305582    15.994914619570
         O           -1.721885847309     1.134643449585     0.858099305582    15.994914619570
         N            0.132381152691     0.339058449585    -1.055821694418    14.003074004430
         C            2.375728152691     0.737567449585    -0.176718694418    12.000000000000
         C            1.152013152691    -0.151465550415    -0.263453694418    12.000000000000
         C           -1.143100847309    -0.322166550415    -0.995522694418    12.000000000000
         C            3.487300152691     0.093754449585     0.635153305582    12.000000000000
         C           -1.945504047309     0.115734149585     0.155386105582    12.000000000000
         H            2.715020152691     0.963842449585    -1.194261694418     1.007825032230
         H            2.073300152691     1.695745449585     0.265807305582     1.007825032230
         H           -0.980464847309    -1.398777550415    -0.924101694418     1.007825032230
         H           -1.718672847309    -0.129557550415    -1.909995694418     1.007825032230
         H            0.112804152691     1.342394449585    -1.201361694418     1.007825032230
         H            3.786605152691    -0.855517550415     0.189593305582     1.007825032230
         H            4.358270152691     0.751437449585     0.679542305582     1.007825032230
         H            3.149303152691    -0.109661550415     1.651491305582     1.007825032230
         H           -3.571596247309    -0.301502950415     1.108483905582     1.007825032230

  Basis Set: AUG-CC-PVTZ
    Blend: AUG-CC-PVTZ
  Basis Set: (AUG-CC-PVTZ AUX)
    Blend: AUG-CC-PVTZ-JKFIT
	 Reference Energy          =    -473.8323019420753894 [Eh]
	 Singles Energy            =      -0.0000000000000000 [Eh]
	 Same-Spin Energy          =      -0.4676714310149807 [Eh]
	 Opposite-Spin Energy      =      -1.4595103454015597 [Eh]
	 Correlation Energy        =      -1.9271817764165404 [Eh]
	 Total Energy              =    -475.7594837184919356 [Eh]

	 ================> DF-SCS-MP2 Energies <==================
	-----------------------------------------------------------
	 SCS Same-Spin Scale       =       0.3333333333333333 [-]
	 SCS Opposite-Spin Scale   =       1.2000000000000000 [-]
	 SCS Same-Spin Energy      =      -0.1558904770049935 [Eh]
	 SCS Opposite-Spin Energy  =      -1.7514124144818715 [Eh]
	 SCS Correlation Energy    =      -1.9073028914868650 [Eh]
	 SCS Total Energy          =    -475.7396048335622822 [Eh]
	-----------------------------------------------------------

  Dipole Moment: [D]
     X:    -0.9176      Y:     1.6933      Z:    -1.9060     Total:     2.7096

*** Psi4 exiting successfully. Buy a developer a beer!
