                               Psi4 1.3.2 release

  ==> Input File <==

--------------------------------------------------------------------------
#psi4
#
memory 32 gb

molecule  {
0 1
  O        1.0830410    -1.2590340     0.2697030
  O       -3.0524276    -0.6433805     0.3767210
  O       -1.7208190     1.1319200     0.8547670
  N        0.1334480     0.3363350    -1.0591540
  C        2.3767950     0.7348440    -0.1800510
  C        1.1530800    -0.1541890    -0.2667860
  C       -1.1248993    -0.3052612    -0.9944804
  C        3.4883670     0.0910310     0.6318210
  C       -1.9580260     0.1406600     0.1881420
  H        2.7160870     0.9611190    -1.1975940
  H        2.0743670     1.6930220     0.2624750
  H       -0.9793980    -1.4015010    -0.9274340
  H       -1.7176060    -0.1322810    -1.9133280
  H        0.1138710     1.3396710    -1.2046940
  H        3.7876720    -0.8582410     0.1862610
  H        4.3593370     0.7487140     0.6762100
  H        3.1503700    -0.1123850     1.6481590
  H       -3.5474700    -0.2792990     1.1088070
units angstrom
no_reorient  #important for SAPT in psi4, default
symmetry c1  #important for SAPT in psi4, default
}

set PROPERTIES_ORIGIN ["COM"]
properties('MP2/aug-cc-pvtz', properties = ['dipole'])
--------------------------------------------------------------------------

    Molecular point group: c1
  Charge       = 0
  Multiplicity = 1
  Basis Set: AUG-CC-PVTZ
    Blend: AUG-CC-PVTZ
  Basis Set: (AUG-CC-PVTZ AUX)
    Blend: AUG-CC-PVTZ-JKFIT

    Orbital Energies [Eh]
    ---------------------

    Doubly Occupied:

       1A    -20.622293     2A    -20.560551     3A    -20.530294
       4A    -15.594093     5A    -11.397890     6A    -11.357517
       7A    -11.291928     8A    -11.245145     9A    -11.217128
      10A     -1.470158    11A     -1.386874    12A     -1.368193
      13A     -1.248472    14A     -1.064575    15A     -1.005468
      16A     -0.892243    17A     -0.828751    18A     -0.788176
      19A     -0.717195    20A     -0.715034    21A     -0.698485
      22A     -0.657819    23A     -0.643697    24A     -0.637593
      25A     -0.605227    26A     -0.599995    27A     -0.553914
      28A     -0.540966    29A     -0.526115    30A     -0.518203
      31A     -0.495695    32A     -0.490368    33A     -0.468161
      34A     -0.435800    35A     -0.411178

  @DF-RHF Final Energy:  -473.84013043336603

   => Energetics <=

    Nuclear Repulsion Energy =            458.4061086052730616
    One-Electron Energy =               -1557.3220903200849534
    Two-Electron Energy =                 625.0758512814459209
    Total Energy =                       -473.8401304333660846
  Basis Set: (AUG-CC-PVTZ AUX)
    Blend: AUG-CC-PVTZ-RI
    Molecular point group: c1

    Geometry (in Angstrom), charge = 0, multiplicity = 1:

       Center              X                  Y                   Z               Mass
    ------------   -----------------  -----------------  -----------------  -----------------
         O            1.082254290501    -1.262428632524     0.267017413261    15.994914619570
         O           -3.053214309499    -0.646775132524     0.374035413261    15.994914619570
         O           -1.721605709499     1.128525367476     0.852081413261    15.994914619570
         N            0.132661290501     0.332940367476    -1.061839586739    14.003074004430
         C            2.376008290501     0.731449367476    -0.182736586739    12.000000000000
         C            1.152293290501    -0.157583632524    -0.269471586739    12.000000000000
         C           -1.125686009499    -0.308655832524    -0.997165986739    12.000000000000
         C            3.487580290501     0.087636367476     0.629135413261    12.000000000000
         C           -1.958812709499     0.137265367476     0.185456413261    12.000000000000
         H            2.715300290501     0.957724367476    -1.200279586739     1.007825032230
         H            2.073580290501     1.689627367476     0.259789413261     1.007825032230
         H           -0.980184709499    -1.404895632524    -0.930119586739     1.007825032230
         H           -1.718392709499    -0.135675632524    -1.916013586739     1.007825032230
         H            0.113084290501     1.336276367476    -1.207379586739     1.007825032230
         H            3.786885290501    -0.861635632524     0.183575413261     1.007825032230
         H            4.358550290501     0.745319367476     0.673524413261     1.007825032230
         H            3.149583290501    -0.115779632524     1.645473413261     1.007825032230
         H           -3.548256709499    -0.282693632524     1.106121413261     1.007825032230

  Basis Set: AUG-CC-PVTZ
    Blend: AUG-CC-PVTZ
  Basis Set: (AUG-CC-PVTZ AUX)
    Blend: AUG-CC-PVTZ-JKFIT
	 Reference Energy          =    -473.8401304333660278 [Eh]
	 Singles Energy            =      -0.0000000000000000 [Eh]
	 Same-Spin Energy          =      -0.4664689910404123 [Eh]
	 Opposite-Spin Energy      =      -1.4567950103509697 [Eh]
	 Correlation Energy        =      -1.9232640013913820 [Eh]
	 Total Energy              =    -475.7633944347574015 [Eh]

	 ================> DF-SCS-MP2 Energies <==================
	-----------------------------------------------------------
	 SCS Same-Spin Scale       =       0.3333333333333333 [-]
	 SCS Opposite-Spin Scale   =       1.2000000000000000 [-]
	 SCS Same-Spin Energy      =      -0.1554896636801374 [Eh]
	 SCS Opposite-Spin Energy  =      -1.7481540124211636 [Eh]
	 SCS Correlation Energy    =      -1.9036436761013011 [Eh]
	 SCS Total Energy          =    -475.7437741094673243 [Eh]
	-----------------------------------------------------------

  Dipole Moment: [D]
     X:    -0.8325      Y:     1.8697      Z:    -1.7787     Total:     2.7115

*** Psi4 exiting successfully. Buy a developer a beer!
