                               Psi4 1.3.2 release

  ==> Input File <==

--------------------------------------------------------------------------
#psi4
#
memory 32 gb

molecule  {
0 1
  O        1.0830410    -1.2590340     0.2697030
  O       -3.0460190    -0.6564700     0.3579990
  O       -1.7208190     1.1319200     0.8547670
  N        0.1334480     0.3363350    -1.0591540
  C        2.3767950     0.7348440    -0.1800510
  C        1.1587733    -0.0643793    -0.3103957
  C       -1.1420340    -0.3248900    -0.9988550
  C        3.4883670     0.0910310     0.6318210
  C       -1.9580260     0.1406600     0.1881420
  H        2.7160870     0.9611190    -1.1975940
  H        2.0743670     1.6930220     0.2624750
  H       -0.9793980    -1.4015010    -0.9274340
  H       -1.7176060    -0.1322810    -1.9133280
  H        0.1138710     1.3396710    -1.2046940
  H        3.7876720    -0.8582410     0.1862610
  H        4.3593370     0.7487140     0.6762100
  H        3.1503700    -0.1123850     1.6481590
  H       -3.5474700    -0.2792990     1.1088070
units angstrom
no_reorient  #important for SAPT in psi4, default
symmetry c1  #important for SAPT in psi4, default
}

set PROPERTIES_ORIGIN ["COM"]
properties('MP2/aug-cc-pvtz', properties = ['dipole'])
--------------------------------------------------------------------------

    Molecular point group: c1
  Charge       = 0
  Multiplicity = 1
  Basis Set: AUG-CC-PVTZ
    Blend: AUG-CC-PVTZ
  Basis Set: (AUG-CC-PVTZ AUX)
    Blend: AUG-CC-PVTZ-JKFIT

    Orbital Energies [Eh]
    ---------------------

    Doubly Occupied:

       1A    -20.627789     2A    -20.565489     3A    -20.509253
       4A    -15.606828     5A    -11.403009     6A    -11.359106
       7A    -11.297614     8A    -11.247604     9A    -11.218084
      10A     -1.470958    11A     -1.372492    12A     -1.341082
      13A     -1.237209    14A     -1.074563    15A     -1.016947
      16A     -0.900669    17A     -0.833700    18A     -0.791717
      19A     -0.719284    20A     -0.716192    21A     -0.697961
      22A     -0.657930    23A     -0.645941    24A     -0.641175
      25A     -0.606217    26A     -0.579404    27A     -0.555849
      28A     -0.537125    29A     -0.530835    30A     -0.507963
      31A     -0.496183    32A     -0.490663    33A     -0.467171
      34A     -0.421791    35A     -0.401415

  @DF-RHF Final Energy:  -473.81755383106730

   => Energetics <=

    Nuclear Repulsion Energy =            457.6379216931277369
    One-Electron Energy =               -1555.8165231829505046
    Two-Electron Energy =                 624.3610476587555240
    Total Energy =                       -473.8175538310672437
  Basis Set: (AUG-CC-PVTZ AUX)
    Blend: AUG-CC-PVTZ-RI
    Molecular point group: c1

    Geometry (in Angstrom), charge = 0, multiplicity = 1:

       Center              X                  Y                   Z               Mass
    ------------   -----------------  -----------------  -----------------  -----------------
         O            1.082519758658    -1.267257061090     0.273695882089    15.994914619570
         O           -3.046540241342    -0.664693061090     0.361991882089    15.994914619570
         O           -1.721340241342     1.123696938910     0.858759882089    15.994914619570
         N            0.132926758658     0.328111938910    -1.055161117911    14.003074004430
         C            2.376273758658     0.726620938910    -0.176058117911    12.000000000000
         C            1.158252058658    -0.072602361090    -0.306402817911    12.000000000000
         C           -1.142555241342    -0.333113061090    -0.994862117911    12.000000000000
         C            3.487845758658     0.082807938910     0.635813882089    12.000000000000
         C           -1.958547241342     0.132436938910     0.192134882089    12.000000000000
         H            2.715565758658     0.952895938910    -1.193601117911     1.007825032230
         H            2.073845758658     1.684798938910     0.266467882089     1.007825032230
         H           -0.979919241342    -1.409724061090    -0.923441117911     1.007825032230
         H           -1.718127241342    -0.140504061090    -1.909335117911     1.007825032230
         H            0.113349758658     1.331447938910    -1.200701117911     1.007825032230
         H            3.787150758658    -0.866464061090     0.190253882089     1.007825032230
         H            4.358815758658     0.740490938910     0.680202882089     1.007825032230
         H            3.149848758658    -0.120608061090     1.652151882089     1.007825032230
         H           -3.547991241342    -0.287522061090     1.112799882089     1.007825032230

  Basis Set: AUG-CC-PVTZ
    Blend: AUG-CC-PVTZ
  Basis Set: (AUG-CC-PVTZ AUX)
    Blend: AUG-CC-PVTZ-JKFIT
	 Reference Energy          =    -473.8175538310673005 [Eh]
	 Singles Energy            =      -0.0000000000000000 [Eh]
	 Same-Spin Energy          =      -0.4691208987640045 [Eh]
	 Opposite-Spin Energy      =      -1.4622064985857885 [Eh]
	 Correlation Energy        =      -1.9313273973497931 [Eh]
	 Total Energy              =    -475.7488812284170763 [Eh]

	 ================> DF-SCS-MP2 Energies <==================
	-----------------------------------------------------------
	 SCS Same-Spin Scale       =       0.3333333333333333 [-]
	 SCS Opposite-Spin Scale   =       1.2000000000000000 [-]
	 SCS Same-Spin Energy      =      -0.1563736329213348 [Eh]
	 SCS Opposite-Spin Energy  =      -1.7546477983029463 [Eh]
	 SCS Correlation Energy    =      -1.9110214312242810 [Eh]
	 SCS Total Energy          =    -475.7285752622915993 [Eh]
	-----------------------------------------------------------

  Dipole Moment: [D]
     X:    -1.1390      Y:     2.3319      Z:    -2.0441     Total:     3.3035

*** Psi4 exiting successfully. Buy a developer a beer!
