                               Psi4 1.3.2 release

  ==> Input File <==

--------------------------------------------------------------------------
#psi4
#
memory 32 gb

molecule  {
0 1
  O        1.0830410    -1.2590340     0.2697030
  O       -3.0460190    -0.6564700     0.3579990
  O       -1.7208190     1.1319200     0.8547670
  N        0.1334480     0.3363350    -1.0591540
  C        2.3767950     0.7348440    -0.1800510
  C        1.1530800    -0.1541890    -0.2667860
  C       -1.1420340    -0.3248900    -0.9988550
  C        3.4883670     0.0910310     0.6318210
  C       -1.9580260     0.1406600     0.1881420
  H        2.7160870     0.9611190    -1.1975940
  H        2.0743670     1.6930220     0.2624750
  H       -0.9793980    -1.4015010    -0.9274340
  H       -1.7176060    -0.1322810    -1.9133280
  H        0.1138710     1.3396710    -1.2046940
  H        3.7876720    -0.8582410     0.1862610
  H        4.3593370     0.7487140     0.6762100
  H        3.1503700    -0.1123850     1.6481590
  H       -3.6499659    -0.2022058     1.2622711
units angstrom
no_reorient  #important for SAPT in psi4, default
symmetry c1  #important for SAPT in psi4, default
}

set PROPERTIES_ORIGIN ["COM"]
properties('MP2/aug-cc-pvtz', properties = ['dipole'])
--------------------------------------------------------------------------

    Molecular point group: c1
  Charge       = 0
  Multiplicity = 1
  Basis Set: AUG-CC-PVTZ
    Blend: AUG-CC-PVTZ
  Basis Set: (AUG-CC-PVTZ AUX)
    Blend: AUG-CC-PVTZ-JKFIT

    Orbital Energies [Eh]
    ---------------------

    Doubly Occupied:

       1A    -20.633903     2A    -20.559242     3A    -20.527929
       4A    -15.591968     5A    -11.395224     6A    -11.355266
       7A    -11.290035     8A    -11.243610     9A    -11.215994
      10A     -1.448576    11A     -1.383465    12A     -1.351586
      13A     -1.240792    14A     -1.062268    15A     -0.999996
      16A     -0.884559    17A     -0.803208    18A     -0.783016
      19A     -0.709983    20A     -0.698633    21A     -0.692871
      22A     -0.648921    23A     -0.638543    24A     -0.634534
      25A     -0.598643    26A     -0.586566    27A     -0.556576
      28A     -0.537377    29A     -0.524477    30A     -0.516875
      31A     -0.494029    32A     -0.487143    33A     -0.465840
      34A     -0.433087    35A     -0.408852

  @DF-RHF Final Energy:  -473.80504413155876

   => Energetics <=

    Nuclear Repulsion Energy =            456.9599083511071740
    One-Electron Energy =               -1554.7227323811084716
    Two-Electron Energy =                 623.9577798984427091
    Total Energy =                       -473.8050441315587022
  Basis Set: (AUG-CC-PVTZ AUX)
    Blend: AUG-CC-PVTZ-RI
    Molecular point group: c1

    Geometry (in Angstrom), charge = 0, multiplicity = 1:

       Center              X                  Y                   Z               Mass
    ------------   -----------------  -----------------  -----------------  -----------------
         O            1.083829233969    -1.259626713550     0.268522751843    15.994914619570
         O           -3.045230766031    -0.657062713550     0.356818751843    15.994914619570
         O           -1.720030766031     1.131327286450     0.853586751843    15.994914619570
         N            0.134236233969     0.335742286450    -1.060334248157    14.003074004430
         C            2.377583233969     0.734251286450    -0.181231248157    12.000000000000
         C            1.153868233969    -0.154781713550    -0.267966248157    12.000000000000
         C           -1.141245766031    -0.325482713550    -1.000035248157    12.000000000000
         C            3.489155233969     0.090438286450     0.630640751843    12.000000000000
         C           -1.957237766031     0.140067286450     0.186961751843    12.000000000000
         H            2.716875233969     0.960526286450    -1.198774248157     1.007825032230
         H            2.075155233969     1.692429286450     0.261294751843     1.007825032230
         H           -0.978609766031    -1.402093713550    -0.928614248157     1.007825032230
         H           -1.716817766031    -0.132873713550    -1.914508248157     1.007825032230
         H            0.114659233969     1.339078286450    -1.205874248157     1.007825032230
         H            3.788460233969    -0.858833713550     0.185080751843     1.007825032230
         H            4.360125233969     0.748121286450     0.675029751843     1.007825032230
         H            3.151158233969    -0.112977713550     1.646978751843     1.007825032230
         H           -3.649177666031    -0.202798513550     1.261090851843     1.007825032230

  Basis Set: AUG-CC-PVTZ
    Blend: AUG-CC-PVTZ
  Basis Set: (AUG-CC-PVTZ AUX)
    Blend: AUG-CC-PVTZ-JKFIT
	 Reference Energy          =    -473.8050441315587591 [Eh]
	 Singles Energy            =      -0.0000000000000000 [Eh]
	 Same-Spin Energy          =      -0.4692490743291337 [Eh]
	 Opposite-Spin Energy      =      -1.4641822820373500 [Eh]
	 Correlation Energy        =      -1.9334313563664836 [Eh]
	 Total Energy              =    -475.7384754879252569 [Eh]

	 ================> DF-SCS-MP2 Energies <==================
	-----------------------------------------------------------
	 SCS Same-Spin Scale       =       0.3333333333333333 [-]
	 SCS Opposite-Spin Scale   =       1.2000000000000000 [-]
	 SCS Same-Spin Energy      =      -0.1564163581097112 [Eh]
	 SCS Opposite-Spin Energy  =      -1.7570187384448199 [Eh]
	 SCS Correlation Energy    =      -1.9134350965545313 [Eh]
	 SCS Total Energy          =    -475.7184792281132673 [Eh]
	-----------------------------------------------------------

  Dipole Moment: [D]
     X:    -1.1031      Y:     1.9273      Z:    -1.5741     Total:     2.7220

*** Psi4 exiting successfully. Buy a developer a beer!
