                               Psi4 1.3.2 release

  ==> Input File <==

--------------------------------------------------------------------------
#psi4
#
memory 32 gb

molecule  {
0 1
  O        1.1218906    -1.2523877     0.2867438
  O       -3.0460190    -0.6564700     0.3579990
  O       -1.7208190     1.1319200     0.8547670
  N        0.1593676     0.3763653    -1.0662596
  C        2.3767950     0.7348440    -0.1800510
  C        1.1530800    -0.1541890    -0.2667860
  C       -1.1420340    -0.3248900    -0.9988550
  C        3.4883670     0.0910310     0.6318210
  C       -1.9580260     0.1406600     0.1881420
  H        2.7160870     0.9611190    -1.1975940
  H        2.0743670     1.6930220     0.2624750
  H       -0.9793980    -1.4015010    -0.9274340
  H       -1.7176060    -0.1322810    -1.9133280
  H        0.1138710     1.3396710    -1.2046940
  H        3.7876720    -0.8582410     0.1862610
  H        4.3593370     0.7487140     0.6762100
  H        3.1503700    -0.1123850     1.6481590
  H       -3.5474700    -0.2792990     1.1088070
units angstrom
no_reorient  #important for SAPT in psi4, default
symmetry c1  #important for SAPT in psi4, default
}

set PROPERTIES_ORIGIN ["COM"]
properties('MP2/aug-cc-pvtz', properties = ['dipole'])
--------------------------------------------------------------------------

    Molecular point group: c1
  Charge       = 0
  Multiplicity = 1
  Basis Set: AUG-CC-PVTZ
    Blend: AUG-CC-PVTZ
  Basis Set: (AUG-CC-PVTZ AUX)
    Blend: AUG-CC-PVTZ-JKFIT

    Orbital Energies [Eh]
    ---------------------

    Doubly Occupied:

       1A    -20.627396     2A    -20.564526     3A    -20.531097
       4A    -15.593952     5A    -11.401639     6A    -11.356675
       7A    -11.295921     8A    -11.239518     9A    -11.213502
      10A     -1.470318    11A     -1.383936    12A     -1.370248
      13A     -1.242336    14A     -1.060053    15A     -1.008062
      16A     -0.888265    17A     -0.823544    18A     -0.797170
      19A     -0.717477    20A     -0.711002    21A     -0.697109
      22A     -0.651183    23A     -0.644555    24A     -0.635604
      25A     -0.604340    26A     -0.599549    27A     -0.566912
      28A     -0.540395    29A     -0.520490    30A     -0.514671
      31A     -0.495173    32A     -0.491214    33A     -0.470341
      34A     -0.432859    35A     -0.414728

  @DF-RHF Final Energy:  -473.83620081476590

   => Energetics <=

    Nuclear Repulsion Energy =            457.2953392387770464
    One-Electron Energy =               -1555.1115534689097331
    Two-Electron Energy =                 623.9800134153666704
    Total Energy =                       -473.8362008147659026
  Basis Set: (AUG-CC-PVTZ AUX)
    Blend: AUG-CC-PVTZ-RI
    Molecular point group: c1

    Geometry (in Angstrom), charge = 0, multiplicity = 1:

       Center              X                  Y                   Z               Mass
    ------------   -----------------  -----------------  -----------------  -----------------
         O            1.114379866887    -1.257475802649     0.285423149100    15.994914619570
         O           -3.053529733113    -0.661558102649     0.356678349100    15.994914619570
         O           -1.728329733113     1.126831897351     0.853446349100    15.994914619570
         N            0.151856866887     0.371277197351    -1.067580250900    14.003074004430
         C            2.369284266887     0.729755897351    -0.181371650900    12.000000000000
         C            1.145569266887    -0.159277102649    -0.268106650900    12.000000000000
         C           -1.149544733113    -0.329978102649    -1.000175650900    12.000000000000
         C            3.480856266887     0.085942897351     0.630500349100    12.000000000000
         C           -1.965536733113     0.135571897351     0.186821349100    12.000000000000
         H            2.708576266887     0.956030897351    -1.198914650900     1.007825032230
         H            2.066856266887     1.687933897351     0.261154349100     1.007825032230
         H           -0.986908733113    -1.406589102649    -0.928754650900     1.007825032230
         H           -1.725116733113    -0.137369102649    -1.914648650900     1.007825032230
         H            0.106360266887     1.334582897351    -1.206014650900     1.007825032230
         H            3.780161266887    -0.863329102649     0.184940349100     1.007825032230
         H            4.351826266887     0.743625897351     0.674889349100     1.007825032230
         H            3.142859266887    -0.117473102649     1.646838349100     1.007825032230
         H           -3.554980733113    -0.284387102649     1.107486349100     1.007825032230

  Basis Set: AUG-CC-PVTZ
    Blend: AUG-CC-PVTZ
  Basis Set: (AUG-CC-PVTZ AUX)
    Blend: AUG-CC-PVTZ-JKFIT
	 Reference Energy          =    -473.8362008147659026 [Eh]
	 Singles Energy            =      -0.0000000000000000 [Eh]
	 Same-Spin Energy          =      -0.4664632193032343 [Eh]
	 Opposite-Spin Energy      =      -1.4577329516989717 [Eh]
	 Correlation Energy        =      -1.9241961710022060 [Eh]
	 Total Energy              =    -475.7603969857681250 [Eh]

	 ================> DF-SCS-MP2 Energies <==================
	-----------------------------------------------------------
	 SCS Same-Spin Scale       =       0.3333333333333333 [-]
	 SCS Opposite-Spin Scale   =       1.2000000000000000 [-]
	 SCS Same-Spin Energy      =      -0.1554877397677448 [Eh]
	 SCS Opposite-Spin Energy  =      -1.7492795420387659 [Eh]
	 SCS Correlation Energy    =      -1.9047672818065107 [Eh]
	 SCS Total Energy          =    -475.7409680965724306 [Eh]
	-----------------------------------------------------------

  Dipole Moment: [D]
     X:    -1.1932      Y:     1.7900      Z:    -1.7706     Total:     2.7861

*** Psi4 exiting successfully. Buy a developer a beer!
