                               Psi4 1.3.2 release

  ==> Input File <==

--------------------------------------------------------------------------
#psi4
#
memory 32 gb

molecule  {
0 1
  O        1.0830410    -1.2590340     0.2697030
  O       -3.0460190    -0.6564700     0.3579990
  O       -1.7208190     1.1319200     0.8547670
  N        0.1334480     0.3363350    -1.0591540
  C        2.3767950     0.7348440    -0.1800510
  C        1.1445296    -0.1765052    -0.2699651
  C       -1.1420340    -0.3248900    -0.9988550
  C        3.4883670     0.0910310     0.6318210
  C       -1.9580260     0.1406600     0.1881420
  H        2.7160870     0.9611190    -1.1975940
  H        2.0743670     1.6930220     0.2624750
  H       -0.9793980    -1.4015010    -0.9274340
  H       -1.7176060    -0.1322810    -1.9133280
  H        0.0994342     1.3377740    -1.2147536
  H        3.7876720    -0.8582410     0.1862610
  H        4.3593370     0.7487140     0.6762100
  H        3.1503700    -0.1123850     1.6481590
  H       -3.5474700    -0.2792990     1.1088070
units angstrom
no_reorient  #important for SAPT in psi4, default
symmetry c1  #important for SAPT in psi4, default
}

set PROPERTIES_ORIGIN ["COM"]
properties('MP2/aug-cc-pvtz', properties = ['dipole'])
--------------------------------------------------------------------------

    Molecular point group: c1
  Charge       = 0
  Multiplicity = 1
  Basis Set: AUG-CC-PVTZ
    Blend: AUG-CC-PVTZ
  Basis Set: (AUG-CC-PVTZ AUX)
    Blend: AUG-CC-PVTZ-JKFIT

    Orbital Energies [Eh]
    ---------------------

    Doubly Occupied:

       1A    -20.625497     2A    -20.562963     3A    -20.531564
       4A    -15.591623     5A    -11.398820     6A    -11.354951
       7A    -11.290193     8A    -11.242786     9A    -11.215371
      10A     -1.468554    11A     -1.396553    12A     -1.368936
      13A     -1.243509    14A     -1.059308    15A     -1.004976
      16A     -0.886371    17A     -0.823542    18A     -0.788441
      19A     -0.716060    20A     -0.712783    21A     -0.698469
      22A     -0.653484    23A     -0.644777    24A     -0.635596
      25A     -0.605439    26A     -0.601387    27A     -0.560294
      28A     -0.544105    29A     -0.524573    30A     -0.517144
      31A     -0.495384    32A     -0.492032    33A     -0.469926
      34A     -0.433170    35A     -0.411085

  @DF-RHF Final Energy:  -473.84056933858648

   => Energetics <=

    Nuclear Repulsion Energy =            458.1669129642279472
    One-Electron Energy =               -1556.8756360641166339
    Two-Electron Energy =                 624.8681537613022101
    Total Energy =                       -473.8405693385864197
  Basis Set: (AUG-CC-PVTZ AUX)
    Blend: AUG-CC-PVTZ-RI
    Molecular point group: c1

    Geometry (in Angstrom), charge = 0, multiplicity = 1:

       Center              X                  Y                   Z               Mass
    ------------   -----------------  -----------------  -----------------  -----------------
         O            1.083934962799    -1.256975963071     0.270071318903    15.994914619570
         O           -3.045125037201    -0.654411963071     0.358367318903    15.994914619570
         O           -1.719925037201     1.133978036929     0.855135318903    15.994914619570
         N            0.134341962799     0.338393036929    -1.058785681097    14.003074004430
         C            2.377688962799     0.736902036929    -0.179682681097    12.000000000000
         C            1.145423562799    -0.174447163071    -0.269596781097    12.000000000000
         C           -1.141140037201    -0.322831963071    -0.998486681097    12.000000000000
         C            3.489260962799     0.093089036929     0.632189318903    12.000000000000
         C           -1.957132037201     0.142718036929     0.188510318903    12.000000000000
         H            2.716980962799     0.963177036929    -1.197225681097     1.007825032230
         H            2.075260962799     1.695080036929     0.262843318903     1.007825032230
         H           -0.978504037201    -1.399442963071    -0.927065681097     1.007825032230
         H           -1.716712037201    -0.130222963071    -1.912959681097     1.007825032230
         H            0.100328162799     1.339832036929    -1.214385281097     1.007825032230
         H            3.788565962799    -0.856182963071     0.186629318903     1.007825032230
         H            4.360230962799     0.750772036929     0.676578318903     1.007825032230
         H            3.151263962799    -0.110326963071     1.648527318903     1.007825032230
         H           -3.546576037201    -0.277240963071     1.109175318903     1.007825032230

  Basis Set: AUG-CC-PVTZ
    Blend: AUG-CC-PVTZ
  Basis Set: (AUG-CC-PVTZ AUX)
    Blend: AUG-CC-PVTZ-JKFIT
	 Reference Energy          =    -473.8405693385864765 [Eh]
	 Singles Energy            =      -0.0000000000000000 [Eh]
	 Same-Spin Energy          =      -0.4662716965547636 [Eh]
	 Opposite-Spin Energy      =      -1.4568301848048537 [Eh]
	 Correlation Energy        =      -1.9231018813596172 [Eh]
	 Total Energy              =    -475.7636712199461044 [Eh]

	 ================> DF-SCS-MP2 Energies <==================
	-----------------------------------------------------------
	 SCS Same-Spin Scale       =       0.3333333333333333 [-]
	 SCS Opposite-Spin Scale   =       1.2000000000000000 [-]
	 SCS Same-Spin Energy      =      -0.1554238988515879 [Eh]
	 SCS Opposite-Spin Energy  =      -1.7481962217658245 [Eh]
	 SCS Correlation Energy    =      -1.9036201206174124 [Eh]
	 SCS Total Energy          =    -475.7441894592038807 [Eh]
	-----------------------------------------------------------

  Dipole Moment: [D]
     X:    -0.9994      Y:     1.7865      Z:    -1.7352     Total:     2.6835

*** Psi4 exiting successfully. Buy a developer a beer!
