                               Psi4 1.3.2 release

  ==> Input File <==

--------------------------------------------------------------------------
#psi4
#
memory 32 gb

molecule  {
0 1
  O        1.0830410    -1.2590340     0.2697030
  O       -3.0460190    -0.6564700     0.3579990
  O       -1.7208190     1.1319200     0.8547670
  N        0.1334480     0.3363350    -1.0591540
  C        2.3767950     0.7348440    -0.1800510
  C        1.1530800    -0.1541890    -0.2667860
  C       -1.1420340    -0.3248900    -0.9988550
  C        3.4883670     0.0910310     0.6318210
  C       -1.9775029     0.0592683     0.1334059
  H        2.7160870     0.9611190    -1.1975940
  H        2.0743670     1.6930220     0.2624750
  H       -0.9793980    -1.4015010    -0.9274340
  H       -1.7176060    -0.1322810    -1.9133280
  H        0.1138710     1.3396710    -1.2046940
  H        3.7876720    -0.8582410     0.1862610
  H        4.3593370     0.7487140     0.6762100
  H        3.1503700    -0.1123850     1.6481590
  H       -3.5474700    -0.2792990     1.1088070
units angstrom
no_reorient  #important for SAPT in psi4, default
symmetry c1  #important for SAPT in psi4, default
}

set PROPERTIES_ORIGIN ["COM"]
properties('MP2/aug-cc-pvtz', properties = ['dipole'])
--------------------------------------------------------------------------

    Molecular point group: c1
  Charge       = 0
  Multiplicity = 1
  Basis Set: AUG-CC-PVTZ
    Blend: AUG-CC-PVTZ
  Basis Set: (AUG-CC-PVTZ AUX)
    Blend: AUG-CC-PVTZ-JKFIT

    Orbital Energies [Eh]
    ---------------------

    Doubly Occupied:

       1A    -20.642413     2A    -20.543892     3A    -20.529451
       4A    -15.595127     5A    -11.406875     6A    -11.357031
       7A    -11.294342     8A    -11.244016     9A    -11.216166
      10A     -1.486121    11A     -1.385483    12A     -1.314415
      13A     -1.242158    14A     -1.067038    15A     -1.022670
      16A     -0.896701    17A     -0.842862    18A     -0.787938
      19A     -0.722059    20A     -0.714234    21A     -0.700740
      22A     -0.659379    23A     -0.651786    24A     -0.636156
      25A     -0.603833    26A     -0.580396    27A     -0.562660
      28A     -0.538088    29A     -0.525813    30A     -0.517169
      31A     -0.493553    32A     -0.457876    33A     -0.455420
      34A     -0.435485    35A     -0.414051

  @DF-RHF Final Energy:  -473.81840537085156

   => Energetics <=

    Nuclear Repulsion Energy =            457.7607660747201521
    One-Electron Energy =               -1556.0715515653814691
    Two-Electron Energy =                 624.4923801198098090
    Total Energy =                       -473.8184053708515648
  Basis Set: (AUG-CC-PVTZ AUX)
    Blend: AUG-CC-PVTZ-RI
    Molecular point group: c1

    Geometry (in Angstrom), charge = 0, multiplicity = 1:

       Center              X                  Y                   Z               Mass
    ------------   -----------------  -----------------  -----------------  -----------------
         O            1.084824401179    -1.251581459537     0.274714641358    15.994914619570
         O           -3.044235598821    -0.649017459537     0.363010641358    15.994914619570
         O           -1.719035598821     1.139372540463     0.859778641358    15.994914619570
         N            0.135231401179     0.343787540463    -1.054142358642    14.003074004430
         C            2.378578401179     0.742296540463    -0.175039358642    12.000000000000
         C            1.154863401179    -0.146736459537    -0.261774358642    12.000000000000
         C           -1.140250598821    -0.317437459537    -0.993843358642    12.000000000000
         C            3.490150401179     0.098483540463     0.636832641358    12.000000000000
         C           -1.975719498821     0.066720840463     0.138417541358    12.000000000000
         H            2.717870401179     0.968571540463    -1.192582358642     1.007825032230
         H            2.076150401179     1.700474540463     0.267486641358     1.007825032230
         H           -0.977614598821    -1.394048459537    -0.922422358642     1.007825032230
         H           -1.715822598821    -0.124828459537    -1.908316358642     1.007825032230
         H            0.115654401179     1.347123540463    -1.199682358642     1.007825032230
         H            3.789455401179    -0.850788459537     0.191272641358     1.007825032230
         H            4.361120401179     0.756166540463     0.681221641358     1.007825032230
         H            3.152153401179    -0.104932459537     1.653170641358     1.007825032230
         H           -3.545686598821    -0.271846459537     1.113818641358     1.007825032230

  Basis Set: AUG-CC-PVTZ
    Blend: AUG-CC-PVTZ
  Basis Set: (AUG-CC-PVTZ AUX)
    Blend: AUG-CC-PVTZ-JKFIT
	 Reference Energy          =    -473.8184053708515648 [Eh]
	 Singles Energy            =      -0.0000000000000000 [Eh]
	 Same-Spin Energy          =      -0.4686727285341368 [Eh]
	 Opposite-Spin Energy      =      -1.4610085407897040 [Eh]
	 Correlation Energy        =      -1.9296812693238408 [Eh]
	 Total Energy              =    -475.7480866401754156 [Eh]

	 ================> DF-SCS-MP2 Energies <==================
	-----------------------------------------------------------
	 SCS Same-Spin Scale       =       0.3333333333333333 [-]
	 SCS Opposite-Spin Scale   =       1.2000000000000000 [-]
	 SCS Same-Spin Energy      =      -0.1562242428447123 [Eh]
	 SCS Opposite-Spin Energy  =      -1.7532102489476447 [Eh]
	 SCS Correlation Energy    =      -1.9094344917923569 [Eh]
	 SCS Total Energy          =    -475.7278398626439184 [Eh]
	-----------------------------------------------------------

  Dipole Moment: [D]
     X:    -1.1889      Y:     1.3463      Z:    -1.9813     Total:     2.6743

*** Psi4 exiting successfully. Buy a developer a beer!
