                               Psi4 1.4a3.dev225

  ==> Input File <==

--------------------------------------------------------------------------
#psi4
#
memory 32 gb

molecule  {
0 1
  O        0.8764270    -0.2428500     1.2911470
  O       -3.1675390     0.0980960     0.5443480
  O       -1.5839830     1.3406500    -0.5070920
  N        0.0834400    -0.8734940    -0.7544630
  C        2.2681300     0.2178930    -0.6380450
  C        1.0330250    -0.3000120     0.0721840
  C       -1.2394860    -1.0499030    -0.2084880
  C        3.4385850     0.4137260     0.3159750
  C       -1.9785770     0.2694000    -0.0851210
  H        2.5310470    -0.4685700    -1.4513520
  H        1.9929790     1.1708880    -1.1091590
  H       -1.1549390    -1.4972460     0.7835340
  H       -1.8230450    -1.7308360    -0.8360530
  H        0.1260153    -0.6158623    -1.6826734
  H        3.7379630    -0.5375510     0.7615240
  H        4.2975370     0.8343390    -0.2133880
  H        3.1581410     1.0869690     1.1269820
  H       -3.5812870     0.9851770     0.5837010
units angstrom
no_reorient  #important for SAPT in psi4, default
symmetry c1  #important for SAPT in psi4, default
}

set PROPERTIES_ORIGIN ["COM"]
properties('MP2/aug-cc-pvtz', properties = ['dipole'])
--------------------------------------------------------------------------

    Molecular point group: c1
  Charge       = 0
  Multiplicity = 1
  Basis Set: AUG-CC-PVTZ
    Blend: AUG-CC-PVTZ
  Basis Set: (AUG-CC-PVTZ AUX)
    Blend: AUG-CC-PVTZ-JKFIT

    Orbital Energies [Eh]
    ---------------------

    Doubly Occupied:

       1A    -20.624793     2A    -20.561101     3A    -20.527789
       4A    -15.588666     5A    -11.397919     6A    -11.355410
       7A    -11.292080     8A    -11.244005     9A    -11.217666
      10A     -1.469324    11A     -1.384392    12A     -1.366917
      13A     -1.247245    14A     -1.062499    15A     -1.006688
      16A     -0.890077    17A     -0.825154    18A     -0.794884
      19A     -0.716222    20A     -0.711465    21A     -0.698612
      22A     -0.653477    23A     -0.647460    24A     -0.630503
      25A     -0.604873    26A     -0.599672    27A     -0.561186
      28A     -0.544609    29A     -0.524262    30A     -0.515305
      31A     -0.495228    32A     -0.489830    33A     -0.469170
      34A     -0.432979    35A     -0.411923

  @DF-RHF Final Energy:  -473.83944287614815

   => Energetics <=

    Nuclear Repulsion Energy =            460.7772344827384927
    One-Electron Energy =               -1562.1065869174715317
    Two-Electron Energy =                 627.4899095585848272
    Total Energy =                       -473.8394428761481549
  Basis Set: (AUG-CC-PVTZ AUX)
    Blend: AUG-CC-PVTZ-RI
    Molecular point group: c1

    Geometry (in Angstrom), charge = 0, multiplicity = 1:

       Center              X                  Y                   Z               Mass
    ------------   -----------------  -----------------  -----------------  -----------------
         O            0.946595887007    -0.248428913846     1.275061569538    15.994914619570
         O           -3.097370112993     0.092517086154     0.528262569538    15.994914619570
         O           -1.513814112993     1.335071086154    -0.523177430462    15.994914619570
         N            0.153608887007    -0.879072913846    -0.770548430462    14.003074004430
         C            2.338298887007     0.212314086154    -0.654130430462    12.000000000000
         C            1.103193887007    -0.305590913846     0.056098569538    12.000000000000
         C           -1.169317112993    -1.055481913846    -0.224573430462    12.000000000000
         C            3.508753887007     0.408147086154     0.299889569538    12.000000000000
         C           -1.908408112993     0.263821086154    -0.101206430462    12.000000000000
         H            2.601215887007    -0.474148913846    -1.467437430462     1.007825032230
         H            2.063147887007     1.165309086154    -1.125244430462     1.007825032230
         H           -1.084770112993    -1.502824913846     0.767448569538     1.007825032230
         H           -1.752876112993    -1.736414913846    -0.852138430462     1.007825032230
         H            0.196184187007    -0.621441213846    -1.698758830462     1.007825032230
         H            3.808131887007    -0.543129913846     0.745438569538     1.007825032230
         H            4.367705887007     0.828760086154    -0.229473430462     1.007825032230
         H            3.228309887007     1.081390086154     1.110896569538     1.007825032230
         H           -3.511118112993     0.979598086154     0.567615569538     1.007825032230

  Basis Set: AUG-CC-PVTZ
    Blend: AUG-CC-PVTZ
  Basis Set: (AUG-CC-PVTZ AUX)
    Blend: AUG-CC-PVTZ-JKFIT
	 Reference Energy          =    -473.8394428761481549 [Eh]
	 Singles Energy            =      -0.0000000000000000 [Eh]
	 Same-Spin Energy          =      -0.4664685363459893 [Eh]
	 Opposite-Spin Energy      =      -1.4571444033018519 [Eh]
	 Correlation Energy        =      -1.9236129396478412 [Eh]
	 Total Energy              =    -475.7630558157960081 [Eh]

	 ================> DF-SCS-MP2 Energies <==================
	-----------------------------------------------------------
	 SCS Same-Spin Scale       =       0.3333333333333333 [-]
	 SCS Opposite-Spin Scale   =       1.2000000000000000 [-]
	 SCS Same-Spin Energy      =      -0.1554895121153298 [Eh]
	 SCS Opposite-Spin Energy  =      -1.7485732839622223 [Eh]
	 SCS Correlation Energy    =      -1.9040627960775520 [Eh]
	 SCS Total Energy          =    -475.7435056722256945 [Eh]
	-----------------------------------------------------------

  Dipole Moment: [D]
     X:    -0.8969      Y:    -0.7895      Z:    -2.6262     Total:     2.8852

*** Psi4 exiting successfully. Buy a developer a beer!
