                               Psi4 1.4a3.dev225

  ==> Input File <==

--------------------------------------------------------------------------
#psi4
#
memory 32 gb

molecule  {
0 1
  O        0.8764270    -0.2428500     1.2911470
  O       -3.1675390     0.0980960     0.5443480
  O       -1.5839830     1.3406500    -0.5070920
  N        0.0834400    -0.8734940    -0.7544630
  C        2.2681300     0.2178930    -0.6380450
  C        1.0355707    -0.3009412     0.0523684
  C       -1.2394860    -1.0499030    -0.2084880
  C        3.4385850     0.4137260     0.3159750
  C       -1.9785770     0.2694000    -0.0851210
  H        2.5310470    -0.4685700    -1.4513520
  H        1.9929790     1.1708880    -1.1091590
  H       -1.1549390    -1.4972460     0.7835340
  H       -1.8230450    -1.7308360    -0.8360530
  H        0.1282230    -0.6025030    -1.7308050
  H        3.7379630    -0.5375510     0.7615240
  H        4.2975370     0.8343390    -0.2133880
  H        3.1581410     1.0869690     1.1269820
  H       -3.5812870     0.9851770     0.5837010
units angstrom
no_reorient  #important for SAPT in psi4, default
symmetry c1  #important for SAPT in psi4, default
}

set PROPERTIES_ORIGIN ["COM"]
properties('MP2/aug-cc-pvtz', properties = ['dipole'])
--------------------------------------------------------------------------

    Molecular point group: c1
  Charge       = 0
  Multiplicity = 1
  Basis Set: AUG-CC-PVTZ
    Blend: AUG-CC-PVTZ
  Basis Set: (AUG-CC-PVTZ AUX)
    Blend: AUG-CC-PVTZ-JKFIT

    Orbital Energies [Eh]
    ---------------------

    Doubly Occupied:

       1A    -20.625036     2A    -20.561274     3A    -20.523788
       4A    -15.596281     5A    -11.398402     6A    -11.356039
       7A    -11.293326     8A    -11.244490     9A    -11.217824
      10A     -1.469534    11A     -1.374189    12A     -1.365186
      13A     -1.242101    14A     -1.064444    15A     -1.007096
      16A     -0.891269    17A     -0.826191    18A     -0.785607
      19A     -0.716177    20A     -0.711449    21A     -0.697728
      22A     -0.653409    23A     -0.646587    24A     -0.630817
      25A     -0.603144    26A     -0.595434    27A     -0.558876
      28A     -0.542908    29A     -0.523457    30A     -0.514316
      31A     -0.494785    32A     -0.489456    33A     -0.468462
      34A     -0.431278    35A     -0.410425

  @DF-RHF Final Energy:  -473.83754446198662

   => Energetics <=

    Nuclear Repulsion Energy =            460.3694859976608882
    One-Electron Energy =               -1561.3524915144732859
    Two-Electron Energy =                 627.1454610548257733
    Total Energy =                       -473.8375444619866812
  Basis Set: (AUG-CC-PVTZ AUX)
    Blend: AUG-CC-PVTZ-RI
    Molecular point group: c1

    Geometry (in Angstrom), charge = 0, multiplicity = 1:

       Center              X                  Y                   Z               Mass
    ------------   -----------------  -----------------  -----------------  -----------------
         O            0.946345819750    -0.248446565822     1.277246059612    15.994914619570
         O           -3.097620180250     0.092499434178     0.530447059612    15.994914619570
         O           -1.514064180250     1.335053434178    -0.520992940388    15.994914619570
         N            0.153358819750    -0.879090565822    -0.768363940388    14.003074004430
         C            2.338048819750     0.212296434178    -0.651945940388    12.000000000000
         C            1.105489519750    -0.306537765822     0.038467459612    12.000000000000
         C           -1.169567180250    -1.055499565822    -0.222388940388    12.000000000000
         C            3.508503819750     0.408129434178     0.302074059612    12.000000000000
         C           -1.908658180250     0.263803434178    -0.099021940388    12.000000000000
         H            2.600965819750    -0.474166565822    -1.465252940388     1.007825032230
         H            2.062897819750     1.165291434178    -1.123059940388     1.007825032230
         H           -1.085020180250    -1.502842565822     0.769633059612     1.007825032230
         H           -1.753126180250    -1.736432565822    -0.849953940388     1.007825032230
         H            0.198141819750    -0.608099565822    -1.744705940388     1.007825032230
         H            3.807881819750    -0.543147565822     0.747623059612     1.007825032230
         H            4.367455819750     0.828742434178    -0.227288940388     1.007825032230
         H            3.228059819750     1.081372434178     1.113081059612     1.007825032230
         H           -3.511368180250     0.979580434178     0.569800059612     1.007825032230

  Basis Set: AUG-CC-PVTZ
    Blend: AUG-CC-PVTZ
  Basis Set: (AUG-CC-PVTZ AUX)
    Blend: AUG-CC-PVTZ-JKFIT
	 Reference Energy          =    -473.8375444619866244 [Eh]
	 Singles Energy            =      -0.0000000000000000 [Eh]
	 Same-Spin Energy          =      -0.4672891954389374 [Eh]
	 Opposite-Spin Energy      =      -1.4588550077710614 [Eh]
	 Correlation Energy        =      -1.9261442032099989 [Eh]
	 Total Energy              =    -475.7636886651966392 [Eh]

	 ================> DF-SCS-MP2 Energies <==================
	-----------------------------------------------------------
	 SCS Same-Spin Scale       =       0.3333333333333333 [-]
	 SCS Opposite-Spin Scale   =       1.2000000000000000 [-]
	 SCS Same-Spin Energy      =      -0.1557630651463125 [Eh]
	 SCS Opposite-Spin Energy  =      -1.7506260093252737 [Eh]
	 SCS Correlation Energy    =      -1.9063890744715861 [Eh]
	 SCS Total Energy          =    -475.7439335364582007 [Eh]
	-----------------------------------------------------------

  Dipole Moment: [D]
     X:    -0.9312      Y:    -0.8009      Z:    -2.7782     Total:     3.0376

*** Psi4 exiting successfully. Buy a developer a beer!
