                               Psi4 1.3.2 release

  ==> Input File <==

--------------------------------------------------------------------------
#psi4
#
memory 32 gb

molecule  {
0 1
  O        1.0830410    -1.2590340     0.2697030
  O       -3.0460190    -0.6564700     0.3579990
  O       -1.7208190     1.1319200     0.8547670
  N        0.1334480     0.3363350    -1.0591540
  C        2.3767950     0.7348440    -0.1800510
  C        1.1381444    -0.1711801    -0.2584519
  C       -1.1326548    -0.3409710    -0.9820242
  C        3.4883670     0.0910310     0.6318210
  C       -1.9580260     0.1406600     0.1881420
  H        2.7160870     0.9611190    -1.1975940
  H        2.0743670     1.6930220     0.2624750
  H       -0.9793980    -1.4015010    -0.9274340
  H       -1.7176060    -0.1322810    -1.9133280
  H        0.1138710     1.3396710    -1.2046940
  H        3.7876720    -0.8582410     0.1862610
  H        4.3593370     0.7487140     0.6762100
  H        3.1503700    -0.1123850     1.6481590
  H       -3.5474700    -0.2792990     1.1088070
units angstrom
no_reorient  #important for SAPT in psi4, default
symmetry c1  #important for SAPT in psi4, default
}

set PROPERTIES_ORIGIN ["COM"]
properties('MP2/aug-cc-pvtz', properties = ['dipole'])
--------------------------------------------------------------------------

    Molecular point group: c1
  Charge       = 0
  Multiplicity = 1
  Basis Set: AUG-CC-PVTZ
    Blend: AUG-CC-PVTZ
  Basis Set: (AUG-CC-PVTZ AUX)
    Blend: AUG-CC-PVTZ-JKFIT

    Orbital Energies [Eh]
    ---------------------

    Doubly Occupied:

       1A    -20.625576     2A    -20.563287     3A    -20.531584
       4A    -15.591858     5A    -11.399121     6A    -11.354156
       7A    -11.290867     8A    -11.242668     9A    -11.215321
      10A     -1.468848    11A     -1.397159    12A     -1.369230
      13A     -1.244112    14A     -1.059194    15A     -1.005579
      16A     -0.886027    17A     -0.823320    18A     -0.788589
      19A     -0.716484    20A     -0.713828    21A     -0.696812
      22A     -0.652366    23A     -0.647222    24A     -0.635265
      25A     -0.606169    26A     -0.601007    27A     -0.562119
      28A     -0.543510    29A     -0.523821    30A     -0.517053
      31A     -0.495397    32A     -0.492266    33A     -0.470560
      34A     -0.432816    35A     -0.411684

  @DF-RHF Final Energy:  -473.83980318965524

   => Energetics <=

    Nuclear Repulsion Energy =            458.4114846771307157
    One-Electron Energy =               -1557.3528301704600381
    Two-Electron Energy =                 625.1015423036739094
    Total Energy =                       -473.8398031896552993
  Basis Set: (AUG-CC-PVTZ AUX)
    Blend: AUG-CC-PVTZ-RI
    Molecular point group: c1

    Geometry (in Angstrom), charge = 0, multiplicity = 1:

       Center              X                  Y                   Z               Mass
    ------------   -----------------  -----------------  -----------------  -----------------
         O            1.083549807564    -1.256005715394     0.267398718475    15.994914619570
         O           -3.045510192436    -0.653441715394     0.355694718475    15.994914619570
         O           -1.720310192436     1.134948284606     0.852462718475    15.994914619570
         N            0.133956807564     0.339363284606    -1.061458281525    14.003074004430
         C            2.377303807564     0.737872284606    -0.182355281525    12.000000000000
         C            1.138653207564    -0.168151815394    -0.260756181525    12.000000000000
         C           -1.132145992436    -0.337942715394    -0.984328481525    12.000000000000
         C            3.488875807564     0.094059284606     0.629516718475    12.000000000000
         C           -1.957517192436     0.143688284606     0.185837718475    12.000000000000
         H            2.716595807564     0.964147284606    -1.199898281525     1.007825032230
         H            2.074875807564     1.696050284606     0.260170718475     1.007825032230
         H           -0.978889192436    -1.398472715394    -0.929738281525     1.007825032230
         H           -1.717097192436    -0.129252715394    -1.915632281525     1.007825032230
         H            0.114379807564     1.342699284606    -1.206998281525     1.007825032230
         H            3.788180807564    -0.855212715394     0.183956718475     1.007825032230
         H            4.359845807564     0.751742284606     0.673905718475     1.007825032230
         H            3.150878807564    -0.109356715394     1.645854718475     1.007825032230
         H           -3.546961192436    -0.276270715394     1.106502718475     1.007825032230

  Basis Set: AUG-CC-PVTZ
    Blend: AUG-CC-PVTZ
  Basis Set: (AUG-CC-PVTZ AUX)
    Blend: AUG-CC-PVTZ-JKFIT
	 Reference Energy          =    -473.8398031896552425 [Eh]
	 Singles Energy            =      -0.0000000000000000 [Eh]
	 Same-Spin Energy          =      -0.4662744794710656 [Eh]
	 Opposite-Spin Energy      =      -1.4568176596976881 [Eh]
	 Correlation Energy        =      -1.9230921391687537 [Eh]
	 Total Energy              =    -475.7628953288240155 [Eh]

	 ================> DF-SCS-MP2 Energies <==================
	-----------------------------------------------------------
	 SCS Same-Spin Scale       =       0.3333333333333333 [-]
	 SCS Opposite-Spin Scale   =       1.2000000000000000 [-]
	 SCS Same-Spin Energy      =      -0.1554248264903552 [Eh]
	 SCS Opposite-Spin Energy  =      -1.7481811916372256 [Eh]
	 SCS Correlation Energy    =      -1.9036060181275809 [Eh]
	 SCS Total Energy          =    -475.7434092077828041 [Eh]
	-----------------------------------------------------------

  Dipole Moment: [D]
     X:    -0.9961      Y:     1.7741      Z:    -1.7074     Total:     2.6561

*** Psi4 exiting successfully. Buy a developer a beer!
