                               Psi4 1.3.2 release

  ==> Input File <==

--------------------------------------------------------------------------
#psi4
#
memory 32 gb

molecule  {
0 1
  O        1.0830410    -1.2590340     0.2697030
  O       -3.0460190    -0.6564700     0.3579990
  O       -1.7208190     1.1319200     0.8547670
  N        0.1334480     0.3363350    -1.0591540
  C        2.3767950     0.7348440    -0.1800510
  C        1.1960057    -0.1023401    -0.2932261
  C       -1.1678296    -0.2754583    -1.0494370
  C        3.4883670     0.0910310     0.6318210
  C       -1.9580260     0.1406600     0.1881420
  H        2.7160870     0.9611190    -1.1975940
  H        2.0743670     1.6930220     0.2624750
  H       -0.9793980    -1.4015010    -0.9274340
  H       -1.7176060    -0.1322810    -1.9133280
  H        0.1138710     1.3396710    -1.2046940
  H        3.7876720    -0.8582410     0.1862610
  H        4.3593370     0.7487140     0.6762100
  H        3.1503700    -0.1123850     1.6481590
  H       -3.5474700    -0.2792990     1.1088070
units angstrom
no_reorient  #important for SAPT in psi4, default
symmetry c1  #important for SAPT in psi4, default
}

set PROPERTIES_ORIGIN ["COM"]
properties('MP2/aug-cc-pvtz', properties = ['dipole'])
--------------------------------------------------------------------------

    Molecular point group: c1
  Charge       = 0
  Multiplicity = 1
  Basis Set: AUG-CC-PVTZ
    Blend: AUG-CC-PVTZ
  Basis Set: (AUG-CC-PVTZ AUX)
    Blend: AUG-CC-PVTZ-JKFIT

    Orbital Energies [Eh]
    ---------------------

    Doubly Occupied:

       1A    -20.625456     2A    -20.562074     3A    -20.520454
       4A    -15.596950     5A    -11.399406     6A    -11.362600
       7A    -11.292508     8A    -11.247863     9A    -11.219948
      10A     -1.467783    11A     -1.369272    12A     -1.350179
      13A     -1.234043    14A     -1.077489    15A     -1.008207
      16A     -0.900687    17A     -0.829872    18A     -0.777859
      19A     -0.716714    20A     -0.711156    21A     -0.704819
      22A     -0.661467    23A     -0.643895    24A     -0.635616
      25A     -0.603601    26A     -0.592057    27A     -0.545628
      28A     -0.535172    29A     -0.532136    30A     -0.516099
      31A     -0.495056    32A     -0.489226    33A     -0.464585
      34A     -0.432155    35A     -0.403151

  @DF-RHF Final Energy:  -473.81924454681871

   => Energetics <=

    Nuclear Repulsion Energy =            456.9371143251120202
    One-Electron Energy =               -1554.4623504488388335
    Two-Electron Energy =                 623.7059915769079907
    Total Energy =                       -473.8192445468187088
  Basis Set: (AUG-CC-PVTZ AUX)
    Blend: AUG-CC-PVTZ-RI
    Molecular point group: c1

    Geometry (in Angstrom), charge = 0, multiplicity = 1:

       Center              X                  Y                   Z               Mass
    ------------   -----------------  -----------------  -----------------  -----------------
         O            1.081472578437    -1.268307363587     0.276755199766    15.994914619570
         O           -3.047587421563    -0.665743363587     0.365051199766    15.994914619570
         O           -1.722387421563     1.122646636413     0.861819199766    15.994914619570
         N            0.131879578437     0.327061636413    -1.052101800234    14.003074004430
         C            2.375226578437     0.725570636413    -0.172998800234    12.000000000000
         C            1.194437278437    -0.111613463587    -0.286173900234    12.000000000000
         C           -1.169398021563    -0.284731663587    -1.042384800234    12.000000000000
         C            3.486798578437     0.081757636413     0.638873199766    12.000000000000
         C           -1.959594421563     0.131386636413     0.195194199766    12.000000000000
         H            2.714518578437     0.951845636413    -1.190541800234     1.007825032230
         H            2.072798578437     1.683748636413     0.269527199766     1.007825032230
         H           -0.980966421563    -1.410774363587    -0.920381800234     1.007825032230
         H           -1.719174421563    -0.141554363587    -1.906275800234     1.007825032230
         H            0.112302578437     1.330397636413    -1.197641800234     1.007825032230
         H            3.786103578437    -0.867514363587     0.193313199766     1.007825032230
         H            4.357768578437     0.739440636413     0.683262199766     1.007825032230
         H            3.148801578437    -0.121658363587     1.655211199766     1.007825032230
         H           -3.549038421563    -0.288572363587     1.115859199766     1.007825032230

  Basis Set: AUG-CC-PVTZ
    Blend: AUG-CC-PVTZ
  Basis Set: (AUG-CC-PVTZ AUX)
    Blend: AUG-CC-PVTZ-JKFIT
	 Reference Energy          =    -473.8192445468187088 [Eh]
	 Singles Energy            =      -0.0000000000000000 [Eh]
	 Same-Spin Energy          =      -0.4686891248830397 [Eh]
	 Opposite-Spin Energy      =      -1.4616429303335847 [Eh]
	 Correlation Energy        =      -1.9303320552166243 [Eh]
	 Total Energy              =    -475.7495766020353472 [Eh]

	 ================> DF-SCS-MP2 Energies <==================
	-----------------------------------------------------------
	 SCS Same-Spin Scale       =       0.3333333333333333 [-]
	 SCS Opposite-Spin Scale   =       1.2000000000000000 [-]
	 SCS Same-Spin Energy      =      -0.1562297082943465 [Eh]
	 SCS Opposite-Spin Energy  =      -1.7539715164003016 [Eh]
	 SCS Correlation Energy    =      -1.9102012246946480 [Eh]
	 SCS Total Energy          =    -475.7294457715133831 [Eh]
	-----------------------------------------------------------

  Dipole Moment: [D]
     X:    -0.8257      Y:     2.1688      Z:    -1.8548     Total:     2.9709

*** Psi4 exiting successfully. Buy a developer a beer!
