                               Psi4 1.4a3.dev225

  ==> Input File <==

--------------------------------------------------------------------------
#psi4
#
memory 32 gb

molecule  {
0 1
  I        1.5544000     0.0000000    -0.0000560
  C       -0.5374020     0.0000000     0.0000193
  C       -1.2475700    -1.2180840     0.0000490
  C       -1.2475700     1.2180840     0.0000400
  C       -2.6465850    -1.2090920     0.0000990
  C       -2.6465850     1.2090920     0.0000900
  C       -3.3492890     0.0000000     0.0001200
  H       -0.7049610    -2.1578320     0.0000340
  H       -0.7049610     2.1578320     0.0000170
  H       -3.1840510    -2.1533320     0.0001220
  H       -3.1840510     2.1533320     0.0001050
  H       -4.4351490     0.0000000     0.0001590
units angstrom
no_reorient  #important for SAPT in psi4, default
symmetry c1  #important for SAPT in psi4, default
}

set PROPERTIES_ORIGIN ["COM"]
properties('MP2/aug-cc-pvtz', properties = ['dipole'])
--------------------------------------------------------------------------

    Molecular point group: c1
  Charge       = 0
  Multiplicity = 1
  Basis Set: AUG-CC-PVTZ
    Blend: AUG-CC-PVTZ
  Basis Set: (AUG-CC-PVTZ AUX)
    Blend: AUG-CC-PVTZ-JKFIT + DEF2-UNIVERSAL-JKFIT

    Orbital Energies [Eh]
    ---------------------

    Doubly Occupied:

       1A    -11.295706     2A    -11.257003     3A    -11.256971
       4A    -11.252707     5A    -11.252245     6A    -11.250725
       7A     -7.723012     8A     -5.554841     9A     -5.545093
      10A     -5.545037    11A     -2.284633    12A     -2.279519
      13A     -2.279511    14A     -2.268663    15A     -2.268656
      16A     -1.163956    17A     -1.036529    18A     -1.028832
      19A     -0.901899    20A     -0.840636    21A     -0.807250
      22A     -0.705756    23A     -0.640684    24A     -0.638142
      25A     -0.601479    26A     -0.563082    27A     -0.522781
      28A     -0.511140    29A     -0.464958    30A     -0.404181
      31A     -0.372662    32A     -0.350855    33A     -0.324133

  @DF-RHF Final Energy:  -524.85226312790508

   => Energetics <=

    Nuclear Repulsion Energy =            351.3694088947797809
    One-Electron Energy =               -1522.0567938636540930
    Two-Electron Energy =                 645.8351218409692365
    Total Energy =                       -524.8522631279050756
  Basis Set: (AUG-CC-PVTZ AUX)
    Blend: AUG-CC-PVTZ-RI + DEF2-QZVPP-RI
    Molecular point group: c1

    Geometry (in Angstrom), charge = 0, multiplicity = 1:

       Center              X                  Y                   Z               Mass
    ------------   -----------------  -----------------  -----------------  -----------------
         I            1.334478618327     0.000000000000    -0.000047867208   126.904471900000
         C           -0.757323381673     0.000000000000     0.000027432792    12.000000000000
         C           -1.467491381673    -1.218084000000     0.000057132792    12.000000000000
         C           -1.467491381673     1.218084000000     0.000048132792    12.000000000000
         C           -2.866506381673    -1.209092000000     0.000107132792    12.000000000000
         C           -2.866506381673     1.209092000000     0.000098132792    12.000000000000
         C           -3.569210381673     0.000000000000     0.000128132792    12.000000000000
         H           -0.924882381673    -2.157832000000     0.000042132792     1.007825032230
         H           -0.924882381673     2.157832000000     0.000025132792     1.007825032230
         H           -3.403972381673    -2.153332000000     0.000130132792     1.007825032230
         H           -3.403972381673     2.153332000000     0.000113132792     1.007825032230
         H           -4.655070381673     0.000000000000     0.000167132792     1.007825032230

  Basis Set: AUG-CC-PVTZ
    Blend: AUG-CC-PVTZ
  Basis Set: (AUG-CC-PVTZ AUX)
    Blend: AUG-CC-PVTZ-JKFIT + DEF2-UNIVERSAL-JKFIT
	 Reference Energy          =    -524.8522631279050756 [Eh]
	 Singles Energy            =      -0.0000000000000000 [Eh]
	 Same-Spin Energy          =      -0.3375642902303062 [Eh]
	 Opposite-Spin Energy      =      -0.9870088714666342 [Eh]
	 Correlation Energy        =      -1.3245731616969403 [Eh]
	 Total Energy              =    -526.1768362896019653 [Eh]

	 ================> DF-SCS-MP2 Energies <==================
	-----------------------------------------------------------
	 SCS Same-Spin Scale       =       0.3333333333333333 [-]
	 SCS Opposite-Spin Scale   =       1.2000000000000000 [-]
	 SCS Same-Spin Energy      =      -0.1125214300767687 [Eh]
	 SCS Opposite-Spin Energy  =      -1.1844106457599610 [Eh]
	 SCS Correlation Energy    =      -1.2969320758367298 [Eh]
	 SCS Total Energy          =    -526.1491952037417832 [Eh]
	-----------------------------------------------------------

  Dipole Moment: [D]
     X:    -1.5573      Y:     0.0000      Z:     0.0001     Total:     1.5573

*** Psi4 exiting successfully. Buy a developer a beer!
