                               Psi4 1.4a2.dev612

  ==> Input File <==

--------------------------------------------------------------------------
#psi4
#
memory 32 gb

molecule  {
0 1
  I        1.5544000     0.0000000    -0.0000560
  C       -0.3574020     0.0000000     0.0000128
  C       -1.2475700    -1.2180840     0.0000490
  C       -1.2475700     1.2180840     0.0000400
  C       -2.6465850    -1.2090920     0.0000990
  C       -2.6465850     1.2090920     0.0000900
  C       -3.3492890     0.0000000     0.0001200
  H       -0.7049610    -2.1578320     0.0000340
  H       -0.7049610     2.1578320     0.0000170
  H       -3.1840510    -2.1533320     0.0001220
  H       -3.1840510     2.1533320     0.0001050
  H       -4.4351490     0.0000000     0.0001590
units angstrom
no_reorient  #important for SAPT in psi4, default
symmetry c1  #important for SAPT in psi4, default
}

set PROPERTIES_ORIGIN ["COM"]

basis mybas {
    assign aug-cc-pvtz
    assign I aug-cc-pvtz-pp
}
properties('MP2/mybas', properties = ['dipole'])
--------------------------------------------------------------------------

    Molecular point group: c1
  Charge       = 0
  Multiplicity = 1
  Basis Set: MYBAS
    Blend: AUG-CC-PVTZ + AUG-CC-PVTZ-PP
  Basis Set: (MYBAS AUX)
    Blend: AUG-CC-PVTZ-JKFIT + DEF2-UNIVERSAL-JKFIT

    Orbital Energies [Eh]
    ---------------------

    Doubly Occupied:

       1A    -11.302040     2A    -11.264407     3A    -11.264389
       4A    -11.251261     5A    -11.249112     6A    -11.248771
       7A     -7.733729     8A     -5.566094     9A     -5.555923
      10A     -5.555805    11A     -2.297728    12A     -2.290937
      13A     -2.290686    14A     -2.279660    15A     -2.279656
      16A     -1.145547    17A     -1.040725    18A     -1.017919
      19A     -0.922454    20A     -0.825098    21A     -0.796948
      22A     -0.698969    23A     -0.639593    24A     -0.627779
      25A     -0.586660    26A     -0.562824    27A     -0.510411
      28A     -0.501643    29A     -0.487177    30A     -0.419616
      31A     -0.376404    32A     -0.345744    33A     -0.304880

  @DF-RHF Final Energy:  -524.80903248446236

   => Energetics <=

    Nuclear Repulsion Energy =            351.6734616077358737
    One-Electron Energy =               -1522.4838133863663643
    Two-Electron Energy =                 646.0013192941681837
    Total Energy =                       -524.8090324844623638
  Basis Set: (MYBAS AUX)
    Blend: AUG-CC-PVTZ-RI + DEF2-QZVPP-RI
    Molecular point group: c1

    Geometry (in Angstrom), charge = 0, multiplicity = 1:

       Center              X                  Y                   Z               Mass
    ------------   -----------------  -----------------  -----------------  -----------------
         I            1.323887454735     0.000000000000    -0.000047484749   126.904471900000
         C           -0.587914545265     0.000000000000     0.000021315251    12.000000000000
         C           -1.478082545265    -1.218084000000     0.000057515251    12.000000000000
         C           -1.478082545265     1.218084000000     0.000048515251    12.000000000000
         C           -2.877097545265    -1.209092000000     0.000107515251    12.000000000000
         C           -2.877097545265     1.209092000000     0.000098515251    12.000000000000
         C           -3.579801545265     0.000000000000     0.000128515251    12.000000000000
         H           -0.935473545265    -2.157832000000     0.000042515251     1.007825032230
         H           -0.935473545265     2.157832000000     0.000025515251     1.007825032230
         H           -3.414563545265    -2.153332000000     0.000130515251     1.007825032230
         H           -3.414563545265     2.153332000000     0.000113515251     1.007825032230
         H           -4.665661545265     0.000000000000     0.000167515251     1.007825032230

  Basis Set: MYBAS
    Blend: AUG-CC-PVTZ + AUG-CC-PVTZ-PP
  Basis Set: (MYBAS AUX)
    Blend: AUG-CC-PVTZ-JKFIT + DEF2-UNIVERSAL-JKFIT
	 Reference Energy          =    -524.8090324844623638 [Eh]
	 Singles Energy            =      -0.0000000000000000 [Eh]
	 Same-Spin Energy          =      -0.3407844591583011 [Eh]
	 Opposite-Spin Energy      =      -0.9930736436938874 [Eh]
	 Correlation Energy        =      -1.3338581028521885 [Eh]
	 Total Energy              =    -526.1428905873145823 [Eh]

	 ================> DF-SCS-MP2 Energies <==================
	-----------------------------------------------------------
	 SCS Same-Spin Scale       =       0.3333333333333333 [-]
	 SCS Opposite-Spin Scale   =       1.2000000000000000 [-]
	 SCS Same-Spin Energy      =      -0.1135948197194337 [Eh]
	 SCS Opposite-Spin Energy  =      -1.1916883724326648 [Eh]
	 SCS Correlation Energy    =      -1.3052831921520984 [Eh]
	 SCS Total Energy          =    -526.1143156766144102 [Eh]
	-----------------------------------------------------------

  Dipole Moment: [D]
     X:    -0.8747      Y:     0.0000      Z:     0.0000     Total:     0.8747

*** Psi4 exiting successfully. Buy a developer a beer!
