                               Psi4 1.4a2.dev612

  ==> Input File <==

--------------------------------------------------------------------------
#psi4
#
memory 32 gb

molecule  {
0 1
  I        1.5544000     0.0000000    -0.0000560
  C       -0.7574020     0.0000000     0.0000272
  C       -1.2475700    -1.2180840     0.0000490
  C       -1.2475700     1.2180840     0.0000400
  C       -2.6465850    -1.2090920     0.0000990
  C       -2.6465850     1.2090920     0.0000900
  C       -3.3492890     0.0000000     0.0001200
  H       -0.7049610    -2.1578320     0.0000340
  H       -0.7049610     2.1578320     0.0000170
  H       -3.1840510    -2.1533320     0.0001220
  H       -3.1840510     2.1533320     0.0001050
  H       -4.4351490     0.0000000     0.0001590
units angstrom
no_reorient  #important for SAPT in psi4, default
symmetry c1  #important for SAPT in psi4, default
}

set PROPERTIES_ORIGIN ["COM"]

basis mybas {
    assign aug-cc-pvtz
    assign I aug-cc-pvtz-pp
}
properties('MP2/mybas', properties = ['dipole'])
--------------------------------------------------------------------------

    Molecular point group: c1
  Charge       = 0
  Multiplicity = 1
  Basis Set: MYBAS
    Blend: AUG-CC-PVTZ + AUG-CC-PVTZ-PP
  Basis Set: (MYBAS AUX)
    Blend: AUG-CC-PVTZ-JKFIT + DEF2-UNIVERSAL-JKFIT

    Orbital Energies [Eh]
    ---------------------

    Doubly Occupied:

       1A    -11.302424     2A    -11.263533     3A    -11.263449
       4A    -11.257216     5A    -11.257173     6A    -11.256180
       7A     -7.700248     8A     -5.531096     9A     -5.522708
      10A     -5.522579    11A     -2.259781    12A     -2.256135
      13A     -2.255995    14A     -2.246662    15A     -2.246655
      16A     -1.201306    17A     -1.056469    18A     -1.044684
      19A     -0.873613    20A     -0.864899    21A     -0.818049
      22A     -0.720486    23A     -0.669980    24A     -0.648489
      25A     -0.620051    26A     -0.568110    27A     -0.551859
      28A     -0.537237    29A     -0.404158    30A     -0.393068
      31A     -0.364906    32A     -0.355976    33A     -0.336486

  @DF-RHF Final Energy:  -524.82585762688188

   => Energetics <=

    Nuclear Repulsion Energy =            351.7969902348829692
    One-Electron Energy =               -1522.9023731007180231
    Two-Electron Energy =                 646.2795252389531697
    Total Energy =                       -524.8258576268818842
  Basis Set: (MYBAS AUX)
    Blend: AUG-CC-PVTZ-RI + DEF2-QZVPP-RI
    Molecular point group: c1

    Geometry (in Angstrom), charge = 0, multiplicity = 1:

       Center              X                  Y                   Z               Mass
    ------------   -----------------  -----------------  -----------------  -----------------
         I            1.347423373828     0.000000000000    -0.000048332042   126.904471900000
         C           -0.964378626172     0.000000000000     0.000034867958    12.000000000000
         C           -1.454546626172    -1.218084000000     0.000056667958    12.000000000000
         C           -1.454546626172     1.218084000000     0.000047667958    12.000000000000
         C           -2.853561626172    -1.209092000000     0.000106667958    12.000000000000
         C           -2.853561626172     1.209092000000     0.000097667958    12.000000000000
         C           -3.556265626172     0.000000000000     0.000127667958    12.000000000000
         H           -0.911937626172    -2.157832000000     0.000041667958     1.007825032230
         H           -0.911937626172     2.157832000000     0.000024667958     1.007825032230
         H           -3.391027626172    -2.153332000000     0.000129667958     1.007825032230
         H           -3.391027626172     2.153332000000     0.000112667958     1.007825032230
         H           -4.642125626172     0.000000000000     0.000166667958     1.007825032230

  Basis Set: MYBAS
    Blend: AUG-CC-PVTZ + AUG-CC-PVTZ-PP
  Basis Set: (MYBAS AUX)
    Blend: AUG-CC-PVTZ-JKFIT + DEF2-UNIVERSAL-JKFIT
	 Reference Energy          =    -524.8258576268818842 [Eh]
	 Singles Energy            =      -0.0000000000000000 [Eh]
	 Same-Spin Energy          =      -0.3374277363487967 [Eh]
	 Opposite-Spin Energy      =      -0.9852788844499883 [Eh]
	 Correlation Energy        =      -1.3227066207987850 [Eh]
	 Total Energy              =    -526.1485642476807243 [Eh]

	 ================> DF-SCS-MP2 Energies <==================
	-----------------------------------------------------------
	 SCS Same-Spin Scale       =       0.3333333333333333 [-]
	 SCS Opposite-Spin Scale   =       1.2000000000000000 [-]
	 SCS Same-Spin Energy      =      -0.1124759121162656 [Eh]
	 SCS Opposite-Spin Energy  =      -1.1823346613399859 [Eh]
	 SCS Correlation Energy    =      -1.2948105734562514 [Eh]
	 SCS Total Energy          =    -526.1206682003381729 [Eh]
	-----------------------------------------------------------

  Dipole Moment: [D]
     X:    -2.7702      Y:    -0.0000      Z:     0.0001     Total:     2.7702

*** Psi4 exiting successfully. Buy a developer a beer!
