                               Psi4 1.4a2.dev612

  ==> Input File <==

--------------------------------------------------------------------------
#psi4
#
memory 32 gb

molecule  {
0 1
  I        1.5544000     0.0000000    -0.0000560
  C       -0.4574020     0.0000000     0.0000164
  C       -1.2475700    -1.2180840     0.0000490
  C       -1.2475700     1.2180840     0.0000400
  C       -2.6465850    -1.2090920     0.0000990
  C       -2.6465850     1.2090920     0.0000900
  C       -3.3492890     0.0000000     0.0001200
  H       -0.7049610    -2.1578320     0.0000340
  H       -0.7049610     2.1578320     0.0000170
  H       -3.1840510    -2.1533320     0.0001220
  H       -3.1840510     2.1533320     0.0001050
  H       -4.4351490     0.0000000     0.0001590
units angstrom
no_reorient  #important for SAPT in psi4, default
symmetry c1  #important for SAPT in psi4, default
}

set PROPERTIES_ORIGIN ["COM"]

basis mybas {
    assign aug-cc-pvtz
    assign I aug-cc-pvtz-pp
}
properties('MP2/mybas', properties = ['dipole'])
--------------------------------------------------------------------------

    Molecular point group: c1
  Charge       = 0
  Multiplicity = 1
  Basis Set: MYBAS
    Blend: AUG-CC-PVTZ + AUG-CC-PVTZ-PP
  Basis Set: (MYBAS AUX)
    Blend: AUG-CC-PVTZ-JKFIT + DEF2-UNIVERSAL-JKFIT

    Orbital Energies [Eh]
    ---------------------

    Doubly Occupied:

       1A    -11.297694     2A    -11.259785     3A    -11.259761
       4A    -11.251526     5A    -11.250428     6A    -11.249774
       7A     -7.728287     8A     -5.560352     9A     -5.550349
      10A     -5.550347    11A     -2.290814    12A     -2.285068
      13A     -2.284984    14A     -2.273979    15A     -2.273973
      16A     -1.154551    17A     -1.036455    18A     -1.023065
      19A     -0.911805    20A     -0.833257    21A     -0.803058
      22A     -0.702279    23A     -0.639646    24A     -0.632432
      25A     -0.594263    26A     -0.562865    27A     -0.516160
      28A     -0.500376    29A     -0.483236    30A     -0.410553
      31A     -0.375633    32A     -0.348069    33A     -0.316207

  @DF-RHF Final Energy:  -524.84118053606164

   => Energetics <=

    Nuclear Repulsion Energy =            351.4133305918014116
    One-Electron Energy =               -1522.0869615109349979
    Two-Electron Energy =                 645.8324503830718868
    Total Energy =                       -524.8411805360616427
  Basis Set: (MYBAS AUX)
    Blend: AUG-CC-PVTZ-RI + DEF2-QZVPP-RI
    Molecular point group: c1

    Geometry (in Angstrom), charge = 0, multiplicity = 1:

       Center              X                  Y                   Z               Mass
    ------------   -----------------  -----------------  -----------------  -----------------
         I            1.329771434509     0.000000000000    -0.000047696572   126.904471900000
         C           -0.682030565491     0.000000000000     0.000024703428    12.000000000000
         C           -1.472198565491    -1.218084000000     0.000057303428    12.000000000000
         C           -1.472198565491     1.218084000000     0.000048303428    12.000000000000
         C           -2.871213565491    -1.209092000000     0.000107303428    12.000000000000
         C           -2.871213565491     1.209092000000     0.000098303428    12.000000000000
         C           -3.573917565491     0.000000000000     0.000128303428    12.000000000000
         H           -0.929589565491    -2.157832000000     0.000042303428     1.007825032230
         H           -0.929589565491     2.157832000000     0.000025303428     1.007825032230
         H           -3.408679565491    -2.153332000000     0.000130303428     1.007825032230
         H           -3.408679565491     2.153332000000     0.000113303428     1.007825032230
         H           -4.659777565491     0.000000000000     0.000167303428     1.007825032230

  Basis Set: MYBAS
    Blend: AUG-CC-PVTZ + AUG-CC-PVTZ-PP
  Basis Set: (MYBAS AUX)
    Blend: AUG-CC-PVTZ-JKFIT + DEF2-UNIVERSAL-JKFIT
	 Reference Energy          =    -524.8411805360616427 [Eh]
	 Singles Energy            =      -0.0000000000000000 [Eh]
	 Same-Spin Energy          =      -0.3386052432139825 [Eh]
	 Opposite-Spin Energy      =      -0.9890917089188185 [Eh]
	 Correlation Energy        =      -1.3276969521328010 [Eh]
	 Total Energy              =    -526.1688774881944255 [Eh]

	 ================> DF-SCS-MP2 Energies <==================
	-----------------------------------------------------------
	 SCS Same-Spin Scale       =       0.3333333333333333 [-]
	 SCS Opposite-Spin Scale   =       1.2000000000000000 [-]
	 SCS Same-Spin Energy      =      -0.1128684144046608 [Eh]
	 SCS Opposite-Spin Energy  =      -1.1869100507025820 [Eh]
	 SCS Correlation Energy    =      -1.2997784651072428 [Eh]
	 SCS Total Energy          =    -526.1409590011688806 [Eh]
	-----------------------------------------------------------

  Dipole Moment: [D]
     X:    -1.2374      Y:    -0.0000      Z:     0.0000     Total:     1.2374

*** Psi4 exiting successfully. Buy a developer a beer!
