                               Psi4 1.4a2.dev612

  ==> Input File <==

--------------------------------------------------------------------------
#psi4
#
memory 32 gb

molecule  {
0 1
  I        1.5428313    -0.2207434    -0.0000548
  C       -0.5574020     0.0000000     0.0000200
  C       -1.2475700    -1.2180840     0.0000490
  C       -1.2475700     1.2180840     0.0000400
  C       -2.6465850    -1.2090920     0.0000990
  C       -2.6465850     1.2090920     0.0000900
  C       -3.3492890     0.0000000     0.0001200
  H       -0.7049610    -2.1578320     0.0000340
  H       -0.7049610     2.1578320     0.0000170
  H       -3.1840510    -2.1533320     0.0001220
  H       -3.1840510     2.1533320     0.0001050
  H       -4.4351490     0.0000000     0.0001590
units angstrom
no_reorient  #important for SAPT in psi4, default
symmetry c1  #important for SAPT in psi4, default
}

set PROPERTIES_ORIGIN ["COM"]

basis mybas {
    assign aug-cc-pvtz
    assign I aug-cc-pvtz-pp
}
properties('MP2/mybas', properties = ['dipole'])
--------------------------------------------------------------------------

    Molecular point group: c1
  Charge       = 0
  Multiplicity = 1
  Basis Set: MYBAS
    Blend: AUG-CC-PVTZ + AUG-CC-PVTZ-PP
  Basis Set: (MYBAS AUX)
    Blend: AUG-CC-PVTZ-JKFIT + DEF2-UNIVERSAL-JKFIT

    Orbital Energies [Eh]
    ---------------------

    Doubly Occupied:

       1A    -11.295433     2A    -11.258186     3A    -11.254769
       4A    -11.253785     5A    -11.252224     6A    -11.250881
       7A     -7.721487     8A     -5.553287     9A     -5.543556
      10A     -5.543497    11A     -2.282945    12A     -2.277972
      13A     -2.277950    14A     -2.267115    15A     -2.267107
      16A     -1.166724    17A     -1.037401    18A     -1.030382
      19A     -0.899486    20A     -0.842416    21A     -0.808197
      22A     -0.706748    23A     -0.641224    24A     -0.640030
      25A     -0.603431    26A     -0.563162    27A     -0.524812
      28A     -0.513791    29A     -0.459629    30A     -0.402837
      31A     -0.371044    32A     -0.351738    33A     -0.325758

  @DF-RHF Final Energy:  -524.85108147567973

   => Energetics <=

    Nuclear Repulsion Energy =            351.6090409168467659
    One-Electron Energy =               -1522.5422311599033947
    Two-Electron Energy =                 646.0821087673770080
    Total Energy =                       -524.8510814756797345
  Basis Set: (MYBAS AUX)
    Blend: AUG-CC-PVTZ-RI + DEF2-QZVPP-RI
    Molecular point group: c1

    Geometry (in Angstrom), charge = 0, multiplicity = 1:

       Center              X                  Y                   Z               Mass
    ------------   -----------------  -----------------  -----------------  -----------------
         I            1.331285370112    -0.083385203881    -0.000047455099   126.904471900000
         C           -0.768947929888     0.137358196119     0.000027344901    12.000000000000
         C           -1.459115929888    -1.080725803881     0.000056344901    12.000000000000
         C           -1.459115929888     1.355442196119     0.000047344901    12.000000000000
         C           -2.858130929888    -1.071733803881     0.000106344901    12.000000000000
         C           -2.858130929888     1.346450196119     0.000097344901    12.000000000000
         C           -3.560834929888     0.137358196119     0.000127344901    12.000000000000
         H           -0.916506929888    -2.020473803881     0.000041344901     1.007825032230
         H           -0.916506929888     2.295190196119     0.000024344901     1.007825032230
         H           -3.395596929888    -2.015973803881     0.000129344901     1.007825032230
         H           -3.395596929888     2.290690196119     0.000112344901     1.007825032230
         H           -4.646694929888     0.137358196119     0.000166344901     1.007825032230

  Basis Set: MYBAS
    Blend: AUG-CC-PVTZ + AUG-CC-PVTZ-PP
  Basis Set: (MYBAS AUX)
    Blend: AUG-CC-PVTZ-JKFIT + DEF2-UNIVERSAL-JKFIT
	 Reference Energy          =    -524.8510814756797345 [Eh]
	 Singles Energy            =      -0.0000000000000000 [Eh]
	 Same-Spin Energy          =      -0.3375294391248757 [Eh]
	 Opposite-Spin Energy      =      -0.9868979198617898 [Eh]
	 Correlation Energy        =      -1.3244273589866653 [Eh]
	 Total Energy              =    -526.1755088346664024 [Eh]

	 ================> DF-SCS-MP2 Energies <==================
	-----------------------------------------------------------
	 SCS Same-Spin Scale       =       0.3333333333333333 [-]
	 SCS Opposite-Spin Scale   =       1.2000000000000000 [-]
	 SCS Same-Spin Energy      =      -0.1125098130416252 [Eh]
	 SCS Opposite-Spin Energy  =      -1.1842775038341478 [Eh]
	 SCS Correlation Energy    =      -1.2967873168757729 [Eh]
	 SCS Total Energy          =    -526.1478687925555278 [Eh]
	-----------------------------------------------------------

  Dipole Moment: [D]
     X:    -1.6537      Y:     0.0358      Z:     0.0001     Total:     1.6541

*** Psi4 exiting successfully. Buy a developer a beer!
