                               Psi4 1.4a2.dev612

  ==> Input File <==

--------------------------------------------------------------------------
#psi4
#
memory 32 gb

molecule  {
0 1
  I        1.5540784     0.0368560    -0.0000561
  C       -0.5574020     0.0000000     0.0000200
  C       -1.2475700    -1.2180840     0.0000490
  C       -1.2475700     1.2180840     0.0000400
  C       -2.6465850    -1.2090920     0.0000990
  C       -2.6465850     1.2090920     0.0000900
  C       -3.3492890     0.0000000     0.0001200
  H       -0.7049610    -2.1578320     0.0000340
  H       -0.7049610     2.1578320     0.0000170
  H       -3.1840510    -2.1533320     0.0001220
  H       -3.1840510     2.1533320     0.0001050
  H       -4.4351490     0.0000000     0.0001590
units angstrom
no_reorient  #important for SAPT in psi4, default
symmetry c1  #important for SAPT in psi4, default
}

set PROPERTIES_ORIGIN ["COM"]

basis mybas {
    assign aug-cc-pvtz
    assign I aug-cc-pvtz-pp
}
properties('MP2/mybas', properties = ['dipole'])
--------------------------------------------------------------------------

    Molecular point group: c1
  Charge       = 0
  Multiplicity = 1
  Basis Set: MYBAS
    Blend: AUG-CC-PVTZ + AUG-CC-PVTZ-PP
  Basis Set: (MYBAS AUX)
    Blend: AUG-CC-PVTZ-JKFIT + DEF2-UNIVERSAL-JKFIT

    Orbital Energies [Eh]
    ---------------------

    Doubly Occupied:

       1A    -11.295497     2A    -11.256778     3A    -11.256207
       4A    -11.253243     5A    -11.252788     6A    -11.250978
       7A     -7.721499     8A     -5.553264     9A     -5.543591
      10A     -5.543525    11A     -2.282917    12A     -2.277958
      13A     -2.277933    14A     -2.267162    15A     -2.267155
      16A     -1.166640    17A     -1.036885    18A     -1.030561
      19A     -0.899345    20A     -0.842601    21A     -0.808240
      22A     -0.706765    23A     -0.641090    24A     -0.639979
      25A     -0.603351    26A     -0.563224    27A     -0.524742
      28A     -0.513739    29A     -0.459958    30A     -0.402721
      31A     -0.371633    32A     -0.351713    33A     -0.325916

  @DF-RHF Final Energy:  -524.85309041711855

   => Energetics <=

    Nuclear Repulsion Energy =            351.3845217026851628
    One-Electron Energy =               -1522.0960330983532458
    Two-Electron Energy =                 645.8584209785495887
    Total Energy =                       -524.8530904171185512
  Basis Set: (MYBAS AUX)
    Blend: AUG-CC-PVTZ-RI + DEF2-QZVPP-RI
    Molecular point group: c1

    Geometry (in Angstrom), charge = 0, multiplicity = 1:

       Center              X                  Y                   Z               Mass
    ------------   -----------------  -----------------  -----------------  -----------------
         I            1.335533930779     0.013922251239    -0.000047946170   126.904471900000
         C           -0.775946469221    -0.022933748761     0.000028153830    12.000000000000
         C           -1.466114469221    -1.241017748761     0.000057153830    12.000000000000
         C           -1.466114469221     1.195150251239     0.000048153830    12.000000000000
         C           -2.865129469221    -1.232025748761     0.000107153830    12.000000000000
         C           -2.865129469221     1.186158251239     0.000098153830    12.000000000000
         C           -3.567833469221    -0.022933748761     0.000128153830    12.000000000000
         H           -0.923505469221    -2.180765748761     0.000042153830     1.007825032230
         H           -0.923505469221     2.134898251239     0.000025153830     1.007825032230
         H           -3.402595469221    -2.176265748761     0.000130153830     1.007825032230
         H           -3.402595469221     2.130398251239     0.000113153830     1.007825032230
         H           -4.653693469221    -0.022933748761     0.000167153830     1.007825032230

  Basis Set: MYBAS
    Blend: AUG-CC-PVTZ + AUG-CC-PVTZ-PP
  Basis Set: (MYBAS AUX)
    Blend: AUG-CC-PVTZ-JKFIT + DEF2-UNIVERSAL-JKFIT
	 Reference Energy          =    -524.8530904171185512 [Eh]
	 Singles Energy            =      -0.0000000000000000 [Eh]
	 Same-Spin Energy          =      -0.3373987464763576 [Eh]
	 Opposite-Spin Energy      =      -0.9866422106381066 [Eh]
	 Correlation Energy        =      -1.3240409571144642 [Eh]
	 Total Energy              =    -526.1771313742329994 [Eh]

	 ================> DF-SCS-MP2 Energies <==================
	-----------------------------------------------------------
	 SCS Same-Spin Scale       =       0.3333333333333333 [-]
	 SCS Opposite-Spin Scale   =       1.2000000000000000 [-]
	 SCS Same-Spin Energy      =      -0.1124662488254525 [Eh]
	 SCS Opposite-Spin Energy  =      -1.1839706527657279 [Eh]
	 SCS Correlation Energy    =      -1.2964369015911803 [Eh]
	 SCS Total Energy          =    -526.1495273187097155 [Eh]
	-----------------------------------------------------------

  Dipole Moment: [D]
     X:    -1.6451      Y:    -0.0060      Z:     0.0001     Total:     1.6451

*** Psi4 exiting successfully. Buy a developer a beer!
