                               Psi4 1.4a2.dev612

  ==> Input File <==

--------------------------------------------------------------------------
#psi4
#
memory 32 gb

molecule  {
0 1
  I        1.5531135    -0.0737008    -0.0000557
  C       -0.5574020     0.0000000     0.0000200
  C       -1.2475700    -1.2180840     0.0000490
  C       -1.2475700     1.2180840     0.0000400
  C       -2.6465850    -1.2090920     0.0000990
  C       -2.6465850     1.2090920     0.0000900
  C       -3.3492890     0.0000000     0.0001200
  H       -0.7049610    -2.1578320     0.0000340
  H       -0.7049610     2.1578320     0.0000170
  H       -3.1840510    -2.1533320     0.0001220
  H       -3.1840510     2.1533320     0.0001050
  H       -4.4351490     0.0000000     0.0001590
units angstrom
no_reorient  #important for SAPT in psi4, default
symmetry c1  #important for SAPT in psi4, default
}

set PROPERTIES_ORIGIN ["COM"]

basis mybas {
    assign aug-cc-pvtz
    assign I aug-cc-pvtz-pp
}
properties('MP2/mybas', properties = ['dipole'])
--------------------------------------------------------------------------

    Molecular point group: c1
  Charge       = 0
  Multiplicity = 1
  Basis Set: MYBAS
    Blend: AUG-CC-PVTZ + AUG-CC-PVTZ-PP
  Basis Set: (MYBAS AUX)
    Blend: AUG-CC-PVTZ-JKFIT + DEF2-UNIVERSAL-JKFIT

    Orbital Energies [Eh]
    ---------------------

    Doubly Occupied:

       1A    -11.295492     2A    -11.257061     3A    -11.255922
       4A    -11.253332     5A    -11.252696     6A    -11.250970
       7A     -7.721498     8A     -5.553266     9A     -5.543588
      10A     -5.543522    11A     -2.282920    12A     -2.277959
      13A     -2.277934    14A     -2.267158    15A     -2.267151
      16A     -1.166647    17A     -1.036930    18A     -1.030545
      19A     -0.899357    20A     -0.842585    21A     -0.808236
      22A     -0.706763    23A     -0.641101    24A     -0.639983
      25A     -0.603358    26A     -0.563219    27A     -0.524748
      28A     -0.513743    29A     -0.459929    30A     -0.402730
      31A     -0.371583    32A     -0.351715    33A     -0.325902

  @DF-RHF Final Energy:  -524.85291973530241

   => Energetics <=

    Nuclear Repulsion Energy =            351.4037359532266578
    One-Electron Energy =               -1522.1342237697440396
    Two-Electron Energy =                 645.8775680812149176
    Total Energy =                       -524.8529197353024074
  Basis Set: (MYBAS AUX)
    Blend: AUG-CC-PVTZ-RI + DEF2-QZVPP-RI
    Molecular point group: c1

    Geometry (in Angstrom), charge = 0, multiplicity = 1:

       Center              X                  Y                   Z               Mass
    ------------   -----------------  -----------------  -----------------  -----------------
         I            1.335169442494    -0.027840271710    -0.000047795072   126.904471900000
         C           -0.775346057506     0.045860528290     0.000027904928    12.000000000000
         C           -1.465514057506    -1.172223471710     0.000056904928    12.000000000000
         C           -1.465514057506     1.263944528290     0.000047904928    12.000000000000
         C           -2.864529057506    -1.163231471710     0.000106904928    12.000000000000
         C           -2.864529057506     1.254952528290     0.000097904928    12.000000000000
         C           -3.567233057506     0.045860528290     0.000127904928    12.000000000000
         H           -0.922905057506    -2.111971471710     0.000041904928     1.007825032230
         H           -0.922905057506     2.203692528290     0.000024904928     1.007825032230
         H           -3.401995057506    -2.107471471710     0.000129904928     1.007825032230
         H           -3.401995057506     2.199192528290     0.000112904928     1.007825032230
         H           -4.653093057506     0.045860528290     0.000166904928     1.007825032230

  Basis Set: MYBAS
    Blend: AUG-CC-PVTZ + AUG-CC-PVTZ-PP
  Basis Set: (MYBAS AUX)
    Blend: AUG-CC-PVTZ-JKFIT + DEF2-UNIVERSAL-JKFIT
	 Reference Energy          =    -524.8529197353024074 [Eh]
	 Singles Energy            =      -0.0000000000000000 [Eh]
	 Same-Spin Energy          =      -0.3374099339086045 [Eh]
	 Opposite-Spin Energy      =      -0.9866642149938704 [Eh]
	 Correlation Energy        =      -1.3240741489024748 [Eh]
	 Total Energy              =    -526.1769938842048759 [Eh]

	 ================> DF-SCS-MP2 Energies <==================
	-----------------------------------------------------------
	 SCS Same-Spin Scale       =       0.3333333333333333 [-]
	 SCS Opposite-Spin Scale   =       1.2000000000000000 [-]
	 SCS Same-Spin Energy      =      -0.1124699779695348 [Eh]
	 SCS Opposite-Spin Energy  =      -1.1839970579926444 [Eh]
	 SCS Correlation Energy    =      -1.2964670359621793 [Eh]
	 SCS Total Energy          =    -526.1493867712646306 [Eh]
	-----------------------------------------------------------

  Dipole Moment: [D]
     X:    -1.6458      Y:     0.0121      Z:     0.0001     Total:     1.6458

*** Psi4 exiting successfully. Buy a developer a beer!
