                               Psi4 1.4a2.dev612

  ==> Input File <==

--------------------------------------------------------------------------
#psi4
#
memory 32 gb

molecule  {
0 1
  I        1.5544000     0.0000000    -0.0000560
  C       -0.5574020     0.0000000     0.0000200
  C       -1.2475700    -1.2180840     0.0000490
  C       -1.2475700     1.2180840     0.0000400
  C       -2.6465850    -1.2090920     0.0000990
  C       -2.6465850     1.2090920     0.0000900
  C       -3.3492890     0.0000000     0.0001200
  H       -0.7049610    -2.1578320     0.0000340
  H       -0.7049610     2.1578320     0.0000170
  H       -3.1840510    -2.1533320     0.0001220
  H       -3.1840510     2.1533320     0.0001050
  H       -4.4351490     0.0000000     0.0001590
units angstrom
no_reorient  #important for SAPT in psi4, default
symmetry c1  #important for SAPT in psi4, default
}

set PROPERTIES_ORIGIN ["COM"]

basis mybas {
    assign aug-cc-pvtz
    assign I aug-cc-pvtz-pp
}
properties('MP2/mybas', properties = ['dipole'])
--------------------------------------------------------------------------

    Molecular point group: c1
  Charge       = 0
  Multiplicity = 1
  Basis Set: MYBAS
    Blend: AUG-CC-PVTZ + AUG-CC-PVTZ-PP
  Basis Set: (MYBAS AUX)
    Blend: AUG-CC-PVTZ-JKFIT + DEF2-UNIVERSAL-JKFIT

    Orbital Energies [Eh]
    ---------------------

    Doubly Occupied:

       1A    -11.295499     2A    -11.256509     3A    -11.256477
       4A    -11.253203     5A    -11.252828     6A    -11.250980
       7A     -7.721499     8A     -5.553263     9A     -5.543592
      10A     -5.543526    11A     -2.282916    12A     -2.277957
      13A     -2.277932    14A     -2.267163    15A     -2.267157
      16A     -1.166638    17A     -1.036870    18A     -1.030566
      19A     -0.899342    20A     -0.842606    21A     -0.808241
      22A     -0.706765    23A     -0.641086    24A     -0.639977
      25A     -0.603349    26A     -0.563226    27A     -0.524740
      28A     -0.513738    29A     -0.459967    30A     -0.402717
      31A     -0.371649    32A     -0.351713    33A     -0.325920

  @DF-RHF Final Energy:  -524.85314725325065

   => Energetics <=

    Nuclear Repulsion Energy =            351.3781215210635196
    One-Electron Energy =               -1522.0833117343586309
    Two-Electron Energy =                 645.8520429600444004
    Total Energy =                       -524.8531472532506541
  Basis Set: (MYBAS AUX)
    Blend: AUG-CC-PVTZ-RI + DEF2-QZVPP-RI
    Molecular point group: c1

    Geometry (in Angstrom), charge = 0, multiplicity = 1:

       Center              X                  Y                   Z               Mass
    ------------   -----------------  -----------------  -----------------  -----------------
         I            1.335655414282     0.000000000000    -0.000047908396   126.904471900000
         C           -0.776146585718     0.000000000000     0.000028091604    12.000000000000
         C           -1.466314585718    -1.218084000000     0.000057091604    12.000000000000
         C           -1.466314585718     1.218084000000     0.000048091604    12.000000000000
         C           -2.865329585718    -1.209092000000     0.000107091604    12.000000000000
         C           -2.865329585718     1.209092000000     0.000098091604    12.000000000000
         C           -3.568033585718     0.000000000000     0.000128091604    12.000000000000
         H           -0.923705585718    -2.157832000000     0.000042091604     1.007825032230
         H           -0.923705585718     2.157832000000     0.000025091604     1.007825032230
         H           -3.402795585718    -2.153332000000     0.000130091604     1.007825032230
         H           -3.402795585718     2.153332000000     0.000113091604     1.007825032230
         H           -4.653893585718     0.000000000000     0.000167091604     1.007825032230

  Basis Set: MYBAS
    Blend: AUG-CC-PVTZ + AUG-CC-PVTZ-PP
  Basis Set: (MYBAS AUX)
    Blend: AUG-CC-PVTZ-JKFIT + DEF2-UNIVERSAL-JKFIT
	 Reference Energy          =    -524.8531472532506541 [Eh]
	 Singles Energy            =      -0.0000000000000000 [Eh]
	 Same-Spin Energy          =      -0.3373950181282636 [Eh]
	 Opposite-Spin Energy      =      -0.9866348703211201 [Eh]
	 Correlation Energy        =      -1.3240298884493837 [Eh]
	 Total Energy              =    -526.1771771416999854 [Eh]

	 ================> DF-SCS-MP2 Energies <==================
	-----------------------------------------------------------
	 SCS Same-Spin Scale       =       0.3333333333333333 [-]
	 SCS Opposite-Spin Scale   =       1.2000000000000000 [-]
	 SCS Same-Spin Energy      =      -0.1124650060427545 [Eh]
	 SCS Opposite-Spin Energy  =      -1.1839618443853441 [Eh]
	 SCS Correlation Energy    =      -1.2964268504280987 [Eh]
	 SCS Total Energy          =    -526.1495741036787877 [Eh]
	-----------------------------------------------------------

  Dipole Moment: [D]
     X:    -1.6448      Y:     0.0000      Z:     0.0001     Total:     1.6448

*** Psi4 exiting successfully. Buy a developer a beer!
