                               Psi4 1.4a2.dev612

  ==> Input File <==

--------------------------------------------------------------------------
#psi4
#
memory 32 gb

molecule  {
0 1
  I        1.5544000     0.0000000    -0.0000560
  C       -0.6574020     0.0000000     0.0000236
  C       -1.2475700    -1.2180840     0.0000490
  C       -1.2475700     1.2180840     0.0000400
  C       -2.6465850    -1.2090920     0.0000990
  C       -2.6465850     1.2090920     0.0000900
  C       -3.3492890     0.0000000     0.0001200
  H       -0.7049610    -2.1578320     0.0000340
  H       -0.7049610     2.1578320     0.0000170
  H       -3.1840510    -2.1533320     0.0001220
  H       -3.1840510     2.1533320     0.0001050
  H       -4.4351490     0.0000000     0.0001590
units angstrom
no_reorient  #important for SAPT in psi4, default
symmetry c1  #important for SAPT in psi4, default
}

set PROPERTIES_ORIGIN ["COM"]

basis mybas {
    assign aug-cc-pvtz
    assign I aug-cc-pvtz-pp
}
properties('MP2/mybas', properties = ['dipole'])
--------------------------------------------------------------------------

    Molecular point group: c1
  Charge       = 0
  Multiplicity = 1
  Basis Set: MYBAS
    Blend: AUG-CC-PVTZ + AUG-CC-PVTZ-PP
  Basis Set: (MYBAS AUX)
    Blend: AUG-CC-PVTZ-JKFIT + DEF2-UNIVERSAL-JKFIT

    Orbital Energies [Eh]
    ---------------------

    Doubly Occupied:

       1A    -11.296704     2A    -11.257367     3A    -11.257240
       4A    -11.255113     5A    -11.255113     6A    -11.252807
       7A     -7.712414     8A     -5.543794     9A     -5.534631
      10A     -5.534525    11A     -2.272882    12A     -2.268613
      13A     -2.268518    14A     -2.258308    15A     -2.258301
      16A     -1.182150    17A     -1.041386    18A     -1.039910
      19A     -0.886416    20A     -0.853197    21A     -0.813095
      22A     -0.712771    23A     -0.652306    24A     -0.643980
      25A     -0.612333    26A     -0.564775    27A     -0.536523
      28A     -0.525964    29A     -0.433078    30A     -0.396440
      31A     -0.365080    32A     -0.357165    33A     -0.333255

  @DF-RHF Final Energy:  -524.84716443040156

   => Energetics <=

    Nuclear Repulsion Energy =            351.5213631016737850
    One-Electron Energy =               -1522.3847524484692713
    Two-Electron Energy =                 646.0162249163938668
    Total Energy =                       -524.8471644304015626
  Basis Set: (MYBAS AUX)
    Blend: AUG-CC-PVTZ-RI + DEF2-QZVPP-RI
    Molecular point group: c1

    Geometry (in Angstrom), charge = 0, multiplicity = 1:

       Center              X                  Y                   Z               Mass
    ------------   -----------------  -----------------  -----------------  -----------------
         I            1.341539394055     0.000000000000    -0.000048120219   126.904471900000
         C           -0.870262605945     0.000000000000     0.000031479781    12.000000000000
         C           -1.460430605945    -1.218084000000     0.000056879781    12.000000000000
         C           -1.460430605945     1.218084000000     0.000047879781    12.000000000000
         C           -2.859445605945    -1.209092000000     0.000106879781    12.000000000000
         C           -2.859445605945     1.209092000000     0.000097879781    12.000000000000
         C           -3.562149605945     0.000000000000     0.000127879781    12.000000000000
         H           -0.917821605945    -2.157832000000     0.000041879781     1.007825032230
         H           -0.917821605945     2.157832000000     0.000024879781     1.007825032230
         H           -3.396911605945    -2.153332000000     0.000129879781     1.007825032230
         H           -3.396911605945     2.153332000000     0.000112879781     1.007825032230
         H           -4.648009605945     0.000000000000     0.000166879781     1.007825032230

  Basis Set: MYBAS
    Blend: AUG-CC-PVTZ + AUG-CC-PVTZ-PP
  Basis Set: (MYBAS AUX)
    Blend: AUG-CC-PVTZ-JKFIT + DEF2-UNIVERSAL-JKFIT
	 Reference Energy          =    -524.8471644304015626 [Eh]
	 Singles Energy            =      -0.0000000000000000 [Eh]
	 Same-Spin Energy          =      -0.3370537332589620 [Eh]
	 Opposite-Spin Energy      =      -0.9855218529130433 [Eh]
	 Correlation Energy        =      -1.3225755861720052 [Eh]
	 Total Energy              =    -526.1697400165735417 [Eh]

	 ================> DF-SCS-MP2 Energies <==================
	-----------------------------------------------------------
	 SCS Same-Spin Scale       =       0.3333333333333333 [-]
	 SCS Opposite-Spin Scale   =       1.2000000000000000 [-]
	 SCS Same-Spin Energy      =      -0.1123512444196540 [Eh]
	 SCS Opposite-Spin Energy  =      -1.1826262234956519 [Eh]
	 SCS Correlation Energy    =      -1.2949774679153059 [Eh]
	 SCS Total Energy          =    -526.1421418983168223 [Eh]
	-----------------------------------------------------------

  Dipole Moment: [D]
     X:    -2.1441      Y:     0.0000      Z:     0.0001     Total:     2.1441

*** Psi4 exiting successfully. Buy a developer a beer!
