                               Psi4 1.4a3.dev225

  ==> Input File <==

--------------------------------------------------------------------------
#psi4
#
memory 32 gb

molecule  {
0 1
  I        1.5544000     0.0000000    -0.0000560
  C       -0.5774020     0.0000000     0.0000207
  C       -1.2475700    -1.2180840     0.0000490
  C       -1.2475700     1.2180840     0.0000400
  C       -2.6465850    -1.2090920     0.0000990
  C       -2.6465850     1.2090920     0.0000900
  C       -3.3492890     0.0000000     0.0001200
  H       -0.7049610    -2.1578320     0.0000340
  H       -0.7049610     2.1578320     0.0000170
  H       -3.1840510    -2.1533320     0.0001220
  H       -3.1840510     2.1533320     0.0001050
  H       -4.4351490     0.0000000     0.0001590
units angstrom
no_reorient  #important for SAPT in psi4, default
symmetry c1  #important for SAPT in psi4, default
}

set PROPERTIES_ORIGIN ["COM"]
properties('MP2/aug-cc-pvtz', properties = ['dipole'])
--------------------------------------------------------------------------

    Molecular point group: c1
  Charge       = 0
  Multiplicity = 1
  Basis Set: AUG-CC-PVTZ
    Blend: AUG-CC-PVTZ
  Basis Set: (AUG-CC-PVTZ AUX)
    Blend: AUG-CC-PVTZ-JKFIT + DEF2-UNIVERSAL-JKFIT

    Orbital Energies [Eh]
    ---------------------

    Doubly Occupied:

       1A    -11.295428     2A    -11.256124     3A    -11.256093
       4A    -11.253766     5A    -11.253458     6A    -11.251260
       7A     -7.719894     8A     -5.551590     9A     -5.542003
      10A     -5.541927    11A     -2.281114    12A     -2.276303
      13A     -2.276261    14A     -2.265582    15A     -2.265575
      16A     -1.169458    17A     -1.037312    18A     -1.032433
      19A     -0.896769    20A     -0.844627    21A     -0.809219
      22A     -0.707836    23A     -0.642008    24A     -0.641546
      25A     -0.605214    26A     -0.563419    27A     -0.526827
      28A     -0.516285    29A     -0.454831    30A     -0.401312
      31A     -0.370535    32A     -0.352643    33A     -0.327616

  @DF-RHF Final Energy:  -524.85331202610575

   => Energetics <=

    Nuclear Repulsion Energy =            351.3939713531466396
    One-Electron Energy =               -1522.1220364332141344
    Two-Electron Energy =                 645.8747530539618538
    Total Energy =                       -524.8533120261057547
  Basis Set: (AUG-CC-PVTZ AUX)
    Blend: AUG-CC-PVTZ-RI + DEF2-QZVPP-RI
    Molecular point group: c1

    Geometry (in Angstrom), charge = 0, multiplicity = 1:

       Center              X                  Y                   Z               Mass
    ------------   -----------------  -----------------  -----------------  -----------------
         I            1.336832210237     0.000000000000    -0.000047949584   126.904471900000
         C           -0.794969789763     0.000000000000     0.000028750416    12.000000000000
         C           -1.465137789763    -1.218084000000     0.000057050416    12.000000000000
         C           -1.465137789763     1.218084000000     0.000048050416    12.000000000000
         C           -2.864152789763    -1.209092000000     0.000107050416    12.000000000000
         C           -2.864152789763     1.209092000000     0.000098050416    12.000000000000
         C           -3.566856789763     0.000000000000     0.000128050416    12.000000000000
         H           -0.922528789763    -2.157832000000     0.000042050416     1.007825032230
         H           -0.922528789763     2.157832000000     0.000025050416     1.007825032230
         H           -3.401618789763    -2.153332000000     0.000130050416     1.007825032230
         H           -3.401618789763     2.153332000000     0.000113050416     1.007825032230
         H           -4.652716789763     0.000000000000     0.000167050416     1.007825032230

  Basis Set: AUG-CC-PVTZ
    Blend: AUG-CC-PVTZ
  Basis Set: (AUG-CC-PVTZ AUX)
    Blend: AUG-CC-PVTZ-JKFIT + DEF2-UNIVERSAL-JKFIT
	 Reference Energy          =    -524.8533120261057547 [Eh]
	 Singles Energy            =      -0.0000000000000000 [Eh]
	 Same-Spin Energy          =      -0.3372607034290204 [Eh]
	 Opposite-Spin Energy      =      -0.9863156464987479 [Eh]
	 Correlation Energy        =      -1.3235763499277682 [Eh]
	 Total Energy              =    -526.1768883760335029 [Eh]

	 ================> DF-SCS-MP2 Energies <==================
	-----------------------------------------------------------
	 SCS Same-Spin Scale       =       0.3333333333333333 [-]
	 SCS Opposite-Spin Scale   =       1.2000000000000000 [-]
	 SCS Same-Spin Energy      =      -0.1124202344763401 [Eh]
	 SCS Opposite-Spin Energy  =      -1.1835787757984975 [Eh]
	 SCS Correlation Energy    =      -1.2959990102748375 [Eh]
	 SCS Total Energy          =    -526.1493110363805954 [Eh]
	-----------------------------------------------------------

  Dipole Moment: [D]
     X:    -1.7360      Y:     0.0000      Z:     0.0001     Total:     1.7360

*** Psi4 exiting successfully. Buy a developer a beer!
