                               Psi4 1.4a3.dev225

  ==> Input File <==

--------------------------------------------------------------------------
#psi4
#
memory 32 gb

molecule  {
0 1
  I        1.5544000     0.0000000    -0.0000560
  C       -0.6074020     0.0000000     0.0000218
  C       -1.2475700    -1.2180840     0.0000490
  C       -1.2475700     1.2180840     0.0000400
  C       -2.6465850    -1.2090920     0.0000990
  C       -2.6465850     1.2090920     0.0000900
  C       -3.3492890     0.0000000     0.0001200
  H       -0.7049610    -2.1578320     0.0000340
  H       -0.7049610     2.1578320     0.0000170
  H       -3.1840510    -2.1533320     0.0001220
  H       -3.1840510     2.1533320     0.0001050
  H       -4.4351490     0.0000000     0.0001590
units angstrom
no_reorient  #important for SAPT in psi4, default
symmetry c1  #important for SAPT in psi4, default
}

set PROPERTIES_ORIGIN ["COM"]
properties('MP2/aug-cc-pvtz', properties = ['dipole'])
--------------------------------------------------------------------------

    Molecular point group: c1
  Charge       = 0
  Multiplicity = 1
  Basis Set: AUG-CC-PVTZ
    Blend: AUG-CC-PVTZ
  Basis Set: (AUG-CC-PVTZ AUX)
    Blend: AUG-CC-PVTZ-JKFIT + DEF2-UNIVERSAL-JKFIT

    Orbital Energies [Eh]
    ---------------------

    Doubly Occupied:

       1A    -11.295600     2A    -11.255854     3A    -11.255854
       4A    -11.254617     5A    -11.254414     6A    -11.251747
       7A     -7.717297     8A     -5.548884     9A     -5.539439
      10A     -5.539350    11A     -2.278230    12A     -2.273631
      13A     -2.273567    14A     -2.263042    15A     -2.263035
      16A     -1.173950    17A     -1.038142    18A     -1.035500
      19A     -0.892891    20A     -0.847750    21A     -0.810674
      22A     -0.709562    23A     -0.645451    24A     -0.642345
      25A     -0.607966    26A     -0.563810    27A     -0.530206
      28A     -0.520007    29A     -0.446879    30A     -0.399330
      31A     -0.368675    32A     -0.354182    33A     -0.329965

  @DF-RHF Final Energy:  -524.85225137731743

   => Energetics <=

    Nuclear Repulsion Energy =            351.4303208701150538
    One-Electron Energy =               -1522.2014537110144374
    Two-Electron Energy =                 645.9188814635818972
    Total Energy =                       -524.8522513773174296
  Basis Set: (AUG-CC-PVTZ AUX)
    Blend: AUG-CC-PVTZ-RI + DEF2-QZVPP-RI
    Molecular point group: c1

    Geometry (in Angstrom), charge = 0, multiplicity = 1:

       Center              X                  Y                   Z               Mass
    ------------   -----------------  -----------------  -----------------  -----------------
         I            1.338597404169     0.000000000000    -0.000048014307   126.904471900000
         C           -0.823204595831     0.000000000000     0.000029785693    12.000000000000
         C           -1.463372595831    -1.218084000000     0.000056985693    12.000000000000
         C           -1.463372595831     1.218084000000     0.000047985693    12.000000000000
         C           -2.862387595831    -1.209092000000     0.000106985693    12.000000000000
         C           -2.862387595831     1.209092000000     0.000097985693    12.000000000000
         C           -3.565091595831     0.000000000000     0.000127985693    12.000000000000
         H           -0.920763595831    -2.157832000000     0.000041985693     1.007825032230
         H           -0.920763595831     2.157832000000     0.000024985693     1.007825032230
         H           -3.399853595831    -2.153332000000     0.000129985693     1.007825032230
         H           -3.399853595831     2.153332000000     0.000112985693     1.007825032230
         H           -4.650951595831     0.000000000000     0.000166985693     1.007825032230

  Basis Set: AUG-CC-PVTZ
    Blend: AUG-CC-PVTZ
  Basis Set: (AUG-CC-PVTZ AUX)
    Blend: AUG-CC-PVTZ-JKFIT + DEF2-UNIVERSAL-JKFIT
	 Reference Energy          =    -524.8522513773174296 [Eh]
	 Singles Energy            =      -0.0000000000000000 [Eh]
	 Same-Spin Energy          =      -0.3371228678295276 [Eh]
	 Opposite-Spin Energy      =      -0.9859331292264955 [Eh]
	 Correlation Energy        =      -1.3230559970560232 [Eh]
	 Total Energy              =    -526.1753073743734603 [Eh]

	 ================> DF-SCS-MP2 Energies <==================
	-----------------------------------------------------------
	 SCS Same-Spin Scale       =       0.3333333333333333 [-]
	 SCS Opposite-Spin Scale   =       1.2000000000000000 [-]
	 SCS Same-Spin Energy      =      -0.1123742892765092 [Eh]
	 SCS Opposite-Spin Energy  =      -1.1831197550717945 [Eh]
	 SCS Correlation Energy    =      -1.2954940443483036 [Eh]
	 SCS Total Energy          =    -526.1477454216657179 [Eh]
	-----------------------------------------------------------

  Dipole Moment: [D]
     X:    -1.8805      Y:     0.0000      Z:     0.0001     Total:     1.8805

*** Psi4 exiting successfully. Buy a developer a beer!
