                               Psi4 1.4a3.dev225

  ==> Input File <==

--------------------------------------------------------------------------
#psi4
#
memory 32 gb

molecule  {
0 1
  I        1.5544000     0.0000000    -0.0000560
  C       -0.5074020     0.0000000     0.0000182
  C       -1.2475700    -1.2180840     0.0000490
  C       -1.2475700     1.2180840     0.0000400
  C       -2.6465850    -1.2090920     0.0000990
  C       -2.6465850     1.2090920     0.0000900
  C       -3.3492890     0.0000000     0.0001200
  H       -0.7049610    -2.1578320     0.0000340
  H       -0.7049610     2.1578320     0.0000170
  H       -3.1840510    -2.1533320     0.0001220
  H       -3.1840510     2.1533320     0.0001050
  H       -4.4351490     0.0000000     0.0001590
units angstrom
no_reorient  #important for SAPT in psi4, default
symmetry c1  #important for SAPT in psi4, default
}

set PROPERTIES_ORIGIN ["COM"]
properties('MP2/aug-cc-pvtz', properties = ['dipole'])
--------------------------------------------------------------------------

    Molecular point group: c1
  Charge       = 0
  Multiplicity = 1
  Basis Set: AUG-CC-PVTZ
    Blend: AUG-CC-PVTZ
  Basis Set: (AUG-CC-PVTZ AUX)
    Blend: AUG-CC-PVTZ-JKFIT + DEF2-UNIVERSAL-JKFIT

    Orbital Energies [Eh]
    ---------------------

    Doubly Occupied:

       1A    -11.296250     2A    -11.257911     3A    -11.257882
       4A    -11.252112     5A    -11.251469     6A    -11.250366
       7A     -7.725124     8A     -5.557045     9A     -5.547192
      10A     -5.547155    11A     -2.287065    12A     -2.281725
      13A     -2.281702    14A     -2.270773    15A     -2.270767
      16A     -1.160184    17A     -1.036234    18A     -1.026462
      19A     -0.905690    20A     -0.837776    21A     -0.805728
      22A     -0.704351    23A     -0.640189    24A     -0.635722
      25A     -0.598700    26A     -0.562944    27A     -0.520075
      28A     -0.507159    29A     -0.472145    30A     -0.406478
      31A     -0.373985    32A     -0.349695    33A     -0.321297

  @DF-RHF Final Energy:  -524.84954902668983

   => Energetics <=

    Nuclear Repulsion Energy =            351.3705307052731541
    One-Electron Energy =               -1522.0414579523701377
    Two-Electron Energy =                 645.8213782204072686
    Total Energy =                       -524.8495490266898287
  Basis Set: (AUG-CC-PVTZ AUX)
    Blend: AUG-CC-PVTZ-RI + DEF2-QZVPP-RI
    Molecular point group: c1

    Geometry (in Angstrom), charge = 0, multiplicity = 1:

       Center              X                  Y                   Z               Mass
    ------------   -----------------  -----------------  -----------------  -----------------
         I            1.332713424395     0.000000000000    -0.000047802484   126.904471900000
         C           -0.729088575605     0.000000000000     0.000026397516    12.000000000000
         C           -1.469256575605    -1.218084000000     0.000057197516    12.000000000000
         C           -1.469256575605     1.218084000000     0.000048197516    12.000000000000
         C           -2.868271575605    -1.209092000000     0.000107197516    12.000000000000
         C           -2.868271575605     1.209092000000     0.000098197516    12.000000000000
         C           -3.570975575605     0.000000000000     0.000128197516    12.000000000000
         H           -0.926647575605    -2.157832000000     0.000042197516     1.007825032230
         H           -0.926647575605     2.157832000000     0.000025197516     1.007825032230
         H           -3.405737575605    -2.153332000000     0.000130197516     1.007825032230
         H           -3.405737575605     2.153332000000     0.000113197516     1.007825032230
         H           -4.656835575605     0.000000000000     0.000167197516     1.007825032230

  Basis Set: AUG-CC-PVTZ
    Blend: AUG-CC-PVTZ
  Basis Set: (AUG-CC-PVTZ AUX)
    Blend: AUG-CC-PVTZ-JKFIT + DEF2-UNIVERSAL-JKFIT
	 Reference Energy          =    -524.8495490266898287 [Eh]
	 Singles Energy            =      -0.0000000000000000 [Eh]
	 Same-Spin Energy          =      -0.3378853737896055 [Eh]
	 Opposite-Spin Energy      =      -0.9876775662376176 [Eh]
	 Correlation Energy        =      -1.3255629400272231 [Eh]
	 Total Energy              =    -526.1751119667170542 [Eh]

	 ================> DF-SCS-MP2 Energies <==================
	-----------------------------------------------------------
	 SCS Same-Spin Scale       =       0.3333333333333333 [-]
	 SCS Opposite-Spin Scale   =       1.2000000000000000 [-]
	 SCS Same-Spin Energy      =      -0.1126284579298685 [Eh]
	 SCS Opposite-Spin Energy  =      -1.1852130794851410 [Eh]
	 SCS Correlation Energy    =      -1.2978415374150094 [Eh]
	 SCS Total Energy          =    -526.1473905641048532 [Eh]
	-----------------------------------------------------------

  Dipole Moment: [D]
     X:    -1.4323      Y:     0.0000      Z:     0.0001     Total:     1.4323

*** Psi4 exiting successfully. Buy a developer a beer!
