                               Psi4 1.4a2.dev612

  ==> Input File <==

--------------------------------------------------------------------------
#psi4
#
memory 32 gb

molecule  {
0 1
  I        1.5492558     0.1473119    -0.0000563
  C       -0.5574020     0.0000000     0.0000200
  C       -1.2475700    -1.2180840     0.0000490
  C       -1.2475700     1.2180840     0.0000400
  C       -2.6465850    -1.2090920     0.0000990
  C       -2.6465850     1.2090920     0.0000900
  C       -3.3492890     0.0000000     0.0001200
  H       -0.7049610    -2.1578320     0.0000340
  H       -0.7049610     2.1578320     0.0000170
  H       -3.1840510    -2.1533320     0.0001220
  H       -3.1840510     2.1533320     0.0001050
  H       -4.4351490     0.0000000     0.0001590
units angstrom
no_reorient  #important for SAPT in psi4, default
symmetry c1  #important for SAPT in psi4, default
}

set PROPERTIES_ORIGIN ["COM"]

basis mybas {
    assign aug-cc-pvtz
    assign I aug-cc-pvtz-pp
}
properties('MP2/mybas', properties = ['dipole'])
--------------------------------------------------------------------------

    Molecular point group: c1
  Charge       = 0
  Multiplicity = 1
  Basis Set: MYBAS
    Blend: AUG-CC-PVTZ + AUG-CC-PVTZ-PP
  Basis Set: (MYBAS AUX)
    Blend: AUG-CC-PVTZ-JKFIT + DEF2-UNIVERSAL-JKFIT

    Orbital Energies [Eh]
    ---------------------

    Doubly Occupied:

       1A    -11.295470     2A    -11.257625     3A    -11.255347
       4A    -11.253553     5A    -11.252466     6A    -11.250939
       7A     -7.721493     8A     -5.553274     9A     -5.543576
      10A     -5.543513    11A     -2.282929    12A     -2.277964
      13A     -2.277940    14A     -2.267141    15A     -2.267134
      16A     -1.166676    17A     -1.037108    18A     -1.030482
      19A     -0.899405    20A     -0.842522    21A     -0.808221
      22A     -0.706758    23A     -0.641147    24A     -0.640000
      25A     -0.603385    26A     -0.563198    27A     -0.524772
      28A     -0.513760    29A     -0.459816    30A     -0.402770
      31A     -0.371384    32A     -0.351724    33A     -0.325848

  @DF-RHF Final Energy:  -524.85223417020006

   => Energetics <=

    Nuclear Repulsion Energy =            351.4806359575471788
    One-Electron Energy =               -1522.2870623587641603
    Two-Electron Energy =                 645.9541922310168047
    Total Energy =                       -524.8522341702000631
  Basis Set: (MYBAS AUX)
    Blend: AUG-CC-PVTZ-RI + DEF2-QZVPP-RI
    Molecular point group: c1

    Geometry (in Angstrom), charge = 0, multiplicity = 1:

       Center              X                  Y                   Z               Mass
    ------------   -----------------  -----------------  -----------------  -----------------
         I            1.333712207075     0.055646659495    -0.000048021720   126.904471900000
         C           -0.772945592925    -0.091665240505     0.000028278280    12.000000000000
         C           -1.463113592925    -1.309749240505     0.000057278280    12.000000000000
         C           -1.463113592925     1.126418759495     0.000048278280    12.000000000000
         C           -2.862128592925    -1.300757240505     0.000107278280    12.000000000000
         C           -2.862128592925     1.117426759495     0.000098278280    12.000000000000
         C           -3.564832592925    -0.091665240505     0.000128278280    12.000000000000
         H           -0.920504592925    -2.249497240505     0.000042278280     1.007825032230
         H           -0.920504592925     2.066166759495     0.000025278280     1.007825032230
         H           -3.399594592925    -2.244997240505     0.000130278280     1.007825032230
         H           -3.399594592925     2.061666759495     0.000113278280     1.007825032230
         H           -4.650692592925    -0.091665240505     0.000167278280     1.007825032230

  Basis Set: MYBAS
    Blend: AUG-CC-PVTZ + AUG-CC-PVTZ-PP
  Basis Set: (MYBAS AUX)
    Blend: AUG-CC-PVTZ-JKFIT + DEF2-UNIVERSAL-JKFIT
	 Reference Energy          =    -524.8522341702000631 [Eh]
	 Singles Energy            =      -0.0000000000000000 [Eh]
	 Same-Spin Energy          =      -0.3374547077186637 [Eh]
	 Opposite-Spin Energy      =      -0.9867520637568507 [Eh]
	 Correlation Energy        =      -1.3242067714755144 [Eh]
	 Total Energy              =    -526.1764409416755370 [Eh]

	 ================> DF-SCS-MP2 Energies <==================
	-----------------------------------------------------------
	 SCS Same-Spin Scale       =       0.3333333333333333 [-]
	 SCS Opposite-Spin Scale   =       1.2000000000000000 [-]
	 SCS Same-Spin Energy      =      -0.1124849025728879 [Eh]
	 SCS Opposite-Spin Energy  =      -1.1841024765082206 [Eh]
	 SCS Correlation Energy    =      -1.2965873790811084 [Eh]
	 SCS Total Energy          =    -526.1488215492811378 [Eh]
	-----------------------------------------------------------

  Dipole Moment: [D]
     X:    -1.6487      Y:    -0.0240      Z:     0.0001     Total:     1.6489

*** Psi4 exiting successfully. Buy a developer a beer!
