                               Psi4 1.3.2 release

  ==> Input File <==

--------------------------------------------------------------------------
#psi4
#
memory 32 gb

molecule  {
0 1
  O        0.3109550    -0.6942360     1.0654250
  N       -0.6919670     0.7804610    -0.3498900
  C       -2.0331630     0.4428770     0.0915860
  C        1.7168885     0.4215914    -0.5909909
  C        0.4068390     0.1581200     0.1784230
  C       -2.5721020    -0.8329900    -0.5555930
  C        2.8806560    -0.3237650     0.0245060
  H       -1.9910630     0.3248240     1.1818950
  H       -2.6829100     1.2983230    -0.1207890
  H        1.6432190     0.5393270    -1.5482860
  H        1.9198310     1.6196100    -0.1921910
  H       -0.5759590     1.3845000    -1.1569370
  H       -2.6081430    -0.7287990    -1.6478990
  H       -1.9207320    -1.6762470    -0.2982990
  H       -3.5840310    -1.0569410    -0.1969260
  H        2.7105400    -1.3693420    -0.2530710
  H        3.8280690     0.0048160    -0.4188000
  H        2.9664850    -0.2871200     1.1156770
units angstrom
no_reorient  #important for SAPT in psi4, default
symmetry c1  #important for SAPT in psi4, default
}

set PROPERTIES_ORIGIN ["COM"]
properties('MP2/aug-cc-pvtz', properties = ['dipole'])
--------------------------------------------------------------------------

    Molecular point group: c1
  Charge       = 0
  Multiplicity = 1
  Basis Set: AUG-CC-PVTZ
    Blend: AUG-CC-PVTZ
  Basis Set: (AUG-CC-PVTZ AUX)
    Blend: AUG-CC-PVTZ-JKFIT

    Orbital Energies [Eh]
    ---------------------

    Doubly Occupied:

       1A    -20.515187     2A    -15.580613     3A    -11.349947
       4A    -11.262352     5A    -11.249233     6A    -11.218404
       7A    -11.215408     8A     -1.369602     9A     -1.225192
      10A     -1.057659    11A     -1.007737    12A     -0.895775
      13A     -0.838565    14A     -0.778544    15A     -0.707009
      16A     -0.649174    17A     -0.621888    18A     -0.609052
      19A     -0.588606    20A     -0.572894    21A     -0.546372
      22A     -0.529019    23A     -0.517452    24A     -0.508238
      25A     -0.492028    26A     -0.453101    27A     -0.415745
      28A     -0.384898

  @DF-RHF Final Energy:  -325.15822291054735

   => Energetics <=

    Nuclear Repulsion Energy =            313.7109223889526106
    One-Electron Energy =               -1063.4188989767555995
    Two-Electron Energy =                 424.5497536772555804
    Total Energy =                       -325.1582229105473516
  Basis Set: (AUG-CC-PVTZ AUX)
    Blend: AUG-CC-PVTZ-RI
    Molecular point group: c1

    Geometry (in Angstrom), charge = 0, multiplicity = 1:

       Center              X                  Y                   Z               Mass
    ------------   -----------------  -----------------  -----------------  -----------------
         O            0.313166470486    -0.677101486469     1.081711175857    15.994914619570
         N           -0.689755529514     0.797595513531    -0.333603824143    14.003074004430
         C           -2.030951529514     0.460011513531     0.107872175857    12.000000000000
         C            1.719099970486     0.438725913531    -0.574704724143    12.000000000000
         C            0.409050470486     0.175254513531     0.194709175857    12.000000000000
         C           -2.569890529514    -0.815855486469    -0.539306824143    12.000000000000
         C            2.882867470486    -0.306630486469     0.040792175857    12.000000000000
         H           -1.988851529514     0.341958513531     1.198181175857     1.007825032230
         H           -2.680698529514     1.315457513531    -0.104502824143     1.007825032230
         H            1.645430470486     0.556461513531    -1.531999824143     1.007825032230
         H            1.922042470486     1.636744513531    -0.175904824143     1.007825032230
         H           -0.573747529514     1.401634513531    -1.140650824143     1.007825032230
         H           -2.605931529514    -0.711664486469    -1.631612824143     1.007825032230
         H           -1.918520529514    -1.659112486469    -0.282012824143     1.007825032230
         H           -3.581819529514    -1.039806486469    -0.180639824143     1.007825032230
         H            2.712751470486    -1.352207486469    -0.236784824143     1.007825032230
         H            3.830280470486     0.021950513531    -0.402513824143     1.007825032230
         H            2.968696470486    -0.269985486469     1.131963175857     1.007825032230

  Basis Set: AUG-CC-PVTZ
    Blend: AUG-CC-PVTZ
  Basis Set: (AUG-CC-PVTZ AUX)
    Blend: AUG-CC-PVTZ-JKFIT
	 Reference Energy          =    -325.1582229105473516 [Eh]
	 Singles Energy            =      -0.0000000000000000 [Eh]
	 Same-Spin Energy          =      -0.3325911505787771 [Eh]
	 Opposite-Spin Energy      =      -1.1216320564936573 [Eh]
	 Correlation Energy        =      -1.4542232070724344 [Eh]
	 Total Energy              =    -326.6124461176198110 [Eh]

	 ================> DF-SCS-MP2 Energies <==================
	-----------------------------------------------------------
	 SCS Same-Spin Scale       =       0.3333333333333333 [-]
	 SCS Opposite-Spin Scale   =       1.2000000000000000 [-]
	 SCS Same-Spin Energy      =      -0.1108637168595924 [Eh]
	 SCS Opposite-Spin Energy  =      -1.3459584677923886 [Eh]
	 SCS Correlation Energy    =      -1.4568221846519809 [Eh]
	 SCS Total Energy          =    -326.6150450951993207 [Eh]
	-----------------------------------------------------------

  Dipole Moment: [D]
     X:    -0.6936      Y:     2.1040      Z:    -2.6361     Total:     3.4434

*** Psi4 exiting successfully. Buy a developer a beer!
