                               Psi4 1.3.2 release

  ==> Input File <==

--------------------------------------------------------------------------
#psi4
#
memory 32 gb

molecule  {
0 1
  O        0.3109550    -0.6942360     1.0654250
  N       -0.6919670     0.7804610    -0.3498900
  C       -2.0331630     0.4428770     0.0915860
  C        1.7355170     0.5659250    -0.4538020
  C        0.4068390     0.1581200     0.1784230
  C       -2.5721020    -0.8329900    -0.5555930
  C        2.8806560    -0.3237650     0.0245060
  H       -1.9910630     0.3248240     1.1818950
  H       -2.6829100     1.2983230    -0.1207890
  H        1.6432190     0.5393270    -1.5482860
  H        1.9198310     1.6196100    -0.1921910
  H       -0.5628709     1.5361946    -1.0272549
  H       -2.6081430    -0.7287990    -1.6478990
  H       -1.9207320    -1.6762470    -0.2982990
  H       -3.5840310    -1.0569410    -0.1969260
  H        2.7105400    -1.3693420    -0.2530710
  H        3.8280690     0.0048160    -0.4188000
  H        2.9664850    -0.2871200     1.1156770
units angstrom
no_reorient  #important for SAPT in psi4, default
symmetry c1  #important for SAPT in psi4, default
}

set PROPERTIES_ORIGIN ["COM"]
properties('MP2/aug-cc-pvtz', properties = ['dipole'])
--------------------------------------------------------------------------

    Molecular point group: c1
  Charge       = 0
  Multiplicity = 1
  Basis Set: AUG-CC-PVTZ
    Blend: AUG-CC-PVTZ
  Basis Set: (AUG-CC-PVTZ AUX)
    Blend: AUG-CC-PVTZ-JKFIT

    Orbital Energies [Eh]
    ---------------------

    Doubly Occupied:

       1A    -20.514309     2A    -15.581676     3A    -11.345948
       4A    -11.262191     5A    -11.242319     6A    -11.215988
       7A    -11.214397     8A     -1.368702     9A     -1.223890
      10A     -1.054226    11A     -1.005872    12A     -0.894174
      13A     -0.835269    14A     -0.773580    15A     -0.692530
      16A     -0.650375    17A     -0.633064    18A     -0.604793
      19A     -0.590736    20A     -0.567518    21A     -0.534712
      22A     -0.514675    23A     -0.513153    24A     -0.511767
      25A     -0.494724    26A     -0.481385    27A     -0.418124
      28A     -0.386358

  @DF-RHF Final Energy:  -325.19762745061786

   => Energetics <=

    Nuclear Repulsion Energy =            313.5734468173991445
    One-Electron Energy =               -1063.2892417184357328
    Two-Electron Energy =                 424.5181674504187299
    Total Energy =                       -325.1976274506178584
  Basis Set: (AUG-CC-PVTZ AUX)
    Blend: AUG-CC-PVTZ-RI
    Molecular point group: c1

    Geometry (in Angstrom), charge = 0, multiplicity = 1:

       Center              X                  Y                   Z               Mass
    ------------   -----------------  -----------------  -----------------  -----------------
         O            0.310824533434    -0.695748192398     1.064132107538    15.994914619570
         N           -0.692097466566     0.778948807602    -0.351182892462    14.003074004430
         C           -2.033293466566     0.441364807602     0.090293107538    12.000000000000
         C            1.735386533434     0.564412807602    -0.455094892462    12.000000000000
         C            0.406708533434     0.156607807602     0.177130107538    12.000000000000
         C           -2.572232466566    -0.834502192398    -0.556885892462    12.000000000000
         C            2.880525533434    -0.325277192398     0.023213107538    12.000000000000
         H           -1.991193466566     0.323311807602     1.180602107538     1.007825032230
         H           -2.683040466566     1.296810807602    -0.122081892462     1.007825032230
         H            1.643088533434     0.537814807602    -1.549578892462     1.007825032230
         H            1.919700533434     1.618097807602    -0.193483892462     1.007825032230
         H           -0.563001366566     1.534682407602    -1.028547792462     1.007825032230
         H           -2.608273466566    -0.730311192398    -1.649191892462     1.007825032230
         H           -1.920862466566    -1.677759192398    -0.299591892462     1.007825032230
         H           -3.584161466566    -1.058453192398    -0.198218892462     1.007825032230
         H            2.710409533434    -1.370854192398    -0.254363892462     1.007825032230
         H            3.827938533434     0.003303807602    -0.420092892462     1.007825032230
         H            2.966354533434    -0.288632192398     1.114384107538     1.007825032230

  Basis Set: AUG-CC-PVTZ
    Blend: AUG-CC-PVTZ
  Basis Set: (AUG-CC-PVTZ AUX)
    Blend: AUG-CC-PVTZ-JKFIT
	 Reference Energy          =    -325.1976274506178584 [Eh]
	 Singles Energy            =      -0.0000000000000000 [Eh]
	 Same-Spin Energy          =      -0.3319094195590361 [Eh]
	 Opposite-Spin Energy      =      -1.1196708540733700 [Eh]
	 Correlation Energy        =      -1.4515802736324059 [Eh]
	 Total Energy              =    -326.6492077242502887 [Eh]

	 ================> DF-SCS-MP2 Energies <==================
	-----------------------------------------------------------
	 SCS Same-Spin Scale       =       0.3333333333333333 [-]
	 SCS Opposite-Spin Scale   =       1.2000000000000000 [-]
	 SCS Same-Spin Energy      =      -0.1106364731863454 [Eh]
	 SCS Opposite-Spin Energy  =      -1.3436050248880440 [Eh]
	 SCS Correlation Energy    =      -1.4542414980743894 [Eh]
	 SCS Total Energy          =    -326.6518689486922540 [Eh]
	-----------------------------------------------------------

  Dipole Moment: [D]
     X:    -0.6833      Y:     2.4520      Z:    -2.4288     Total:     3.5183

*** Psi4 exiting successfully. Buy a developer a beer!
