                               Psi4 1.3.2 release

  ==> Input File <==

--------------------------------------------------------------------------
#psi4
#
memory 32 gb

molecule  {
0 1
  O        0.3109550    -0.6942360     1.0654250
  N       -0.6919670     0.7804610    -0.3498900
  C       -2.0331630     0.4428770     0.0915860
  C        1.7308599     0.5298416    -0.4880992
  C        0.4068390     0.1581200     0.1784230
  C       -2.5721020    -0.8329900    -0.5555930
  C        2.8806560    -0.3237650     0.0245060
  H       -1.9910630     0.3248240     1.1818950
  H       -2.6829100     1.2983230    -0.1207890
  H        1.6432190     0.5393270    -1.5482860
  H        1.9198310     1.6196100    -0.1921910
  H       -0.5759590     1.3845000    -1.1569370
  H       -2.6081430    -0.7287990    -1.6478990
  H       -1.9207320    -1.6762470    -0.2982990
  H       -3.5840310    -1.0569410    -0.1969260
  H        2.7105400    -1.3693420    -0.2530710
  H        3.8280690     0.0048160    -0.4188000
  H        2.9664850    -0.2871200     1.1156770
units angstrom
no_reorient  #important for SAPT in psi4, default
symmetry c1  #important for SAPT in psi4, default
}

set PROPERTIES_ORIGIN ["COM"]
properties('MP2/aug-cc-pvtz', properties = ['dipole'])
--------------------------------------------------------------------------

    Molecular point group: c1
  Charge       = 0
  Multiplicity = 1
  Basis Set: AUG-CC-PVTZ
    Blend: AUG-CC-PVTZ
  Basis Set: (AUG-CC-PVTZ AUX)
    Blend: AUG-CC-PVTZ-JKFIT

    Orbital Energies [Eh]
    ---------------------

    Doubly Occupied:

       1A    -20.514322     2A    -15.580879     3A    -11.346432
       4A    -11.262209     5A    -11.243364     6A    -11.216059
       7A    -11.215076     8A     -1.368889     9A     -1.225074
      10A     -1.055193    11A     -1.006617    12A     -0.894412
      13A     -0.835839    14A     -0.776533    15A     -0.693841
      16A     -0.648501    17A     -0.631970    18A     -0.605896
      19A     -0.587770    20A     -0.573260    21A     -0.534372
      22A     -0.519057    23A     -0.513986    24A     -0.511407
      25A     -0.494175    26A     -0.478826    27A     -0.418307
      28A     -0.386186

  @DF-RHF Final Energy:  -325.19539356371996

   => Energetics <=

    Nuclear Repulsion Energy =            313.7280279540013339
    One-Electron Energy =               -1063.5699368631110246
    Two-Electron Energy =                 424.6465153453896733
    Total Energy =                       -325.1953935637199606
  Basis Set: (AUG-CC-PVTZ AUX)
    Blend: AUG-CC-PVTZ-RI
    Molecular point group: c1

    Geometry (in Angstrom), charge = 0, multiplicity = 1:

       Center              X                  Y                   Z               Mass
    ------------   -----------------  -----------------  -----------------  -----------------
         O            0.311507882640    -0.689952200507     1.069496585827    15.994914619570
         N           -0.691414117360     0.784744799493    -0.345818414173    14.003074004430
         C           -2.032610117360     0.447160799493     0.095657585827    12.000000000000
         C            1.731412782640     0.534125399493    -0.484027614173    12.000000000000
         C            0.407391882640     0.162403799493     0.182494585827    12.000000000000
         C           -2.571549117360    -0.828706200507    -0.551521414173    12.000000000000
         C            2.881208882640    -0.319481200507     0.028577585827    12.000000000000
         H           -1.990510117360     0.329107799493     1.185966585827     1.007825032230
         H           -2.682357117360     1.302606799493    -0.116717414173     1.007825032230
         H            1.643771882640     0.543610799493    -1.544214414173     1.007825032230
         H            1.920383882640     1.623893799493    -0.188119414173     1.007825032230
         H           -0.575406117360     1.388783799493    -1.152865414173     1.007825032230
         H           -2.607590117360    -0.724515200507    -1.643827414173     1.007825032230
         H           -1.920179117360    -1.671963200507    -0.294227414173     1.007825032230
         H           -3.583478117360    -1.052657200507    -0.192854414173     1.007825032230
         H            2.711092882640    -1.365058200507    -0.248999414173     1.007825032230
         H            3.828621882640     0.009099799493    -0.414728414173     1.007825032230
         H            2.967037882640    -0.282836200507     1.119748585827     1.007825032230

  Basis Set: AUG-CC-PVTZ
    Blend: AUG-CC-PVTZ
  Basis Set: (AUG-CC-PVTZ AUX)
    Blend: AUG-CC-PVTZ-JKFIT
	 Reference Energy          =    -325.1953935637199606 [Eh]
	 Singles Energy            =      -0.0000000000000000 [Eh]
	 Same-Spin Energy          =      -0.3319248946256919 [Eh]
	 Opposite-Spin Energy      =      -1.1196213933219092 [Eh]
	 Correlation Energy        =      -1.4515462879476011 [Eh]
	 Total Energy              =    -326.6469398516675824 [Eh]

	 ================> DF-SCS-MP2 Energies <==================
	-----------------------------------------------------------
	 SCS Same-Spin Scale       =       0.3333333333333333 [-]
	 SCS Opposite-Spin Scale   =       1.2000000000000000 [-]
	 SCS Same-Spin Energy      =      -0.1106416315418973 [Eh]
	 SCS Opposite-Spin Energy  =      -1.3435456719862910 [Eh]
	 SCS Correlation Energy    =      -1.4541873035281883 [Eh]
	 SCS Total Energy          =    -326.6495808672481758 [Eh]
	-----------------------------------------------------------

  Dipole Moment: [D]
     X:    -0.6998      Y:     2.2201      Z:    -2.6019     Total:     3.4912

*** Psi4 exiting successfully. Buy a developer a beer!
