                               Psi4 1.3.2 release

  ==> Input File <==

--------------------------------------------------------------------------
#psi4
#
memory 32 gb

molecule  {
0 1
  O        0.3109550    -0.6942360     1.0654250
  N       -0.6919670     0.7804610    -0.3498900
  C       -2.0331630     0.4428770     0.0915860
  C        1.7355170     0.5659250    -0.4538020
  C        0.4068390     0.1581200     0.1784230
  C       -2.5721020    -0.8329900    -0.5555930
  C        2.8806560    -0.3237650     0.0245060
  H       -1.9910630     0.3248240     1.1818950
  H       -2.6829100     1.2983230    -0.1207890
  H        1.6432190     0.5393270    -1.5482860
  H        1.9198310     1.6196100    -0.1921910
  H       -0.5694150     1.4603473    -1.0920959
  H       -2.6081430    -0.7287990    -1.6478990
  H       -1.9207320    -1.6762470    -0.2982990
  H       -3.5840310    -1.0569410    -0.1969260
  H        2.7105400    -1.3693420    -0.2530710
  H        3.8280690     0.0048160    -0.4188000
  H        2.9664850    -0.2871200     1.1156770
units angstrom
no_reorient  #important for SAPT in psi4, default
symmetry c1  #important for SAPT in psi4, default
}

set PROPERTIES_ORIGIN ["COM"]
properties('MP2/aug-cc-pvtz', properties = ['dipole'])
--------------------------------------------------------------------------

    Molecular point group: c1
  Charge       = 0
  Multiplicity = 1
  Basis Set: AUG-CC-PVTZ
    Blend: AUG-CC-PVTZ
  Basis Set: (AUG-CC-PVTZ AUX)
    Blend: AUG-CC-PVTZ-JKFIT

    Orbital Energies [Eh]
    ---------------------

    Doubly Occupied:

       1A    -20.514117     2A    -15.580957     3A    -11.345988
       4A    -11.262258     5A    -11.242465     6A    -11.216052
       7A    -11.214661     8A     -1.368685     9A     -1.224943
      10A     -1.054360    11A     -1.006179    12A     -0.894225
      13A     -0.835735    14A     -0.776271    15A     -0.692526
      16A     -0.649477    17A     -0.633459    18A     -0.604838
      19A     -0.589178    20A     -0.570764    21A     -0.534756
      22A     -0.514702    23A     -0.513302    24A     -0.511684
      25A     -0.494991    26A     -0.481868    27A     -0.418241
      28A     -0.386319

  @DF-RHF Final Energy:  -325.19836916834726

   => Energetics <=

    Nuclear Repulsion Energy =            313.6479300764291338
    One-Electron Energy =               -1063.4265948119473251
    Two-Electron Energy =                 424.5802955671709356
    Total Energy =                       -325.1983691683472557
  Basis Set: (AUG-CC-PVTZ AUX)
    Blend: AUG-CC-PVTZ-RI
    Molecular point group: c1

    Geometry (in Angstrom), charge = 0, multiplicity = 1:

       Center              X                  Y                   Z               Mass
    ------------   -----------------  -----------------  -----------------  -----------------
         O            0.310889779206    -0.694991982126     1.064778583158    15.994914619570
         N           -0.692032220794     0.779705017874    -0.350536416842    14.003074004430
         C           -2.033228220794     0.442121017874     0.090939583158    12.000000000000
         C            1.735451779206     0.565169017874    -0.454448416842    12.000000000000
         C            0.406773779206     0.157364017874     0.177776583158    12.000000000000
         C           -2.572167220794    -0.833745982126    -0.556239416842    12.000000000000
         C            2.880590779206    -0.324520982126     0.023859583158    12.000000000000
         H           -1.991128220794     0.324068017874     1.181248583158     1.007825032230
         H           -2.682975220794     1.297567017874    -0.121435416842     1.007825032230
         H            1.643153779206     0.538571017874    -1.548932416842     1.007825032230
         H            1.919765779206     1.618854017874    -0.192837416842     1.007825032230
         H           -0.569480220794     1.459591317874    -1.092742316842     1.007825032230
         H           -2.608208220794    -0.729554982126    -1.648545416842     1.007825032230
         H           -1.920797220794    -1.677002982126    -0.298945416842     1.007825032230
         H           -3.584096220794    -1.057696982126    -0.197572416842     1.007825032230
         H            2.710474779206    -1.370097982126    -0.253717416842     1.007825032230
         H            3.828003779206     0.004060017874    -0.419446416842     1.007825032230
         H            2.966419779206    -0.287875982126     1.115030583158     1.007825032230

  Basis Set: AUG-CC-PVTZ
    Blend: AUG-CC-PVTZ
  Basis Set: (AUG-CC-PVTZ AUX)
    Blend: AUG-CC-PVTZ-JKFIT
	 Reference Energy          =    -325.1983691683472557 [Eh]
	 Singles Energy            =      -0.0000000000000000 [Eh]
	 Same-Spin Energy          =      -0.3318417122197812 [Eh]
	 Opposite-Spin Energy      =      -1.1194638644298029 [Eh]
	 Correlation Energy        =      -1.4513055766495842 [Eh]
	 Total Energy              =    -326.6496747449968439 [Eh]

	 ================> DF-SCS-MP2 Energies <==================
	-----------------------------------------------------------
	 SCS Same-Spin Scale       =       0.3333333333333333 [-]
	 SCS Opposite-Spin Scale   =       1.2000000000000000 [-]
	 SCS Same-Spin Energy      =      -0.1106139040732604 [Eh]
	 SCS Opposite-Spin Energy  =      -1.3433566373157635 [Eh]
	 SCS Correlation Energy    =      -1.4539705413890238 [Eh]
	 SCS Total Energy          =    -326.6523397097362817 [Eh]
	-----------------------------------------------------------

  Dipole Moment: [D]
     X:    -0.6943      Y:     2.3543      Z:    -2.5103     Total:     3.5109

*** Psi4 exiting successfully. Buy a developer a beer!
