                               Psi4 1.3.2 release

  ==> Input File <==

--------------------------------------------------------------------------
#psi4
#
memory 32 gb

molecule  {
0 1
  O        0.3109550    -0.6942360     1.0654250
  N       -0.6919670     0.7804610    -0.3498900
  C       -2.0331630     0.4428770     0.0915860
  C        1.7355170     0.5659250    -0.4538020
  C        0.4068390     0.1581200     0.1784230
  C       -2.5721020    -0.8329900    -0.5555930
  C        2.8806560    -0.3237650     0.0245060
  H       -1.9910630     0.3248240     1.1818950
  H       -2.6829100     1.2983230    -0.1207890
  H        1.6432190     0.5393270    -1.5482860
  H        1.9198310     1.6196100    -0.1921910
  H       -0.5595989     1.5741183    -0.9948344
  H       -2.6081430    -0.7287990    -1.6478990
  H       -1.9207320    -1.6762470    -0.2982990
  H       -3.5840310    -1.0569410    -0.1969260
  H        2.7105400    -1.3693420    -0.2530710
  H        3.8280690     0.0048160    -0.4188000
  H        2.9664850    -0.2871200     1.1156770
units angstrom
no_reorient  #important for SAPT in psi4, default
symmetry c1  #important for SAPT in psi4, default
}

set PROPERTIES_ORIGIN ["COM"]
properties('MP2/aug-cc-pvtz', properties = ['dipole'])
--------------------------------------------------------------------------

    Molecular point group: c1
  Charge       = 0
  Multiplicity = 1
  Basis Set: AUG-CC-PVTZ
    Blend: AUG-CC-PVTZ
  Basis Set: (AUG-CC-PVTZ AUX)
    Blend: AUG-CC-PVTZ-JKFIT

    Orbital Energies [Eh]
    ---------------------

    Doubly Occupied:

       1A    -20.514538     2A    -15.582294     3A    -11.345944
       4A    -11.262107     5A    -11.242243     6A    -11.215956
       7A    -11.214288     8A     -1.368775     9A     -1.223047
      10A     -1.054157    11A     -1.005640    12A     -0.894122
      13A     -0.835015    14A     -0.771300    15A     -0.692441
      16A     -0.650762    17A     -0.632882    18A     -0.604799
      19A     -0.591387    20A     -0.565812    21A     -0.534700
      22A     -0.514651    23A     -0.513093    24A     -0.511730
      25A     -0.494577    26A     -0.481141    27A     -0.418136
      28A     -0.386441

  @DF-RHF Final Energy:  -325.19689835126258

   => Energetics <=

    Nuclear Repulsion Energy =            313.5194500670845059
    One-Electron Energy =               -1063.1887454153404633
    Two-Electron Energy =                 424.4723969969933250
    Total Energy =                       -325.1968983512625755
  Basis Set: (AUG-CC-PVTZ AUX)
    Blend: AUG-CC-PVTZ-RI
    Molecular point group: c1

    Geometry (in Angstrom), charge = 0, multiplicity = 1:

       Center              X                  Y                   Z               Mass
    ------------   -----------------  -----------------  -----------------  -----------------
         O            0.310791911047    -0.696126298033     1.063808869728    15.994914619570
         N           -0.692130088953     0.778570701967    -0.351506130272    14.003074004430
         C           -2.033326088953     0.440986701967     0.089969869728    12.000000000000
         C            1.735353911047     0.564034701967    -0.455418130272    12.000000000000
         C            0.406675911047     0.156229701967     0.176806869728    12.000000000000
         C           -2.572265088953    -0.834880298033    -0.557209130272    12.000000000000
         C            2.880492911047    -0.325655298033     0.022889869728    12.000000000000
         H           -1.991226088953     0.322933701967     1.180278869728     1.007825032230
         H           -2.683073088953     1.296432701967    -0.122405130272     1.007825032230
         H            1.643055911047     0.537436701967    -1.549902130272     1.007825032230
         H            1.919667911047     1.617719701967    -0.193807130272     1.007825032230
         H           -0.559761988953     1.572228001967    -0.996450530272     1.007825032230
         H           -2.608306088953    -0.730689298033    -1.649515130272     1.007825032230
         H           -1.920895088953    -1.678137298033    -0.299915130272     1.007825032230
         H           -3.584194088953    -1.058831298033    -0.198542130272     1.007825032230
         H            2.710376911047    -1.371232298033    -0.254687130272     1.007825032230
         H            3.827905911047     0.002925701967    -0.420416130272     1.007825032230
         H            2.966321911047    -0.289010298033     1.114060869728     1.007825032230

  Basis Set: AUG-CC-PVTZ
    Blend: AUG-CC-PVTZ
  Basis Set: (AUG-CC-PVTZ AUX)
    Blend: AUG-CC-PVTZ-JKFIT
	 Reference Energy          =    -325.1968983512625755 [Eh]
	 Singles Energy            =      -0.0000000000000000 [Eh]
	 Same-Spin Energy          =      -0.3319650672246797 [Eh]
	 Opposite-Spin Energy      =      -1.1198406460388168 [Eh]
	 Correlation Energy        =      -1.4518057132634965 [Eh]
	 Total Energy              =    -326.6487040645261004 [Eh]

	 ================> DF-SCS-MP2 Energies <==================
	-----------------------------------------------------------
	 SCS Same-Spin Scale       =       0.3333333333333333 [-]
	 SCS Opposite-Spin Scale   =       1.2000000000000000 [-]
	 SCS Same-Spin Energy      =      -0.1106550224082266 [Eh]
	 SCS Opposite-Spin Energy  =      -1.3438087752465802 [Eh]
	 SCS Correlation Energy    =      -1.4544637976548067 [Eh]
	 SCS Total Energy          =    -326.6513621489173715 [Eh]
	-----------------------------------------------------------

  Dipole Moment: [D]
     X:    -0.6765      Y:     2.4960      Z:    -2.3843     Total:     3.5175

*** Psi4 exiting successfully. Buy a developer a beer!
