                               Psi4 1.3.2 release

  ==> Input File <==

--------------------------------------------------------------------------
#psi4
#
memory 32 gb

molecule  {
0 1
  O        0.3109550    -0.6942360     1.0654250
  N       -0.6919670     0.7804610    -0.3498900
  C       -2.0331630     0.4428770     0.0915860
  C        1.7075743     0.3494246    -0.6595853
  C        0.4068390     0.1581200     0.1784230
  C       -2.5721020    -0.8329900    -0.5555930
  C        2.8806560    -0.3237650     0.0245060
  H       -1.9910630     0.3248240     1.1818950
  H       -2.6829100     1.2983230    -0.1207890
  H        1.6432190     0.5393270    -1.5482860
  H        1.9198310     1.6196100    -0.1921910
  H       -0.5759590     1.3845000    -1.1569370
  H       -2.6081430    -0.7287990    -1.6478990
  H       -1.9207320    -1.6762470    -0.2982990
  H       -3.5840310    -1.0569410    -0.1969260
  H        2.7105400    -1.3693420    -0.2530710
  H        3.8280690     0.0048160    -0.4188000
  H        2.9664850    -0.2871200     1.1156770
units angstrom
no_reorient  #important for SAPT in psi4, default
symmetry c1  #important for SAPT in psi4, default
}

set PROPERTIES_ORIGIN ["COM"]
properties('MP2/aug-cc-pvtz', properties = ['dipole'])
--------------------------------------------------------------------------

    Molecular point group: c1
  Charge       = 0
  Multiplicity = 1
  Basis Set: AUG-CC-PVTZ
    Blend: AUG-CC-PVTZ
  Basis Set: (AUG-CC-PVTZ AUX)
    Blend: AUG-CC-PVTZ-JKFIT

    Orbital Energies [Eh]
    ---------------------

    Doubly Occupied:

       1A    -20.516324     2A    -15.580394     3A    -11.354047
       4A    -11.262473     5A    -11.255991     6A    -11.221900
       7A    -11.215655     8A     -1.370468     9A     -1.225319
      10A     -1.059449    11A     -1.008432    12A     -0.897649
      13A     -0.843252    14A     -0.780695    15A     -0.716326
      16A     -0.649870    17A     -0.615931    18A     -0.610374
      19A     -0.588890    20A     -0.575311    21A     -0.557556
      22A     -0.528295    23A     -0.520100    24A     -0.505709
      25A     -0.492021    26A     -0.436522    27A     -0.410557
      28A     -0.382855

  @DF-RHF Final Energy:  -325.11281805676208

   => Energetics <=

    Nuclear Repulsion Energy =            313.5441202488848376
    One-Electron Energy =               -1062.9491455915081133
    Two-Electron Energy =                 424.2922072858611955
    Total Energy =                       -325.1128180567620802
  Basis Set: (AUG-CC-PVTZ AUX)
    Blend: AUG-CC-PVTZ-RI
    Molecular point group: c1

    Geometry (in Angstrom), charge = 0, multiplicity = 1:

       Center              X                  Y                   Z               Mass
    ------------   -----------------  -----------------  -----------------  -----------------
         O            0.314272187803    -0.668534343777     1.089854227962    15.994914619570
         N           -0.688649812197     0.806162656223    -0.325460772038    14.003074004430
         C           -2.029845812197     0.468578656223     0.116015227962    12.000000000000
         C            1.710891487803     0.375126256223    -0.635156072038    12.000000000000
         C            0.410156187803     0.183821656223     0.202852227962    12.000000000000
         C           -2.568784812197    -0.807288343777    -0.531163772038    12.000000000000
         C            2.883973187803    -0.298063343777     0.048935227962    12.000000000000
         H           -1.987745812197     0.350525656223     1.206324227962     1.007825032230
         H           -2.679592812197     1.324024656223    -0.096359772038     1.007825032230
         H            1.646536187803     0.565028656223    -1.523856772038     1.007825032230
         H            1.923148187803     1.645311656223    -0.167761772038     1.007825032230
         H           -0.572641812197     1.410201656223    -1.132507772038     1.007825032230
         H           -2.604825812197    -0.703097343777    -1.623469772038     1.007825032230
         H           -1.917414812197    -1.650545343777    -0.273869772038     1.007825032230
         H           -3.580713812197    -1.031239343777    -0.172496772038     1.007825032230
         H            2.713857187803    -1.343640343777    -0.228641772038     1.007825032230
         H            3.831386187803     0.030517656223    -0.394370772038     1.007825032230
         H            2.969802187803    -0.261418343777     1.140106227962     1.007825032230

  Basis Set: AUG-CC-PVTZ
    Blend: AUG-CC-PVTZ
  Basis Set: (AUG-CC-PVTZ AUX)
    Blend: AUG-CC-PVTZ-JKFIT
	 Reference Energy          =    -325.1128180567620802 [Eh]
	 Singles Energy            =      -0.0000000000000000 [Eh]
	 Same-Spin Energy          =      -0.3333691569997414 [Eh]
	 Opposite-Spin Energy      =      -1.1242007453844787 [Eh]
	 Correlation Energy        =      -1.4575699023842201 [Eh]
	 Total Energy              =    -326.5703879591462737 [Eh]

	 ================> DF-SCS-MP2 Energies <==================
	-----------------------------------------------------------
	 SCS Same-Spin Scale       =       0.3333333333333333 [-]
	 SCS Opposite-Spin Scale   =       1.2000000000000000 [-]
	 SCS Same-Spin Energy      =      -0.1111230523332471 [Eh]
	 SCS Opposite-Spin Energy  =      -1.3490408944613743 [Eh]
	 SCS Correlation Energy    =      -1.4601639467946215 [Eh]
	 SCS Total Energy          =    -326.5729820035567172 [Eh]
	-----------------------------------------------------------

  Dipole Moment: [D]
     X:    -0.6842      Y:     2.0071      Z:    -2.6345     Total:     3.3819

*** Psi4 exiting successfully. Buy a developer a beer!
