                               Psi4 1.3.2 release

  ==> Input File <==

--------------------------------------------------------------------------
#psi4
#
memory 32 gb

molecule  {
0 1
  O        0.3109550    -0.6942360     1.0654250
  N       -0.6919670     0.7804610    -0.3498900
  C       -2.0331630     0.4428770     0.0915860
  C        1.7122314     0.3855080    -0.6252881
  C        0.4068390     0.1581200     0.1784230
  C       -2.5721020    -0.8329900    -0.5555930
  C        2.8806560    -0.3237650     0.0245060
  H       -1.9910630     0.3248240     1.1818950
  H       -2.6829100     1.2983230    -0.1207890
  H        1.6432190     0.5393270    -1.5482860
  H        1.9198310     1.6196100    -0.1921910
  H       -0.5759590     1.3845000    -1.1569370
  H       -2.6081430    -0.7287990    -1.6478990
  H       -1.9207320    -1.6762470    -0.2982990
  H       -3.5840310    -1.0569410    -0.1969260
  H        2.7105400    -1.3693420    -0.2530710
  H        3.8280690     0.0048160    -0.4188000
  H        2.9664850    -0.2871200     1.1156770
units angstrom
no_reorient  #important for SAPT in psi4, default
symmetry c1  #important for SAPT in psi4, default
}

set PROPERTIES_ORIGIN ["COM"]
properties('MP2/aug-cc-pvtz', properties = ['dipole'])
--------------------------------------------------------------------------

    Molecular point group: c1
  Charge       = 0
  Multiplicity = 1
  Basis Set: AUG-CC-PVTZ
    Blend: AUG-CC-PVTZ
  Basis Set: (AUG-CC-PVTZ AUX)
    Blend: AUG-CC-PVTZ-JKFIT

    Orbital Energies [Eh]
    ---------------------

    Doubly Occupied:

       1A    -20.515707     2A    -15.580509     3A    -11.351845
       4A    -11.262412     5A    -11.252351     6A    -11.219980
       7A    -11.215531     8A     -1.370004     9A     -1.225254
      10A     -1.058551    11A     -1.008096    12A     -0.896584
      13A     -0.840646    14A     -0.779588    15A     -0.711945
      16A     -0.649509    17A     -0.618528    18A     -0.609983
      19A     -0.588763    20A     -0.573637    21A     -0.552652
      22A     -0.528732    23A     -0.518806    24A     -0.507034
      25A     -0.491984    26A     -0.444082    27A     -0.413701
      28A     -0.384089

  @DF-RHF Final Energy:  -325.13737531378285

   => Energetics <=

    Nuclear Repulsion Energy =            313.6436269831583559
    One-Electron Energy =               -1063.2209946679499808
    Two-Electron Energy =                 424.4399923710087705
    Total Energy =                       -325.1373753137828544
  Basis Set: (AUG-CC-PVTZ AUX)
    Blend: AUG-CC-PVTZ-RI
    Molecular point group: c1

    Geometry (in Angstrom), charge = 0, multiplicity = 1:

       Center              X                  Y                   Z               Mass
    ------------   -----------------  -----------------  -----------------  -----------------
         O            0.313719329145    -0.672817915123     1.085782701909    15.994914619570
         N           -0.689202670855     0.801879084877    -0.329532298091    14.003074004430
         C           -2.030398670855     0.464295084877     0.111943701909    12.000000000000
         C            1.714995729145     0.406926084877    -0.604930398091    12.000000000000
         C            0.409603329145     0.179538084877     0.198780701909    12.000000000000
         C           -2.569337670855    -0.811571915123    -0.535235298091    12.000000000000
         C            2.883420329145    -0.302346915123     0.044863701909    12.000000000000
         H           -1.988298670855     0.346242084877     1.202252701909     1.007825032230
         H           -2.680145670855     1.319741084877    -0.100431298091     1.007825032230
         H            1.645983329145     0.560745084877    -1.527928298091     1.007825032230
         H            1.922595329145     1.641028084877    -0.171833298091     1.007825032230
         H           -0.573194670855     1.405918084877    -1.136579298091     1.007825032230
         H           -2.605378670855    -0.707380915123    -1.627541298091     1.007825032230
         H           -1.917967670855    -1.654828915123    -0.277941298091     1.007825032230
         H           -3.581266670855    -1.035522915123    -0.176568298091     1.007825032230
         H            2.713304329145    -1.347923915123    -0.232713298091     1.007825032230
         H            3.830833329145     0.026234084877    -0.398442298091     1.007825032230
         H            2.969249329145    -0.265701915123     1.136034701909     1.007825032230

  Basis Set: AUG-CC-PVTZ
    Blend: AUG-CC-PVTZ
  Basis Set: (AUG-CC-PVTZ AUX)
    Blend: AUG-CC-PVTZ-JKFIT
	 Reference Energy          =    -325.1373753137828544 [Eh]
	 Singles Energy            =      -0.0000000000000000 [Eh]
	 Same-Spin Energy          =      -0.3329454063473623 [Eh]
	 Opposite-Spin Energy      =      -1.1227926340068972 [Eh]
	 Correlation Energy        =      -1.4557380403542595 [Eh]
	 Total Energy              =    -326.5931133541371310 [Eh]

	 ================> DF-SCS-MP2 Energies <==================
	-----------------------------------------------------------
	 SCS Same-Spin Scale       =       0.3333333333333333 [-]
	 SCS Opposite-Spin Scale   =       1.2000000000000000 [-]
	 SCS Same-Spin Energy      =      -0.1109818021157874 [Eh]
	 SCS Opposite-Spin Energy  =      -1.3473511608082767 [Eh]
	 SCS Correlation Energy    =      -1.4583329629240640 [Eh]
	 SCS Total Energy          =    -326.5957082767069437 [Eh]
	-----------------------------------------------------------

  Dipole Moment: [D]
     X:    -0.6896      Y:     2.0561      Z:    -2.6376     Total:     3.4147

*** Psi4 exiting successfully. Buy a developer a beer!
