                               Psi4 1.3.2 release

  ==> Input File <==

--------------------------------------------------------------------------
#psi4
#
memory 32 gb

molecule  {
0 1
  O        0.3109550    -0.6942360     1.0654250
  N       -0.6919670     0.7804610    -0.3498900
  C       -2.0331630     0.4428770     0.0915860
  C        1.7355170     0.5659250    -0.4538020
  C        0.4068390     0.1581200     0.1784230
  C       -2.5721020    -0.8329900    -0.5555930
  C        2.8806560    -0.3237650     0.0245060
  H       -1.9910630     0.3248240     1.1818950
  H       -2.6829100     1.2983230    -0.1207890
  H        1.6432190     0.5393270    -1.5482860
  H        1.9198310     1.6196100    -0.1921910
  H       -0.5661430     1.4982710    -1.0596754
  H       -2.6081430    -0.7287990    -1.6478990
  H       -1.9207320    -1.6762470    -0.2982990
  H       -3.5840310    -1.0569410    -0.1969260
  H        2.7105400    -1.3693420    -0.2530710
  H        3.8280690     0.0048160    -0.4188000
  H        2.9664850    -0.2871200     1.1156770
units angstrom
no_reorient  #important for SAPT in psi4, default
symmetry c1  #important for SAPT in psi4, default
}

set PROPERTIES_ORIGIN ["COM"]
properties('MP2/aug-cc-pvtz', properties = ['dipole'])
--------------------------------------------------------------------------

    Molecular point group: c1
  Charge       = 0
  Multiplicity = 1
  Basis Set: AUG-CC-PVTZ
    Blend: AUG-CC-PVTZ
  Basis Set: (AUG-CC-PVTZ AUX)
    Blend: AUG-CC-PVTZ-JKFIT

    Orbital Energies [Eh]
    ---------------------

    Doubly Occupied:

       1A    -20.514167     2A    -15.581228     3A    -11.345963
       4A    -11.262242     5A    -11.242393     6A    -11.216020
       7A    -11.214521     8A     -1.368672     9A     -1.224528
      10A     -1.054294    11A     -1.006053    12A     -0.894208
      13A     -0.835513    14A     -0.775246    15A     -0.692556
      16A     -0.649945    17A     -0.633257    18A     -0.604806
      19A     -0.589998    20A     -0.569173    21A     -0.534731
      22A     -0.514691    23A     -0.513222    24A     -0.511753
      25A     -0.494862    26A     -0.481627    27A     -0.418158
      28A     -0.386317

  @DF-RHF Final Energy:  -325.19809897540762

   => Energetics <=

    Nuclear Repulsion Energy =            313.6164341630760077
    One-Electron Energy =               -1063.3687793788046747
    Two-Electron Energy =                 424.5542462403209925
    Total Energy =                       -325.1980989754076177
  Basis Set: (AUG-CC-PVTZ AUX)
    Blend: AUG-CC-PVTZ-RI
    Molecular point group: c1

    Geometry (in Angstrom), charge = 0, multiplicity = 1:

       Center              X                  Y                   Z               Mass
    ------------   -----------------  -----------------  -----------------  -----------------
         O            0.310857156819    -0.695370087761     1.064455345348    15.994914619570
         N           -0.692064843181     0.779326912239    -0.350859654652    14.003074004430
         C           -2.033260843181     0.441742912239     0.090616345348    12.000000000000
         C            1.735419156819     0.564790912239    -0.454771654652    12.000000000000
         C            0.406741156819     0.156985912239     0.177453345348    12.000000000000
         C           -2.572199843181    -0.834124087761    -0.556562654652    12.000000000000
         C            2.880558156819    -0.324899087761     0.023536345348    12.000000000000
         H           -1.991160843181     0.323689912239     1.180925345348     1.007825032230
         H           -2.683007843181     1.297188912239    -0.121758654652     1.007825032230
         H            1.643121156819     0.538192912239    -1.549255654652     1.007825032230
         H            1.919733156819     1.618475912239    -0.193160654652     1.007825032230
         H           -0.566240843181     1.497136912239    -1.060645054652     1.007825032230
         H           -2.608240843181    -0.729933087761    -1.648868654652     1.007825032230
         H           -1.920829843181    -1.677381087761    -0.299268654652     1.007825032230
         H           -3.584128843181    -1.058075087761    -0.197895654652     1.007825032230
         H            2.710442156819    -1.370476087761    -0.254040654652     1.007825032230
         H            3.827971156819     0.003681912239    -0.419769654652     1.007825032230
         H            2.966387156819    -0.288254087761     1.114707345348     1.007825032230

  Basis Set: AUG-CC-PVTZ
    Blend: AUG-CC-PVTZ
  Basis Set: (AUG-CC-PVTZ AUX)
    Blend: AUG-CC-PVTZ-JKFIT
	 Reference Energy          =    -325.1980989754076177 [Eh]
	 Singles Energy            =      -0.0000000000000000 [Eh]
	 Same-Spin Energy          =      -0.3318682189663801 [Eh]
	 Opposite-Spin Energy      =      -1.1195451952747386 [Eh]
	 Correlation Energy        =      -1.4514134142411188 [Eh]
	 Total Energy              =    -326.6495123896487485 [Eh]

	 ================> DF-SCS-MP2 Energies <==================
	-----------------------------------------------------------
	 SCS Same-Spin Scale       =       0.3333333333333333 [-]
	 SCS Opposite-Spin Scale   =       1.2000000000000000 [-]
	 SCS Same-Spin Energy      =      -0.1106227396554600 [Eh]
	 SCS Opposite-Spin Energy  =      -1.3434542343296862 [Eh]
	 SCS Correlation Energy    =      -1.4540769739851462 [Eh]
	 SCS Total Energy          =    -326.6521759493927561 [Eh]
	-----------------------------------------------------------

  Dipole Moment: [D]
     X:    -0.6893      Y:     2.4047      Z:    -2.4709     Total:     3.5161

*** Psi4 exiting successfully. Buy a developer a beer!
