                               Psi4 1.3.2 release

  ==> Input File <==

--------------------------------------------------------------------------
#psi4
#
memory 32 gb

molecule  {
0 1
  O        0.3109550    -0.6942360     1.0654250
  N       -0.6919670     0.7804610    -0.3498900
  C       -2.0331630     0.4428770     0.0915860
  C        1.7215456     0.4576748    -0.5566936
  C        0.4068390     0.1581200     0.1784230
  C       -2.5721020    -0.8329900    -0.5555930
  C        2.8806560    -0.3237650     0.0245060
  H       -1.9910630     0.3248240     1.1818950
  H       -2.6829100     1.2983230    -0.1207890
  H        1.6432190     0.5393270    -1.5482860
  H        1.9198310     1.6196100    -0.1921910
  H       -0.5759590     1.3845000    -1.1569370
  H       -2.6081430    -0.7287990    -1.6478990
  H       -1.9207320    -1.6762470    -0.2982990
  H       -3.5840310    -1.0569410    -0.1969260
  H        2.7105400    -1.3693420    -0.2530710
  H        3.8280690     0.0048160    -0.4188000
  H        2.9664850    -0.2871200     1.1156770
units angstrom
no_reorient  #important for SAPT in psi4, default
symmetry c1  #important for SAPT in psi4, default
}

set PROPERTIES_ORIGIN ["COM"]
properties('MP2/aug-cc-pvtz', properties = ['dipole'])
--------------------------------------------------------------------------

    Molecular point group: c1
  Charge       = 0
  Multiplicity = 1
  Basis Set: AUG-CC-PVTZ
    Blend: AUG-CC-PVTZ
  Basis Set: (AUG-CC-PVTZ AUX)
    Blend: AUG-CC-PVTZ-JKFIT

    Orbital Energies [Eh]
    ---------------------

    Doubly Occupied:

       1A    -20.514775     2A    -15.580708     3A    -11.348392
       4A    -11.262296     5A    -11.246682     6A    -11.217211
       7A    -11.215289     8A     -1.369276     9A     -1.225138
      10A     -1.056793    11A     -1.007364    12A     -0.895170
      13A     -0.837069    14A     -0.777650    15A     -0.701942
      16A     -0.648881    17A     -0.625488    18A     -0.607993
      19A     -0.588401    20A     -0.572732    21A     -0.539746
      22A     -0.528630    23A     -0.516101    24A     -0.509346
      25A     -0.492247    26A     -0.462682    27A     -0.417029
      28A     -0.385457

  @DF-RHF Final Energy:  -325.17502729136152

   => Energetics <=

    Nuclear Repulsion Energy =            313.7468168802204218
    One-Electron Energy =               -1063.5427120388499134
    Two-Electron Energy =                 424.6208678672679753
    Total Energy =                       -325.1750272913615163
  Basis Set: (AUG-CC-PVTZ AUX)
    Blend: AUG-CC-PVTZ-RI
    Molecular point group: c1

    Geometry (in Angstrom), charge = 0, multiplicity = 1:

       Center              X                  Y                   Z               Mass
    ------------   -----------------  -----------------  -----------------  -----------------
         O            0.312613611828    -0.681385057815     1.077639637933    15.994914619570
         N           -0.690308388172     0.793311942185    -0.337675362067    14.003074004430
         C           -2.031504388172     0.455727942185     0.103800637933    12.000000000000
         C            1.723204211828     0.470525742185    -0.544478962067    12.000000000000
         C            0.408497611828     0.170970942185     0.190637637933    12.000000000000
         C           -2.570443388172    -0.820139057815    -0.543378362067    12.000000000000
         C            2.882314611828    -0.310914057815     0.036720637933    12.000000000000
         H           -1.989404388172     0.337674942185     1.194109637933     1.007825032230
         H           -2.681251388172     1.311173942185    -0.108574362067     1.007825032230
         H            1.644877611828     0.552177942185    -1.536071362067     1.007825032230
         H            1.921489611828     1.632460942185    -0.179976362067     1.007825032230
         H           -0.574300388172     1.397350942185    -1.144722362067     1.007825032230
         H           -2.606484388172    -0.715948057815    -1.635684362067     1.007825032230
         H           -1.919073388172    -1.663396057815    -0.286084362067     1.007825032230
         H           -3.582372388172    -1.044090057815    -0.184711362067     1.007825032230
         H            2.712198611828    -1.356491057815    -0.240856362067     1.007825032230
         H            3.829727611828     0.017666942185    -0.406585362067     1.007825032230
         H            2.968143611828    -0.274269057815     1.127891637933     1.007825032230

  Basis Set: AUG-CC-PVTZ
    Blend: AUG-CC-PVTZ
  Basis Set: (AUG-CC-PVTZ AUX)
    Blend: AUG-CC-PVTZ-JKFIT
	 Reference Energy          =    -325.1750272913615163 [Eh]
	 Singles Energy            =      -0.0000000000000000 [Eh]
	 Same-Spin Energy          =      -0.3323037592559996 [Eh]
	 Opposite-Spin Energy      =      -1.1207185426955621 [Eh]
	 Correlation Energy        =      -1.4530223019515618 [Eh]
	 Total Energy              =    -326.6280495933130510 [Eh]

	 ================> DF-SCS-MP2 Energies <==================
	-----------------------------------------------------------
	 SCS Same-Spin Scale       =       0.3333333333333333 [-]
	 SCS Opposite-Spin Scale   =       1.2000000000000000 [-]
	 SCS Same-Spin Energy      =      -0.1107679197519999 [Eh]
	 SCS Opposite-Spin Energy  =      -1.3448622512346746 [Eh]
	 SCS Correlation Energy    =      -1.4556301709866746 [Eh]
	 SCS Total Energy          =    -326.6306574623482106 [Eh]
	-----------------------------------------------------------

  Dipole Moment: [D]
     X:    -0.6964      Y:     2.1485      Z:    -2.6298     Total:     3.4665

*** Psi4 exiting successfully. Buy a developer a beer!
