                               Psi4 1.3.2 release

  ==> Input File <==

--------------------------------------------------------------------------
#psi4
#
memory 32 gb

molecule  {
0 1
  O        0.3109550    -0.6942360     1.0654250
  N       -0.6919670     0.7804610    -0.3498900
  C       -2.0331630     0.4428770     0.0915860
  C        1.7262028     0.4937582    -0.5223964
  C        0.4068390     0.1581200     0.1784230
  C       -2.5721020    -0.8329900    -0.5555930
  C        2.8806560    -0.3237650     0.0245060
  H       -1.9910630     0.3248240     1.1818950
  H       -2.6829100     1.2983230    -0.1207890
  H        1.6432190     0.5393270    -1.5482860
  H        1.9198310     1.6196100    -0.1921910
  H       -0.5759590     1.3845000    -1.1569370
  H       -2.6081430    -0.7287990    -1.6478990
  H       -1.9207320    -1.6762470    -0.2982990
  H       -3.5840310    -1.0569410    -0.1969260
  H        2.7105400    -1.3693420    -0.2530710
  H        3.8280690     0.0048160    -0.4188000
  H        2.9664850    -0.2871200     1.1156770
units angstrom
no_reorient  #important for SAPT in psi4, default
symmetry c1  #important for SAPT in psi4, default
}

set PROPERTIES_ORIGIN ["COM"]
properties('MP2/aug-cc-pvtz', properties = ['dipole'])
--------------------------------------------------------------------------

    Molecular point group: c1
  Charge       = 0
  Multiplicity = 1
  Basis Set: AUG-CC-PVTZ
    Blend: AUG-CC-PVTZ
  Basis Set: (AUG-CC-PVTZ AUX)
    Blend: AUG-CC-PVTZ-JKFIT

    Orbital Energies [Eh]
    ---------------------

    Doubly Occupied:

       1A    -20.514484     2A    -15.580796     3A    -11.347213
       4A    -11.262247     5A    -11.244723     6A    -11.216425
       7A    -11.215178     8A     -1.369035     9A     -1.225098
      10A     -1.055967    11A     -1.006988    12A     -0.894725
      13A     -0.836165    14A     -0.776967    15A     -0.697313
      16A     -0.648648    17A     -0.628993    18A     -0.606922
      19A     -0.588130    20A     -0.572902    21A     -0.535285
      22A     -0.525543    23A     -0.514856    24A     -0.510389
      25A     -0.492859    26A     -0.471760    27A     -0.417828
      28A     -0.385866

  @DF-RHF Final Energy:  -325.18750535924778

   => Energetics <=

    Nuclear Repulsion Energy =            313.7521891572027357
    One-Electron Energy =               -1063.5927787483294651
    Two-Electron Energy =                 424.6530842318788928
    Total Energy =                       -325.1875053592477798
  Basis Set: (AUG-CC-PVTZ AUX)
    Blend: AUG-CC-PVTZ-RI
    Molecular point group: c1

    Geometry (in Angstrom), charge = 0, multiplicity = 1:

       Center              X                  Y                   Z               Mass
    ------------   -----------------  -----------------  -----------------  -----------------
         O            0.312060741298    -0.685668629161     1.073568111880    15.994914619570
         N           -0.690861258702     0.789028370839    -0.341746888120    14.003074004430
         C           -2.032057258702     0.451444370839     0.099729111880    12.000000000000
         C            1.727308541298     0.502325570839    -0.514253288120    12.000000000000
         C            0.407944741298     0.166687370839     0.186566111880    12.000000000000
         C           -2.570996258702    -0.824422629161    -0.547449888120    12.000000000000
         C            2.881761741298    -0.315197629161     0.032649111880    12.000000000000
         H           -1.989957258702     0.333391370839     1.190038111880     1.007825032230
         H           -2.681804258702     1.306890370839    -0.112645888120     1.007825032230
         H            1.644324741298     0.547894370839    -1.540142888120     1.007825032230
         H            1.920936741298     1.628177370839    -0.184047888120     1.007825032230
         H           -0.574853258702     1.393067370839    -1.148793888120     1.007825032230
         H           -2.607037258702    -0.720231629161    -1.639755888120     1.007825032230
         H           -1.919626258702    -1.667679629161    -0.290155888120     1.007825032230
         H           -3.582925258702    -1.048373629161    -0.188782888120     1.007825032230
         H            2.711645741298    -1.360774629161    -0.244927888120     1.007825032230
         H            3.829174741298     0.013383370839    -0.410656888120     1.007825032230
         H            2.967590741298    -0.278552629161     1.123820111880     1.007825032230

  Basis Set: AUG-CC-PVTZ
    Blend: AUG-CC-PVTZ
  Basis Set: (AUG-CC-PVTZ AUX)
    Blend: AUG-CC-PVTZ-JKFIT
	 Reference Energy          =    -325.1875053592477798 [Eh]
	 Singles Energy            =      -0.0000000000000000 [Eh]
	 Same-Spin Energy          =      -0.3320818052885506 [Eh]
	 Opposite-Spin Energy      =      -1.1200491566215431 [Eh]
	 Correlation Energy        =      -1.4521309619100937 [Eh]
	 Total Energy              =    -326.6396363211578660 [Eh]

	 ================> DF-SCS-MP2 Energies <==================
	-----------------------------------------------------------
	 SCS Same-Spin Scale       =       0.3333333333333333 [-]
	 SCS Opposite-Spin Scale   =       1.2000000000000000 [-]
	 SCS Same-Spin Energy      =      -0.1106939350961835 [Eh]
	 SCS Opposite-Spin Energy  =      -1.3440589879458518 [Eh]
	 SCS Correlation Energy    =      -1.4547529230420353 [Eh]
	 SCS Total Energy          =    -326.6422582822897880 [Eh]
	-----------------------------------------------------------

  Dipole Moment: [D]
     X:    -0.6984      Y:     2.1876      Z:    -2.6185     Total:     3.4828

*** Psi4 exiting successfully. Buy a developer a beer!
