                               Psi4 1.3.2 release

  ==> Input File <==

--------------------------------------------------------------------------
#psi4
#
memory 32 gb

molecule  {
0 1
  O        0.3109550    -0.6942360     1.0654250
  N       -0.6919670     0.7804610    -0.3498900
  C       -2.0331630     0.4428770     0.0915860
  C        1.7355170     0.5659250    -0.4538020
  C        0.4068390     0.1581200     0.1784230
  C       -2.5721020    -0.8329900    -0.5555930
  C        2.8806560    -0.3237650     0.0245060
  H       -1.9910630     0.3248240     1.1818950
  H       -2.6829100     1.2983230    -0.1207890
  H        1.6432190     0.5393270    -1.5482860
  H        1.9198310     1.6196100    -0.1921910
  H       -0.5563269     1.6120419    -0.9624138
  H       -2.6081430    -0.7287990    -1.6478990
  H       -1.9207320    -1.6762470    -0.2982990
  H       -3.5840310    -1.0569410    -0.1969260
  H        2.7105400    -1.3693420    -0.2530710
  H        3.8280690     0.0048160    -0.4188000
  H        2.9664850    -0.2871200     1.1156770
units angstrom
no_reorient  #important for SAPT in psi4, default
symmetry c1  #important for SAPT in psi4, default
}

set PROPERTIES_ORIGIN ["COM"]
properties('MP2/aug-cc-pvtz', properties = ['dipole'])
--------------------------------------------------------------------------

    Molecular point group: c1
  Charge       = 0
  Multiplicity = 1
  Basis Set: AUG-CC-PVTZ
    Blend: AUG-CC-PVTZ
  Basis Set: (AUG-CC-PVTZ AUX)
    Blend: AUG-CC-PVTZ-JKFIT

    Orbital Energies [Eh]
    ---------------------

    Doubly Occupied:

       1A    -20.514850     2A    -15.583072     3A    -11.345950
       4A    -11.261993     5A    -11.242164     6A    -11.215924
       7A    -11.214195     8A     -1.368891     9A     -1.222021
      10A     -1.054085    11A     -1.005362    12A     -0.894055
      13A     -0.834761    14A     -0.768454    15A     -0.692283
      16A     -0.651101    17A     -0.632714    18A     -0.604824
      19A     -0.591948    20A     -0.564065    21A     -0.534694
      22A     -0.514615    23A     -0.513040    24A     -0.511640
      25A     -0.494419    26A     -0.480896    27A     -0.418191
      28A     -0.386564

  @DF-RHF Final Energy:  -325.19584030143903

   => Energetics <=

    Nuclear Repulsion Energy =            313.4550875975713780
    One-Electron Energy =               -1063.0683147528354766
    Two-Electron Energy =                 424.4173868538250645
    Total Energy =                       -325.1958403014390342
  Basis Set: (AUG-CC-PVTZ AUX)
    Blend: AUG-CC-PVTZ-RI
    Molecular point group: c1

    Geometry (in Angstrom), charge = 0, multiplicity = 1:

       Center              X                  Y                   Z               Mass
    ------------   -----------------  -----------------  -----------------  -----------------
         O            0.310759288659    -0.696504402671     1.063485630921    15.994914619570
         N           -0.692162711341     0.778192597329    -0.351829369079    14.003074004430
         C           -2.033358711341     0.440608597329     0.089646630921    12.000000000000
         C            1.735321288659     0.563656597329    -0.455741369079    12.000000000000
         C            0.406643288659     0.155851597329     0.176483630921    12.000000000000
         C           -2.572297711341    -0.835258402671    -0.557532369079    12.000000000000
         C            2.880460288659    -0.326033402671     0.022566630921    12.000000000000
         H           -1.991258711341     0.322555597329     1.179955630921     1.007825032230
         H           -2.683105711341     1.296054597329    -0.122728369079     1.007825032230
         H            1.643023288659     0.537058597329    -1.550225369079     1.007825032230
         H            1.919635288659     1.617341597329    -0.194130369079     1.007825032230
         H           -0.556522611341     1.609773497329    -0.964353169079     1.007825032230
         H           -2.608338711341    -0.731067402671    -1.649838369079     1.007825032230
         H           -1.920927711341    -1.678515402671    -0.300238369079     1.007825032230
         H           -3.584226711341    -1.059209402671    -0.198865369079     1.007825032230
         H            2.710344288659    -1.371610402671    -0.255010369079     1.007825032230
         H            3.827873288659     0.002547597329    -0.420739369079     1.007825032230
         H            2.966289288659    -0.289388402671     1.113737630921     1.007825032230

  Basis Set: AUG-CC-PVTZ
    Blend: AUG-CC-PVTZ
  Basis Set: (AUG-CC-PVTZ AUX)
    Blend: AUG-CC-PVTZ-JKFIT
	 Reference Energy          =    -325.1958403014390342 [Eh]
	 Singles Energy            =      -0.0000000000000000 [Eh]
	 Same-Spin Energy          =      -0.3320348447318859 [Eh]
	 Opposite-Spin Energy      =      -1.1200547561447705 [Eh]
	 Correlation Energy        =      -1.4520896008766564 [Eh]
	 Total Energy              =    -326.6479299023156955 [Eh]

	 ================> DF-SCS-MP2 Energies <==================
	-----------------------------------------------------------
	 SCS Same-Spin Scale       =       0.3333333333333333 [-]
	 SCS Opposite-Spin Scale   =       1.2000000000000000 [-]
	 SCS Same-Spin Energy      =      -0.1106782815772953 [Eh]
	 SCS Opposite-Spin Energy  =      -1.3440657073737245 [Eh]
	 SCS Correlation Energy    =      -1.4547439889510199 [Eh]
	 SCS Total Energy          =    -326.6505842903900430 [Eh]
	-----------------------------------------------------------

  Dipole Moment: [D]
     X:    -0.6690      Y:     2.5368      Z:    -2.3376     Total:     3.5139

*** Psi4 exiting successfully. Buy a developer a beer!
