                               Psi4 1.3.2 release

  ==> Input File <==

--------------------------------------------------------------------------
#psi4
#
memory 32 gb

molecule  {
0 1
  O        0.3109550    -0.6942360     1.0654250
  N       -0.6919670     0.7804610    -0.3498900
  C       -2.0331630     0.4428770     0.0915860
  C        1.7355170     0.5659250    -0.4538020
  C        0.4068390     0.1581200     0.1784230
  C       -2.5721020    -0.8329900    -0.5555930
  C        2.8806560    -0.3237650     0.0245060
  H       -1.9910630     0.3248240     1.1818950
  H       -2.6829100     1.2983230    -0.1207890
  H        1.6432190     0.5393270    -1.5482860
  H        1.9198310     1.6196100    -0.1921910
  H       -0.5726870     1.4224237    -1.1245165
  H       -2.6081430    -0.7287990    -1.6478990
  H       -1.9207320    -1.6762470    -0.2982990
  H       -3.5840310    -1.0569410    -0.1969260
  H        2.7105400    -1.3693420    -0.2530710
  H        3.8280690     0.0048160    -0.4188000
  H        2.9664850    -0.2871200     1.1156770
units angstrom
no_reorient  #important for SAPT in psi4, default
symmetry c1  #important for SAPT in psi4, default
}

set PROPERTIES_ORIGIN ["COM"]
properties('MP2/aug-cc-pvtz', properties = ['dipole'])
--------------------------------------------------------------------------

    Molecular point group: c1
  Charge       = 0
  Multiplicity = 1
  Basis Set: AUG-CC-PVTZ
    Blend: AUG-CC-PVTZ
  Basis Set: (AUG-CC-PVTZ AUX)
    Blend: AUG-CC-PVTZ-JKFIT

    Orbital Energies [Eh]
    ---------------------

    Doubly Occupied:

       1A    -20.514160     2A    -15.580867     3A    -11.346023
       4A    -11.262237     5A    -11.242535     6A    -11.216085
       7A    -11.214816     8A     -1.368742     9A     -1.225126
      10A     -1.054423    11A     -1.006249    12A     -0.894226
      13A     -0.835927    14A     -0.776644    15A     -0.692445
      16A     -0.648975    17A     -0.633670    18A     -0.604888
      19A     -0.588277    20A     -0.572279    21A     -0.534787
      22A     -0.514712    23A     -0.513393    24A     -0.511559
      25A     -0.495111    26A     -0.482107    27A     -0.418373
      28A     -0.386364

  @DF-RHF Final Energy:  -325.19847262507398

   => Energetics <=

    Nuclear Repulsion Energy =            313.6676348629254107
    One-Electron Energy =               -1063.4622117933481604
    Two-Electron Energy =                 424.5961043053487742
    Total Energy =                       -325.1984726250739755
  Basis Set: (AUG-CC-PVTZ AUX)
    Blend: AUG-CC-PVTZ-RI
    Molecular point group: c1

    Geometry (in Angstrom), charge = 0, multiplicity = 1:

       Center              X                  Y                   Z               Mass
    ------------   -----------------  -----------------  -----------------  -----------------
         O            0.310922401594    -0.694613877488     1.065101821965    15.994914619570
         N           -0.691999598406     0.780083122512    -0.350213178035    14.003074004430
         C           -2.033195598406     0.442499122512     0.091262821965    12.000000000000
         C            1.735484401594     0.565547122512    -0.454125178035    12.000000000000
         C            0.406806401594     0.157742122512     0.178099821965    12.000000000000
         C           -2.572134598406    -0.833367877488    -0.555916178035    12.000000000000
         C            2.880623401594    -0.324142877488     0.024182821965    12.000000000000
         H           -1.991095598406     0.324446122512     1.181571821965     1.007825032230
         H           -2.682942598406     1.297945122512    -0.121112178035     1.007825032230
         H            1.643186401594     0.538949122512    -1.548609178035     1.007825032230
         H            1.919798401594     1.619232122512    -0.192514178035     1.007825032230
         H           -0.572719598406     1.422045822512    -1.124839678035     1.007825032230
         H           -2.608175598406    -0.729176877488    -1.648222178035     1.007825032230
         H           -1.920764598406    -1.676624877488    -0.298622178035     1.007825032230
         H           -3.584063598406    -1.057318877488    -0.197249178035     1.007825032230
         H            2.710507401594    -1.369719877488    -0.253394178035     1.007825032230
         H            3.828036401594     0.004438122512    -0.419123178035     1.007825032230
         H            2.966452401594    -0.287497877488     1.115353821965     1.007825032230

  Basis Set: AUG-CC-PVTZ
    Blend: AUG-CC-PVTZ
  Basis Set: (AUG-CC-PVTZ AUX)
    Blend: AUG-CC-PVTZ-JKFIT
	 Reference Energy          =    -325.1984726250739755 [Eh]
	 Singles Energy            =      -0.0000000000000000 [Eh]
	 Same-Spin Energy          =      -0.3318301111200937 [Eh]
	 Opposite-Spin Energy      =      -1.1194274529226607 [Eh]
	 Correlation Energy        =      -1.4512575640427543 [Eh]
	 Total Energy              =    -326.6497301891167240 [Eh]

	 ================> DF-SCS-MP2 Energies <==================
	-----------------------------------------------------------
	 SCS Same-Spin Scale       =       0.3333333333333333 [-]
	 SCS Opposite-Spin Scale   =       1.2000000000000000 [-]
	 SCS Same-Spin Energy      =      -0.1106100370400312 [Eh]
	 SCS Opposite-Spin Energy  =      -1.3433129435071927 [Eh]
	 SCS Correlation Energy    =      -1.4539229805472238 [Eh]
	 SCS Total Energy          =    -326.6523956056212228 [Eh]
	-----------------------------------------------------------

  Dipole Moment: [D]
     X:    -0.6982      Y:     2.3010      Z:    -2.5468     Total:     3.5026

*** Psi4 exiting successfully. Buy a developer a beer!
