                               Psi4 1.3.2 release

  ==> Input File <==

--------------------------------------------------------------------------
#psi4
#
memory 32 gb

molecule  {
0 1
  S        1.2441830     0.0010390    -0.8590750
  F        1.5874080    -1.0933110     1.5061340
  F        3.3145200    -0.0009050     0.7339870
  F        1.5874370     1.0896860     1.5087600
  O        1.6149610    -1.2856280    -1.4517330
  O        1.6149580     1.2891350    -1.4486230
  C       -0.4817510     0.0005820    -0.4824320
  C       -1.1416100    -1.2204050    -0.3274150
  C       -1.1961348     1.2214835    -0.5684696
  C       -3.1954030    -0.0001810     0.1494170
  C        1.9826530    -0.0010090     0.8356960
  C       -2.4997500    -1.2060900    -0.0161970
  C       -2.4997550     1.2061250    -0.0133040
  C       -4.6532730    -0.0006360     0.5253300
  H       -0.6057720    -2.1536140    -0.4772800
  H       -0.6057800     2.1547590    -0.4721140
  H       -3.0298860    -2.1498930     0.0955450
  H       -3.0298940     2.1496560     0.1007020
  H       -5.1606490     0.8856040     0.1349280
  H       -5.1606620    -0.8858980     0.1327310
  H       -4.7748820    -0.0019860     1.6139510
units angstrom
no_reorient  #important for SAPT in psi4, default
symmetry c1  #important for SAPT in psi4, default
}

set PROPERTIES_ORIGIN ["COM"]
properties('MP2/aug-cc-pvtz', properties = ['dipole'])
--------------------------------------------------------------------------

    Molecular point group: c1
  Charge       = 0
  Multiplicity = 1
  Basis Set: AUG-CC-PVTZ
    Blend: AUG-CC-PVTZ
  Basis Set: (AUG-CC-PVTZ AUX)
    Blend: AUG-CC-PVTZ-JKFIT

    Orbital Energies [Eh]
    ---------------------

    Doubly Occupied:

       1A    -92.215708     2A    -26.371668     3A    -26.371622
       4A    -26.369169     5A    -20.573601     6A    -20.573203
       7A    -11.550465     8A    -11.296431     9A    -11.289829
      10A    -11.286808    11A    -11.283877    12A    -11.270138
      13A    -11.267442    14A    -11.252315    15A     -9.184488
      16A     -6.869326    17A     -6.868625    18A     -6.868308
      19A     -1.757066    20A     -1.665350    21A     -1.664540
      22A     -1.465410    23A     -1.357913    24A     -1.195521
      25A     -1.099670    26A     -1.050761    27A     -1.039032
      28A     -0.980108    29A     -0.917467    30A     -0.868108
      31A     -0.856584    32A     -0.850738    33A     -0.844632
      34A     -0.794133    35A     -0.742522    36A     -0.736761
      37A     -0.724626    38A     -0.695408    39A     -0.693264
      40A     -0.680708    41A     -0.678150    42A     -0.668749
      43A     -0.665891    44A     -0.646047    45A     -0.637143
      46A     -0.620976    47A     -0.604171    48A     -0.569330
      49A     -0.545536    50A     -0.532354    51A     -0.522576
      52A     -0.520497    53A     -0.513559    54A     -0.496443
      55A     -0.468141    56A     -0.372691    57A     -0.370009

  @DF-RHF Final Energy: -1152.81118850693156

   => Energetics <=

    Nuclear Repulsion Energy =           1100.9520317907970366
    One-Electron Energy =               -3777.7752208877582234
    Two-Electron Energy =                1524.0120005900294018
    Total Energy =                      -1152.8111885069315576
  Basis Set: (AUG-CC-PVTZ AUX)
    Blend: AUG-CC-PVTZ-RI
    Molecular point group: c1

    Geometry (in Angstrom), charge = 0, multiplicity = 1:

       Center              X                  Y                   Z               Mass
    ------------   -----------------  -----------------  -----------------  -----------------
         S            1.119340867703     0.001037653441    -0.857888442760    31.972071174400
         F            1.462565867703    -1.093312346559     1.507320557240    18.998403162730
         F            3.189677867703    -0.000906346559     0.735173557240    18.998403162730
         F            1.462594867703     1.089684653441     1.509946557240    18.998403162730
         O            1.490118867703    -1.285629346559    -1.450546442760    15.994914619570
         O            1.490115867703     1.289133653441    -1.447436442760    15.994914619570
         C           -0.606593132297     0.000580653441    -0.481245442760    12.000000000000
         C           -1.266452132297    -1.220406346559    -0.326228442760    12.000000000000
         C           -1.320976932297     1.221482153441    -0.567283042760    12.000000000000
         C           -3.320245132297    -0.000182346559     0.150603557240    12.000000000000
         C            1.857810867703    -0.001010346559     0.836882557240    12.000000000000
         C           -2.624592132297    -1.206091346559    -0.015010442760    12.000000000000
         C           -2.624597132297     1.206123653441    -0.012117442760    12.000000000000
         C           -4.778115132297    -0.000637346559     0.526516557240    12.000000000000
         H           -0.730614132297    -2.153615346559    -0.476093442760     1.007825032230
         H           -0.730622132297     2.154757653441    -0.470927442760     1.007825032230
         H           -3.154728132297    -2.149894346559     0.096731557240     1.007825032230
         H           -3.154736132297     2.149654653441     0.101888557240     1.007825032230
         H           -5.285491132297     0.885602653441     0.136114557240     1.007825032230
         H           -5.285504132297    -0.885899346559     0.133917557240     1.007825032230
         H           -4.899724132297    -0.001987346559     1.615137557240     1.007825032230

  Basis Set: AUG-CC-PVTZ
    Blend: AUG-CC-PVTZ
  Basis Set: (AUG-CC-PVTZ AUX)
    Blend: AUG-CC-PVTZ-JKFIT
	 Reference Energy          =   -1152.8111885069315576 [Eh]
	 Singles Energy            =      -0.0000000000000000 [Eh]
	 Same-Spin Energy          =      -0.7707806904939196 [Eh]
	 Opposite-Spin Energy      =      -2.2458364866385918 [Eh]
	 Correlation Energy        =      -3.0166171771325114 [Eh]
	 Total Energy              =   -1155.8278056840640602 [Eh]

	 ================> DF-SCS-MP2 Energies <==================
	-----------------------------------------------------------
	 SCS Same-Spin Scale       =       0.3333333333333333 [-]
	 SCS Opposite-Spin Scale   =       1.2000000000000000 [-]
	 SCS Same-Spin Energy      =      -0.2569268968313065 [Eh]
	 SCS Opposite-Spin Energy  =      -2.6950037839663099 [Eh]
	 SCS Correlation Energy    =      -2.9519306807976164 [Eh]
	 SCS Total Energy          =   -1155.7631191877292167 [Eh]
	-----------------------------------------------------------

  Dipole Moment: [D]
     X:    -5.4467      Y:    -0.0798      Z:     2.2429     Total:     5.8910

*** Psi4 exiting successfully. Buy a developer a beer!
