                               Psi4 1.3.2 release

  ==> Input File <==

--------------------------------------------------------------------------
#psi4
#
memory 32 gb

molecule  {
0 1
  S        1.2441830     0.0010390    -0.8590750
  F        1.5874080    -1.0933110     1.5061340
  F        3.3145200    -0.0009050     0.7339870
  F        1.5874370     1.0896860     1.5087600
  O        1.6149610    -1.2856280    -1.4517330
  O        1.6149580     1.2891350    -1.4486230
  C       -0.4817510     0.0005820    -0.4824320
  C       -1.1416100    -1.2204050    -0.3274150
  C       -1.1852309     1.2214250    -0.5196731
  C       -3.1954030    -0.0001810     0.1494170
  C        1.9826530    -0.0010090     0.8356960
  C       -2.4997500    -1.2060900    -0.0161970
  C       -2.4997550     1.2061250    -0.0133040
  C       -4.6532730    -0.0006360     0.5253300
  H       -0.6057720    -2.1536140    -0.4772800
  H       -0.6057800     2.1547590    -0.4721140
  H       -3.0298860    -2.1498930     0.0955450
  H       -3.0298940     2.1496560     0.1007020
  H       -5.1606490     0.8856040     0.1349280
  H       -5.1606620    -0.8858980     0.1327310
  H       -4.7748820    -0.0019860     1.6139510
units angstrom
no_reorient  #important for SAPT in psi4, default
symmetry c1  #important for SAPT in psi4, default
}

set PROPERTIES_ORIGIN ["COM"]
properties('MP2/aug-cc-pvtz', properties = ['dipole'])
--------------------------------------------------------------------------

    Molecular point group: c1
  Charge       = 0
  Multiplicity = 1
  Basis Set: AUG-CC-PVTZ
    Blend: AUG-CC-PVTZ
  Basis Set: (AUG-CC-PVTZ AUX)
    Blend: AUG-CC-PVTZ-JKFIT

    Orbital Energies [Eh]
    ---------------------

    Doubly Occupied:

       1A    -92.215831     2A    -26.371605     3A    -26.371578
       4A    -26.369089     5A    -20.573715     6A    -20.573373
       7A    -11.550364     8A    -11.295119     9A    -11.288010
      10A    -11.287035    11A    -11.284072    12A    -11.268281
      13A    -11.266518    14A    -11.252308    15A     -9.184583
      16A     -6.869425    17A     -6.868720    18A     -6.868412
      19A     -1.757007    20A     -1.665297    21A     -1.664478
      22A     -1.465520    23A     -1.358045    24A     -1.196329
      25A     -1.099960    26A     -1.051739    27A     -1.039104
      28A     -0.980349    29A     -0.917448    30A     -0.868688
      31A     -0.856675    32A     -0.850683    33A     -0.844797
      34A     -0.794966    35A     -0.742686    36A     -0.736718
      37A     -0.725015    38A     -0.695417    39A     -0.693264
      40A     -0.681760    41A     -0.678142    42A     -0.669599
      43A     -0.666157    44A     -0.646367    45A     -0.637663
      46A     -0.622616    47A     -0.604433    48A     -0.569569
      49A     -0.545719    50A     -0.532455    51A     -0.523385
      52A     -0.521635    53A     -0.514114    54A     -0.496655
      55A     -0.468148    56A     -0.372873    57A     -0.370890

  @DF-RHF Final Energy: -1152.81842761212783

   => Energetics <=

    Nuclear Repulsion Energy =           1101.3964711122437166
    One-Electron Energy =               -3778.6609816403374680
    Two-Electron Energy =                1524.4460829159656896
    Total Energy =                      -1152.8184276121278344
  Basis Set: (AUG-CC-PVTZ AUX)
    Blend: AUG-CC-PVTZ-RI
    Molecular point group: c1

    Geometry (in Angstrom), charge = 0, multiplicity = 1:

       Center              X                  Y                   Z               Mass
    ------------   -----------------  -----------------  -----------------  -----------------
         S            1.118756761195     0.001040787203    -0.860502402282    31.972071174400
         F            1.461981761195    -1.093309212797     1.504706597718    18.998403162730
         F            3.189093761195    -0.000903212797     0.732559597718    18.998403162730
         F            1.462010761195     1.089687787203     1.507332597718    18.998403162730
         O            1.489534761195    -1.285626212797    -1.453160402282    15.994914619570
         O            1.489531761195     1.289136787203    -1.450050402282    15.994914619570
         C           -0.607177238805     0.000583787203    -0.483859402282    12.000000000000
         C           -1.267036238805    -1.220403212797    -0.328842402282    12.000000000000
         C           -1.310657138805     1.221426787203    -0.521100502282    12.000000000000
         C           -3.320829238805    -0.000179212797     0.147989597718    12.000000000000
         C            1.857226761195    -0.001007212797     0.834268597718    12.000000000000
         C           -2.625176238805    -1.206088212797    -0.017624402282    12.000000000000
         C           -2.625181238805     1.206126787203    -0.014731402282    12.000000000000
         C           -4.778699238805    -0.000634212797     0.523902597718    12.000000000000
         H           -0.731198238805    -2.153612212797    -0.478707402282     1.007825032230
         H           -0.731206238805     2.154760787203    -0.473541402282     1.007825032230
         H           -3.155312238805    -2.149891212797     0.094117597718     1.007825032230
         H           -3.155320238805     2.149657787203     0.099274597718     1.007825032230
         H           -5.286075238805     0.885605787203     0.133500597718     1.007825032230
         H           -5.286088238805    -0.885896212797     0.131303597718     1.007825032230
         H           -4.900308238805    -0.001984212797     1.612523597718     1.007825032230

  Basis Set: AUG-CC-PVTZ
    Blend: AUG-CC-PVTZ
  Basis Set: (AUG-CC-PVTZ AUX)
    Blend: AUG-CC-PVTZ-JKFIT
	 Reference Energy          =   -1152.8184276121278344 [Eh]
	 Singles Energy            =      -0.0000000000000000 [Eh]
	 Same-Spin Energy          =      -0.7703484046234926 [Eh]
	 Opposite-Spin Energy      =      -2.2446509527466421 [Eh]
	 Correlation Energy        =      -3.0149993573701348 [Eh]
	 Total Energy              =   -1155.8334269694980776 [Eh]

	 ================> DF-SCS-MP2 Energies <==================
	-----------------------------------------------------------
	 SCS Same-Spin Scale       =       0.3333333333333333 [-]
	 SCS Opposite-Spin Scale   =       1.2000000000000000 [-]
	 SCS Same-Spin Energy      =      -0.2567828015411642 [Eh]
	 SCS Opposite-Spin Energy  =      -2.6935811432959702 [Eh]
	 SCS Correlation Energy    =      -2.9503639448371342 [Eh]
	 SCS Total Energy          =   -1155.7687915569649704 [Eh]
	-----------------------------------------------------------

  Dipole Moment: [D]
     X:    -5.4317      Y:    -0.0496      Z:     2.2163     Total:     5.8667

*** Psi4 exiting successfully. Buy a developer a beer!
