                               Psi4 1.3.2 release

  ==> Input File <==

--------------------------------------------------------------------------
#psi4
#
memory 32 gb

molecule  {
0 1
  S        1.2441830     0.0010390    -0.8590750
  F        1.5874080    -1.0933110     1.5061340
  F        3.3145200    -0.0009050     0.7339870
  F        1.5874370     1.0896860     1.5087600
  O        1.6149610    -1.2856280    -1.4517330
  O        1.6149580     1.2891350    -1.4486230
  C       -0.4817510     0.0005820    -0.4824320
  C       -1.1416100    -1.2204050    -0.3274150
  C       -1.1743269     1.2213665    -0.4708766
  C       -3.1954030    -0.0001810     0.1494170
  C        1.9826530    -0.0010090     0.8356960
  C       -2.4997500    -1.2060900    -0.0161970
  C       -2.4997550     1.2061250    -0.0133040
  C       -4.6532730    -0.0006360     0.5253300
  H       -0.6057720    -2.1536140    -0.4772800
  H       -0.6057800     2.1547590    -0.4721140
  H       -3.0298860    -2.1498930     0.0955450
  H       -3.0298940     2.1496560     0.1007020
  H       -5.1606490     0.8856040     0.1349280
  H       -5.1606620    -0.8858980     0.1327310
  H       -4.7748820    -0.0019860     1.6139510
units angstrom
no_reorient  #important for SAPT in psi4, default
symmetry c1  #important for SAPT in psi4, default
}

set PROPERTIES_ORIGIN ["COM"]
properties('MP2/aug-cc-pvtz', properties = ['dipole'])
--------------------------------------------------------------------------

    Molecular point group: c1
  Charge       = 0
  Multiplicity = 1
  Basis Set: AUG-CC-PVTZ
    Blend: AUG-CC-PVTZ
  Basis Set: (AUG-CC-PVTZ AUX)
    Blend: AUG-CC-PVTZ-JKFIT

    Orbital Energies [Eh]
    ---------------------

    Doubly Occupied:

       1A    -92.215934     2A    -26.371555     3A    -26.371534
       4A    -26.369018     5A    -20.573803     6A    -20.573530
       7A    -11.550272     8A    -11.294106     9A    -11.287230
      10A    -11.286543    11A    -11.284249    12A    -11.266830
      13A    -11.265831    14A    -11.252320    15A     -9.184664
      16A     -6.869510    17A     -6.868800    18A     -6.868498
      19A     -1.756956    20A     -1.665253    21A     -1.664424
      22A     -1.465611    23A     -1.358152    24A     -1.196996
      25A     -1.100215    26A     -1.052520    27A     -1.039129
      28A     -0.980554    29A     -0.917412    30A     -0.869150
      31A     -0.856752    32A     -0.850635    33A     -0.844923
      34A     -0.795683    35A     -0.742831    36A     -0.736682
      37A     -0.725343    38A     -0.695434    39A     -0.693264
      40A     -0.682642    41A     -0.678116    42A     -0.670359
      43A     -0.666320    44A     -0.646643    45A     -0.638056
      46A     -0.623851    47A     -0.604636    48A     -0.569750
      49A     -0.545806    50A     -0.532493    51A     -0.524499
      52A     -0.522190    53A     -0.514430    54A     -0.496822
      55A     -0.468134    56A     -0.373172    57A     -0.371511

  @DF-RHF Final Energy: -1152.82395604379030

   => Energetics <=

    Nuclear Repulsion Energy =           1101.7842530185096166
    One-Electron Energy =               -3779.4332707915309584
    Two-Electron Energy =                1524.8250617292308107
    Total Energy =                      -1152.8239560437903037
  Basis Set: (AUG-CC-PVTZ AUX)
    Blend: AUG-CC-PVTZ-RI
    Molecular point group: c1

    Geometry (in Angstrom), charge = 0, multiplicity = 1:

       Center              X                  Y                   Z               Mass
    ------------   -----------------  -----------------  -----------------  -----------------
         S            1.118172649330     0.001043920965    -0.863116361803    31.972071174400
         F            1.461397649330    -1.093306079035     1.502092638197    18.998403162730
         F            3.188509649330    -0.000900079035     0.729945638197    18.998403162730
         F            1.461426649330     1.089690920965     1.504718638197    18.998403162730
         O            1.488950649330    -1.285623079035    -1.455774361803    15.994914619570
         O            1.488947649330     1.289139920965    -1.452664361803    15.994914619570
         C           -0.607761350670     0.000586920965    -0.486473361803    12.000000000000
         C           -1.267620350670    -1.220400079035    -0.331456361803    12.000000000000
         C           -1.300337250670     1.221371420965    -0.474917961803    12.000000000000
         C           -3.321413350670    -0.000176079035     0.145375638197    12.000000000000
         C            1.856642649330    -0.001004079035     0.831654638197    12.000000000000
         C           -2.625760350670    -1.206085079035    -0.020238361803    12.000000000000
         C           -2.625765350670     1.206129920965    -0.017345361803    12.000000000000
         C           -4.779283350670    -0.000631079035     0.521288638197    12.000000000000
         H           -0.731782350670    -2.153609079035    -0.481321361803     1.007825032230
         H           -0.731790350670     2.154763920965    -0.476155361803     1.007825032230
         H           -3.155896350670    -2.149888079035     0.091503638197     1.007825032230
         H           -3.155904350670     2.149660920965     0.096660638197     1.007825032230
         H           -5.286659350670     0.885608920965     0.130886638197     1.007825032230
         H           -5.286672350670    -0.885893079035     0.128689638197     1.007825032230
         H           -4.900892350670    -0.001981079035     1.609909638197     1.007825032230

  Basis Set: AUG-CC-PVTZ
    Blend: AUG-CC-PVTZ
  Basis Set: (AUG-CC-PVTZ AUX)
    Blend: AUG-CC-PVTZ-JKFIT
	 Reference Energy          =   -1152.8239560437903037 [Eh]
	 Singles Energy            =      -0.0000000000000000 [Eh]
	 Same-Spin Energy          =      -0.7700194525622367 [Eh]
	 Opposite-Spin Energy      =      -2.2437394203721190 [Eh]
	 Correlation Energy        =      -3.0137588729343556 [Eh]
	 Total Energy              =   -1155.8377149167247353 [Eh]

	 ================> DF-SCS-MP2 Energies <==================
	-----------------------------------------------------------
	 SCS Same-Spin Scale       =       0.3333333333333333 [-]
	 SCS Opposite-Spin Scale   =       1.2000000000000000 [-]
	 SCS Same-Spin Energy      =      -0.2566731508540789 [Eh]
	 SCS Opposite-Spin Energy  =      -2.6924873044465429 [Eh]
	 SCS Correlation Energy    =      -2.9491604553006217 [Eh]
	 SCS Total Energy          =   -1155.7731164990909747 [Eh]
	-----------------------------------------------------------

  Dipole Moment: [D]
     X:    -5.4217      Y:    -0.0268      Z:     2.1925     Total:     5.8483

*** Psi4 exiting successfully. Buy a developer a beer!
