                               Psi4 1.3.2 release

  ==> Input File <==

--------------------------------------------------------------------------
#psi4
#
memory 32 gb

molecule  {
0 1
  S        1.2441830     0.0010390    -0.8590750
  F        1.5874080    -1.0933110     1.5061340
  F        3.3145200    -0.0009050     0.7339870
  F        1.5874370     1.0896860     1.5087600
  O        1.6149610    -1.2856280    -1.4517330
  O        1.6149580     1.2891350    -1.4486230
  C       -0.4817510     0.0005820    -0.4824320
  C       -1.1416100    -1.2204050    -0.3274150
  C       -1.1525190     1.2212495    -0.3732835
  C       -3.1954030    -0.0001810     0.1494170
  C        1.9826530    -0.0010090     0.8356960
  C       -2.4997500    -1.2060900    -0.0161970
  C       -2.4997550     1.2061250    -0.0133040
  C       -4.6532730    -0.0006360     0.5253300
  H       -0.6057720    -2.1536140    -0.4772800
  H       -0.6057800     2.1547590    -0.4721140
  H       -3.0298860    -2.1498930     0.0955450
  H       -3.0298940     2.1496560     0.1007020
  H       -5.1606490     0.8856040     0.1349280
  H       -5.1606620    -0.8858980     0.1327310
  H       -4.7748820    -0.0019860     1.6139510
units angstrom
no_reorient  #important for SAPT in psi4, default
symmetry c1  #important for SAPT in psi4, default
}

set PROPERTIES_ORIGIN ["COM"]
properties('MP2/aug-cc-pvtz', properties = ['dipole'])
--------------------------------------------------------------------------

    Molecular point group: c1
  Charge       = 0
  Multiplicity = 1
  Basis Set: AUG-CC-PVTZ
    Blend: AUG-CC-PVTZ
  Basis Set: (AUG-CC-PVTZ AUX)
    Blend: AUG-CC-PVTZ-JKFIT

    Orbital Energies [Eh]
    ---------------------

    Doubly Occupied:

       1A    -92.216071     2A    -26.371467     3A    -26.371442
       4A    -26.368888     5A    -20.573897     6A    -20.573797
       7A    -11.550109     8A    -11.293038     9A    -11.287488
      10A    -11.284822    11A    -11.284510    12A    -11.265232
      13A    -11.265125    14A    -11.252380    15A     -9.184771
      16A     -6.869626    17A     -6.868905    18A     -6.868613
      19A     -1.756863    20A     -1.665174    21A     -1.664324
      22A     -1.465732    23A     -1.358296    24A     -1.197850
      25A     -1.100592    26A     -1.053461    27A     -1.039087
      28A     -0.980819    29A     -0.917278    30A     -0.869679
      31A     -0.856835    32A     -0.850548    33A     -0.845043
      34A     -0.796644    35A     -0.742996    36A     -0.736619
      37A     -0.725713    38A     -0.695454    39A     -0.693233
      40A     -0.683714    41A     -0.678048    42A     -0.671254
      43A     -0.666442    44A     -0.646999    45A     -0.638576
      46A     -0.625133    47A     -0.604902    48A     -0.569948
      49A     -0.545758    50A     -0.532521    51A     -0.526141
      52A     -0.522619    53A     -0.514676    54A     -0.497031
      55A     -0.468058    56A     -0.373821    57A     -0.372139

  @DF-RHF Final Energy: -1152.82999447413658

   => Energetics <=

    Nuclear Repulsion Energy =           1102.3828394504853350
    One-Electron Energy =               -3780.6252684098017198
    Two-Electron Energy =                1525.4124344851798014
    Total Energy =                      -1152.8299944741365834
  Basis Set: (AUG-CC-PVTZ AUX)
    Blend: AUG-CC-PVTZ-RI
    Molecular point group: c1

    Geometry (in Angstrom), charge = 0, multiplicity = 1:

       Center              X                  Y                   Z               Mass
    ------------   -----------------  -----------------  -----------------  -----------------
         S            1.117004430957     0.001050188490    -0.868344286202    31.972071174400
         F            1.460229430957    -1.093299811510     1.496864713798    18.998403162730
         F            3.187341430957    -0.000893811510     0.724717713798    18.998403162730
         F            1.460258430957     1.089697188490     1.499490713798    18.998403162730
         O            1.487782430957    -1.285616811510    -1.461002286202    15.994914619570
         O            1.487779430957     1.289146188490    -1.457892286202    15.994914619570
         C           -0.608929569043     0.000593188490    -0.491701286202    12.000000000000
         C           -1.268788569043    -1.220393811510    -0.336684286202    12.000000000000
         C           -1.279697569043     1.221260688490    -0.382552786202    12.000000000000
         C           -3.322581569043    -0.000169811510     0.140147713798    12.000000000000
         C            1.855474430957    -0.000997811510     0.826426713798    12.000000000000
         C           -2.626928569043    -1.206078811510    -0.025466286202    12.000000000000
         C           -2.626933569043     1.206136188490    -0.022573286202    12.000000000000
         C           -4.780451569043    -0.000624811510     0.516060713798    12.000000000000
         H           -0.732950569043    -2.153602811510    -0.486549286202     1.007825032230
         H           -0.732958569043     2.154770188490    -0.481383286202     1.007825032230
         H           -3.157064569043    -2.149881811510     0.086275713798     1.007825032230
         H           -3.157072569043     2.149667188490     0.091432713798     1.007825032230
         H           -5.287827569043     0.885615188490     0.125658713798     1.007825032230
         H           -5.287840569043    -0.885886811510     0.123461713798     1.007825032230
         H           -4.902060569043    -0.001974811510     1.604681713798     1.007825032230

  Basis Set: AUG-CC-PVTZ
    Blend: AUG-CC-PVTZ
  Basis Set: (AUG-CC-PVTZ AUX)
    Blend: AUG-CC-PVTZ-JKFIT
	 Reference Energy          =   -1152.8299944741365834 [Eh]
	 Singles Energy            =      -0.0000000000000000 [Eh]
	 Same-Spin Energy          =      -0.7696855425871301 [Eh]
	 Opposite-Spin Energy      =      -2.2427536644708970 [Eh]
	 Correlation Energy        =      -3.0124392070580273 [Eh]
	 Total Energy              =   -1155.8424336811945068 [Eh]

	 ================> DF-SCS-MP2 Energies <==================
	-----------------------------------------------------------
	 SCS Same-Spin Scale       =       0.3333333333333333 [-]
	 SCS Opposite-Spin Scale   =       1.2000000000000000 [-]
	 SCS Same-Spin Energy      =      -0.2565618475290433 [Eh]
	 SCS Opposite-Spin Energy  =      -2.6913043973650761 [Eh]
	 SCS Correlation Energy    =      -2.9478662448941195 [Eh]
	 SCS Total Energy          =   -1155.7778607190307412 [Eh]
	-----------------------------------------------------------

  Dipole Moment: [D]
     X:    -5.4169      Y:    -0.0033      Z:     2.1524     Total:     5.8289

*** Psi4 exiting successfully. Buy a developer a beer!
