                               Psi4 1.3.2 release

  ==> Input File <==

--------------------------------------------------------------------------
#psi4
#
memory 32 gb

molecule  {
0 1
  S        1.2441830     0.0010390    -0.8590750
  F        1.5874080    -1.0933110     1.5061340
  F        3.3145200    -0.0009050     0.7339870
  F        1.5874370     1.0896860     1.5087600
  O        1.6149610    -1.2856280    -1.4517330
  O        1.6149580     1.2891350    -1.4486230
  C       -0.4817510     0.0005820    -0.4824320
  C       -1.1416100    -1.2204050    -0.3274150
  C       -1.1634229     1.2213080    -0.4220800
  C       -3.1954030    -0.0001810     0.1494170
  C        1.9826530    -0.0010090     0.8356960
  C       -2.4997500    -1.2060900    -0.0161970
  C       -2.4997550     1.2061250    -0.0133040
  C       -4.6532730    -0.0006360     0.5253300
  H       -0.6057720    -2.1536140    -0.4772800
  H       -0.6057800     2.1547590    -0.4721140
  H       -3.0298860    -2.1498930     0.0955450
  H       -3.0298940     2.1496560     0.1007020
  H       -5.1606490     0.8856040     0.1349280
  H       -5.1606620    -0.8858980     0.1327310
  H       -4.7748820    -0.0019860     1.6139510
units angstrom
no_reorient  #important for SAPT in psi4, default
symmetry c1  #important for SAPT in psi4, default
}

set PROPERTIES_ORIGIN ["COM"]
properties('MP2/aug-cc-pvtz', properties = ['dipole'])
--------------------------------------------------------------------------

    Molecular point group: c1
  Charge       = 0
  Multiplicity = 1
  Basis Set: AUG-CC-PVTZ
    Blend: AUG-CC-PVTZ
  Basis Set: (AUG-CC-PVTZ AUX)
    Blend: AUG-CC-PVTZ-JKFIT

    Orbital Energies [Eh]
    ---------------------

    Doubly Occupied:

       1A    -92.216015     2A    -26.371512     3A    -26.371488
       4A    -26.368951     5A    -20.573863     6A    -20.573673
       7A    -11.550188     8A    -11.293408     9A    -11.287383
      10A    -11.285469    11A    -11.284398    12A    -11.265808
      13A    -11.265370    14A    -11.252345    15A     -9.184727
      16A     -6.869577    17A     -6.868862    18A     -6.868566
      19A     -1.756909    20A     -1.665213    21A     -1.664373
      22A     -1.465681    23A     -1.358236    24A     -1.197507
      25A     -1.100427    26A     -1.053095    27A     -1.039122
      28A     -0.980713    29A     -0.917356    30A     -0.869483
      31A     -0.856807    32A     -0.850591    33A     -0.845006
      34A     -0.796251    35A     -0.742940    36A     -0.736650
      37A     -0.725582    38A     -0.695449    39A     -0.693256
      40A     -0.683303    41A     -0.678084    42A     -0.670929
      43A     -0.666412    44A     -0.646858    45A     -0.638353
      46A     -0.624686    47A     -0.604791    48A     -0.569875
      49A     -0.545814    50A     -0.532500    51A     -0.525499
      52A     -0.522465    53A     -0.514602    54A     -0.496947
      55A     -0.468103    56A     -0.373525    57A     -0.371899

  @DF-RHF Final Energy: -1152.82780310068301

   => Energetics <=

    Nuclear Repulsion Energy =           1102.1135011460935402
    One-Electron Energy =               -3780.0888111652780026
    Two-Electron Energy =                1525.1475069185016764
    Total Energy =                      -1152.8278031006830133
  Basis Set: (AUG-CC-PVTZ AUX)
    Blend: AUG-CC-PVTZ-RI
    Molecular point group: c1

    Geometry (in Angstrom), charge = 0, multiplicity = 1:

       Center              X                  Y                   Z               Mass
    ------------   -----------------  -----------------  -----------------  -----------------
         S            1.117588537465     0.001047054728    -0.865730326681    31.972071174400
         F            1.460813537465    -1.093302945272     1.499478673319    18.998403162730
         F            3.187925537465    -0.000896945272     0.727331673319    18.998403162730
         F            1.460842537465     1.089694054728     1.502104673319    18.998403162730
         O            1.488366537465    -1.285619945272    -1.458388326681    15.994914619570
         O            1.488363537465     1.289143054728    -1.455278326681    15.994914619570
         C           -0.608345462535     0.000590054728    -0.489087326681    12.000000000000
         C           -1.268204462535    -1.220396945272    -0.334070326681    12.000000000000
         C           -1.290017362535     1.221316054728    -0.428735326681    12.000000000000
         C           -3.321997462535    -0.000172945272     0.142761673319    12.000000000000
         C            1.856058537465    -0.001000945272     0.829040673319    12.000000000000
         C           -2.626344462535    -1.206081945272    -0.022852326681    12.000000000000
         C           -2.626349462535     1.206133054728    -0.019959326681    12.000000000000
         C           -4.779867462535    -0.000627945272     0.518674673319    12.000000000000
         H           -0.732366462535    -2.153605945272    -0.483935326681     1.007825032230
         H           -0.732374462535     2.154767054728    -0.478769326681     1.007825032230
         H           -3.156480462535    -2.149884945272     0.088889673319     1.007825032230
         H           -3.156488462535     2.149664054728     0.094046673319     1.007825032230
         H           -5.287243462535     0.885612054728     0.128272673319     1.007825032230
         H           -5.287256462535    -0.885889945272     0.126075673319     1.007825032230
         H           -4.901476462535    -0.001977945272     1.607295673319     1.007825032230

  Basis Set: AUG-CC-PVTZ
    Blend: AUG-CC-PVTZ
  Basis Set: (AUG-CC-PVTZ AUX)
    Blend: AUG-CC-PVTZ-JKFIT
	 Reference Energy          =   -1152.8278031006830133 [Eh]
	 Singles Energy            =      -0.0000000000000000 [Eh]
	 Same-Spin Energy          =      -0.7697977628353174 [Eh]
	 Opposite-Spin Energy      =      -2.2431066376169251 [Eh]
	 Correlation Energy        =      -3.0129044004522427 [Eh]
	 Total Energy              =   -1155.8407075011352845 [Eh]

	 ================> DF-SCS-MP2 Energies <==================
	-----------------------------------------------------------
	 SCS Same-Spin Scale       =       0.3333333333333333 [-]
	 SCS Opposite-Spin Scale   =       1.2000000000000000 [-]
	 SCS Same-Spin Energy      =      -0.2565992542784391 [Eh]
	 SCS Opposite-Spin Energy  =      -2.6917279651403101 [Eh]
	 SCS Correlation Energy    =      -2.9483272194187493 [Eh]
	 SCS Total Energy          =   -1155.7761303201018563 [Eh]
	-----------------------------------------------------------

  Dipole Moment: [D]
     X:    -5.4168      Y:    -0.0114      Z:     2.1714     Total:     5.8358

*** Psi4 exiting successfully. Buy a developer a beer!
