                               Psi4 1.3.2 release

  ==> Input File <==

--------------------------------------------------------------------------
#psi4
#
memory 32 gb

molecule  {
0 1
  N       -2.4676340    -0.3796210    -0.0997340
  C       -0.0173340    -0.3260580    -0.0330120
  C        1.2471030     0.5263560     0.0358160
  C       -1.2969690     0.4971920     0.0192140
  C        2.5230820    -0.3099180    -0.0148730
  H       -0.0256760    -0.9184320    -0.9549510
  H       -0.0161650    -1.0432050     0.8000250
  H        1.2353410     1.1229560     0.9566870
  H        1.2444510     1.2423090    -0.7956360
  H       -1.2920980     1.1157560     0.9333530
  H       -1.3142720     1.1900270    -0.8297550
  H        3.4164800     0.3196140     0.0325770
  H        2.5617160    -1.0123690     0.8234870
  H        2.5697470    -0.8918040    -0.9403790
  H       -3.3188350     0.1809700    -0.0969470
  H       -2.5225420    -0.9739120     0.7268060
units angstrom
no_reorient  #important for SAPT in psi4, default
symmetry c1  #important for SAPT in psi4, default
}

set PROPERTIES_ORIGIN ["COM"]
properties('MP2/aug-cc-pvtz', properties = ['dipole'])
--------------------------------------------------------------------------

    Molecular point group: c1
  Charge       = 0
  Multiplicity = 1
  Basis Set: AUG-CC-PVTZ
    Blend: AUG-CC-PVTZ
  Basis Set: (AUG-CC-PVTZ AUX)
    Blend: AUG-CC-PVTZ-JKFIT

    Orbital Energies [Eh]
    ---------------------

    Doubly Occupied:

       1A    -15.539150     2A    -11.244190     3A    -11.217074
       4A    -11.212292     5A    -11.210509     6A     -1.174767
       7A     -1.059578     8A     -0.957445     9A     -0.840503
      10A     -0.789059    11A     -0.661043    12A     -0.635799
      13A     -0.604235    14A     -0.574116    15A     -0.562422
      16A     -0.524185    17A     -0.498270    18A     -0.470267
      19A     -0.464004    20A     -0.462320    21A     -0.390722

  @DF-RHF Final Energy:  -212.40131482781902

   => Energetics <=

    Nuclear Repulsion Energy =            185.8212987083345809
    One-Electron Energy =                -654.2613277543322283
    Two-Electron Energy =                 256.0387142181786544
    Total Energy =                       -212.4013148278190215
  Basis Set: (AUG-CC-PVTZ AUX)
    Blend: AUG-CC-PVTZ-RI
    Molecular point group: c1

    Geometry (in Angstrom), charge = 0, multiplicity = 1:

       Center              X                  Y                   Z               Mass
    ------------   -----------------  -----------------  -----------------  -----------------
         N           -2.433075252800    -0.375099265200    -0.090834620228    14.003074004430
         C            0.017224747200    -0.321536265200    -0.024112620228    12.000000000000
         C            1.281661747200     0.530877734800     0.044715379772    12.000000000000
         C           -1.262410252800     0.501713734800     0.028113379772    12.000000000000
         C            2.557640747200    -0.305396265200    -0.005973620228    12.000000000000
         H            0.008882747200    -0.913910265200    -0.946051620228     1.007825032230
         H            0.018393747200    -1.038683265200     0.808924379772     1.007825032230
         H            1.269899747200     1.127477734800     0.965586379772     1.007825032230
         H            1.279009747200     1.246830734800    -0.786736620228     1.007825032230
         H           -1.257539252800     1.120277734800     0.942252379772     1.007825032230
         H           -1.279713252800     1.194548734800    -0.820855620228     1.007825032230
         H            3.451038747200     0.324135734800     0.041476379772     1.007825032230
         H            2.596274747200    -1.007847265200     0.832386379772     1.007825032230
         H            2.604305747200    -0.887282265200    -0.931479620228     1.007825032230
         H           -3.284276252800     0.185491734800    -0.088047620228     1.007825032230
         H           -2.487983252800    -0.969390265200     0.735705379772     1.007825032230

  Basis Set: AUG-CC-PVTZ
    Blend: AUG-CC-PVTZ
  Basis Set: (AUG-CC-PVTZ AUX)
    Blend: AUG-CC-PVTZ-JKFIT
	 Reference Energy          =    -212.4013148278190215 [Eh]
	 Singles Energy            =      -0.0000000000000000 [Eh]
	 Same-Spin Energy          =      -0.2229219390451105 [Eh]
	 Opposite-Spin Energy      =      -0.8131880578164946 [Eh]
	 Correlation Energy        =      -1.0361099968616052 [Eh]
	 Total Energy              =    -213.4374248246806189 [Eh]

	 ================> DF-SCS-MP2 Energies <==================
	-----------------------------------------------------------
	 SCS Same-Spin Scale       =       0.3333333333333333 [-]
	 SCS Opposite-Spin Scale   =       1.2000000000000000 [-]
	 SCS Same-Spin Energy      =      -0.0743073130150368 [Eh]
	 SCS Opposite-Spin Energy  =      -0.9758256693797935 [Eh]
	 SCS Correlation Energy    =      -1.0501329823948304 [Eh]
	 SCS Total Energy          =    -213.4514478102138639 [Eh]
	-----------------------------------------------------------

  Dipole Moment: [D]
     X:    -0.0584      Y:     0.7630      Z:     1.0762     Total:     1.3205

*** Psi4 exiting successfully. Buy a developer a beer!
