                               Psi4 1.3.2 release

  ==> Input File <==

--------------------------------------------------------------------------
#psi4
#
memory 32 gb

molecule  {
0 1
  N       -2.4360665    -0.4198210    -0.1030570
  C       -0.0173340    -0.3260580    -0.0330120
  C        1.2471030     0.5263560     0.0358160
  C       -1.2969690     0.4971920     0.0192140
  C        2.5230820    -0.3099180    -0.0148730
  H       -0.0256760    -0.9184320    -0.9549510
  H       -0.0161650    -1.0432050     0.8000250
  H        1.2353410     1.1229560     0.9566870
  H        1.2444510     1.2423090    -0.7956360
  H       -1.2920980     1.1157560     0.9333530
  H       -1.3142720     1.1900270    -0.8297550
  H        3.4164800     0.3196140     0.0325770
  H        2.5617160    -1.0123690     0.8234870
  H        2.5697470    -0.8918040    -0.9403790
  H       -3.3188350     0.1809700    -0.0969470
  H       -2.5225420    -0.9739120     0.7268060
units angstrom
no_reorient  #important for SAPT in psi4, default
symmetry c1  #important for SAPT in psi4, default
}

set PROPERTIES_ORIGIN ["COM"]
properties('MP2/aug-cc-pvtz', properties = ['dipole'])
--------------------------------------------------------------------------

    Molecular point group: c1
  Charge       = 0
  Multiplicity = 1
  Basis Set: AUG-CC-PVTZ
    Blend: AUG-CC-PVTZ
  Basis Set: (AUG-CC-PVTZ AUX)
    Blend: AUG-CC-PVTZ-JKFIT

    Orbital Energies [Eh]
    ---------------------

    Doubly Occupied:

       1A    -15.543835     2A    -11.244502     3A    -11.216298
       4A    -11.211123     5A    -11.210022     6A     -1.174356
       7A     -1.058450     8A     -0.956167     9A     -0.840242
      10A     -0.789151    11A     -0.658970    12A     -0.628938
      13A     -0.606965    14A     -0.571119    15A     -0.560966
      16A     -0.525393    17A     -0.498540    18A     -0.470215
      19A     -0.463151    20A     -0.458173    21A     -0.395134

  @DF-RHF Final Energy:  -212.39738434903839

   => Energetics <=

    Nuclear Repulsion Energy =            185.9309092385398401
    One-Electron Energy =                -654.4931708234150847
    Two-Electron Energy =                 256.1648772358369115
    Total Energy =                       -212.3973843490383615
  Basis Set: (AUG-CC-PVTZ AUX)
    Blend: AUG-CC-PVTZ-RI
    Molecular point group: c1

    Geometry (in Angstrom), charge = 0, multiplicity = 1:

       Center              X                  Y                   Z               Mass
    ------------   -----------------  -----------------  -----------------  -----------------
         N           -2.407555737248    -0.407597389067    -0.093520970119    14.003074004430
         C            0.011176762752    -0.313834389067    -0.023475970119    12.000000000000
         C            1.275613762752     0.538579610933     0.045352029881    12.000000000000
         C           -1.268458237248     0.509415610933     0.028750029881    12.000000000000
         C            2.551592762752    -0.297694389067    -0.005336970119    12.000000000000
         H            0.002834762752    -0.906208389067    -0.945414970119     1.007825032230
         H            0.012345762752    -1.030981389067     0.809561029881     1.007825032230
         H            1.263851762752     1.135179610933     0.966223029881     1.007825032230
         H            1.272961762752     1.254532610933    -0.786099970119     1.007825032230
         H           -1.263587237248     1.127979610933     0.942889029881     1.007825032230
         H           -1.285761237248     1.202250610933    -0.820218970119     1.007825032230
         H            3.444990762752     0.331837610933     0.042113029881     1.007825032230
         H            2.590226762752    -1.000145389067     0.833023029881     1.007825032230
         H            2.598257762752    -0.879580389067    -0.930842970119     1.007825032230
         H           -3.290324237248     0.193193610933    -0.087410970119     1.007825032230
         H           -2.494031237248    -0.961688389067     0.736342029881     1.007825032230

  Basis Set: AUG-CC-PVTZ
    Blend: AUG-CC-PVTZ
  Basis Set: (AUG-CC-PVTZ AUX)
    Blend: AUG-CC-PVTZ-JKFIT
	 Reference Energy          =    -212.3973843490383899 [Eh]
	 Singles Energy            =      -0.0000000000000000 [Eh]
	 Same-Spin Energy          =      -0.2231805072160432 [Eh]
	 Opposite-Spin Energy      =      -0.8140248801477437 [Eh]
	 Correlation Energy        =      -1.0372053873637868 [Eh]
	 Total Energy              =    -213.4345897364021880 [Eh]

	 ================> DF-SCS-MP2 Energies <==================
	-----------------------------------------------------------
	 SCS Same-Spin Scale       =       0.3333333333333333 [-]
	 SCS Opposite-Spin Scale   =       1.2000000000000000 [-]
	 SCS Same-Spin Energy      =      -0.0743935024053477 [Eh]
	 SCS Opposite-Spin Energy  =      -0.9768298561772923 [Eh]
	 SCS Correlation Energy    =      -1.0512233585826400 [Eh]
	 SCS Total Energy          =    -213.4486077076210222 [Eh]
	-----------------------------------------------------------

  Dipole Moment: [D]
     X:    -0.1087      Y:     0.8228      Z:     1.0979     Total:     1.3763

*** Psi4 exiting successfully. Buy a developer a beer!
