                               Psi4 1.3.2 release

  ==> Input File <==

--------------------------------------------------------------------------
#psi4
#
memory 32 gb

molecule  {
0 1
  N       -2.3688082    -0.4968218    -0.1092523
  C       -0.0173340    -0.3260580    -0.0330120
  C        1.2471030     0.5263560     0.0358160
  C       -1.2969690     0.4971920     0.0192140
  C        2.5230820    -0.3099180    -0.0148730
  H       -0.0256760    -0.9184320    -0.9549510
  H       -0.0161650    -1.0432050     0.8000250
  H        1.2353410     1.1229560     0.9566870
  H        1.2444510     1.2423090    -0.7956360
  H       -1.2920980     1.1157560     0.9333530
  H       -1.3142720     1.1900270    -0.8297550
  H        3.4164800     0.3196140     0.0325770
  H        2.5617160    -1.0123690     0.8234870
  H        2.5697470    -0.8918040    -0.9403790
  H       -3.3188350     0.1809700    -0.0969470
  H       -2.5225420    -0.9739120     0.7268060
units angstrom
no_reorient  #important for SAPT in psi4, default
symmetry c1  #important for SAPT in psi4, default
}

set PROPERTIES_ORIGIN ["COM"]
properties('MP2/aug-cc-pvtz', properties = ['dipole'])
--------------------------------------------------------------------------

    Molecular point group: c1
  Charge       = 0
  Multiplicity = 1
  Basis Set: AUG-CC-PVTZ
    Blend: AUG-CC-PVTZ
  Basis Set: (AUG-CC-PVTZ AUX)
    Blend: AUG-CC-PVTZ-JKFIT

    Orbital Energies [Eh]
    ---------------------

    Doubly Occupied:

       1A    -15.554124     2A    -11.245941     3A    -11.214970
       4A    -11.209336     5A    -11.209237     6A     -1.175476
       7A     -1.056703     8A     -0.954624     9A     -0.841032
      10A     -0.789448    11A     -0.658911    12A     -0.616748
      13A     -0.611703    14A     -0.569770    15A     -0.551017
      16A     -0.526538    17A     -0.498667    18A     -0.470149
      19A     -0.462547    20A     -0.447955    21A     -0.404165

  @DF-RHF Final Energy:  -212.37741585917431

   => Energetics <=

    Nuclear Repulsion Energy =            186.1966629118606420
    One-Electron Energy =                -655.0100307918557974
    Two-Electron Energy =                 256.4359520208208778
    Total Energy =                       -212.3774158591742776
  Basis Set: (AUG-CC-PVTZ AUX)
    Blend: AUG-CC-PVTZ-RI
    Molecular point group: c1

    Geometry (in Angstrom), charge = 0, multiplicity = 1:

       Center              X                  Y                   Z               Mass
    ------------   -----------------  -----------------  -----------------  -----------------
         N           -2.353183384896    -0.469845685990    -0.098529319044    14.003074004430
         C           -0.001709184896    -0.299081885990    -0.022289019044    12.000000000000
         C            1.262727815104     0.553332114010     0.046538980956    12.000000000000
         C           -1.281344184896     0.524168114010     0.029936980956    12.000000000000
         C            2.538706815104    -0.282941885990    -0.004150019044    12.000000000000
         H           -0.010051184896    -0.891455885990    -0.944228019044     1.007825032230
         H           -0.000540184896    -1.016228885990     0.810747980956     1.007825032230
         H            1.250965815104     1.149932114010     0.967409980956     1.007825032230
         H            1.260075815104     1.269285114010    -0.784913019044     1.007825032230
         H           -1.276473184896     1.142732114010     0.944075980956     1.007825032230
         H           -1.298647184896     1.217003114010    -0.819032019044     1.007825032230
         H            3.432104815104     0.346590114010     0.043299980956     1.007825032230
         H            2.577340815104    -0.985392885990     0.834209980956     1.007825032230
         H            2.585371815104    -0.864827885990    -0.929656019044     1.007825032230
         H           -3.303210184896     0.207946114010    -0.086224019044     1.007825032230
         H           -2.506917184896    -0.946935885990     0.737528980956     1.007825032230

  Basis Set: AUG-CC-PVTZ
    Blend: AUG-CC-PVTZ
  Basis Set: (AUG-CC-PVTZ AUX)
    Blend: AUG-CC-PVTZ-JKFIT
	 Reference Energy          =    -212.3774158591743060 [Eh]
	 Singles Energy            =      -0.0000000000000000 [Eh]
	 Same-Spin Energy          =      -0.2239063031953276 [Eh]
	 Opposite-Spin Energy      =      -0.8164664543739000 [Eh]
	 Correlation Energy        =      -1.0403727575692276 [Eh]
	 Total Energy              =    -213.4177886167435361 [Eh]

	 ================> DF-SCS-MP2 Energies <==================
	-----------------------------------------------------------
	 SCS Same-Spin Scale       =       0.3333333333333333 [-]
	 SCS Opposite-Spin Scale   =       1.2000000000000000 [-]
	 SCS Same-Spin Energy      =      -0.0746354343984425 [Eh]
	 SCS Opposite-Spin Energy  =      -0.9797597452486799 [Eh]
	 SCS Correlation Energy    =      -1.0543951796471225 [Eh]
	 SCS Total Energy          =    -213.4318110388214222 [Eh]
	-----------------------------------------------------------

  Dipole Moment: [D]
     X:    -0.1770      Y:     0.9280      Z:     1.1372     Total:     1.4784

*** Psi4 exiting successfully. Buy a developer a beer!
