                               Psi4 1.3.2 release

  ==> Input File <==

--------------------------------------------------------------------------
#psi4
#
memory 32 gb

molecule  {
0 1
  N       -2.4520262    -0.3998576    -0.1014139
  C       -0.0173340    -0.3260580    -0.0330120
  C        1.2471030     0.5263560     0.0358160
  C       -1.2969690     0.4971920     0.0192140
  C        2.5230820    -0.3099180    -0.0148730
  H       -0.0256760    -0.9184320    -0.9549510
  H       -0.0161650    -1.0432050     0.8000250
  H        1.2353410     1.1229560     0.9566870
  H        1.2444510     1.2423090    -0.7956360
  H       -1.2920980     1.1157560     0.9333530
  H       -1.3142720     1.1900270    -0.8297550
  H        3.4164800     0.3196140     0.0325770
  H        2.5617160    -1.0123690     0.8234870
  H        2.5697470    -0.8918040    -0.9403790
  H       -3.3188350     0.1809700    -0.0969470
  H       -2.5225420    -0.9739120     0.7268060
units angstrom
no_reorient  #important for SAPT in psi4, default
symmetry c1  #important for SAPT in psi4, default
}

set PROPERTIES_ORIGIN ["COM"]
properties('MP2/aug-cc-pvtz', properties = ['dipole'])
--------------------------------------------------------------------------

    Molecular point group: c1
  Charge       = 0
  Multiplicity = 1
  Basis Set: AUG-CC-PVTZ
    Blend: AUG-CC-PVTZ
  Basis Set: (AUG-CC-PVTZ AUX)
    Blend: AUG-CC-PVTZ-JKFIT

    Orbital Energies [Eh]
    ---------------------

    Doubly Occupied:

       1A    -15.541456     2A    -11.244308     3A    -11.216677
       4A    -11.211685     5A    -11.210257     6A     -1.174467
       7A     -1.058990     8A     -0.956756     9A     -0.840297
      10A     -0.789097    11A     -0.659764    12A     -0.632467
      13A     -0.605573    14A     -0.572441    15A     -0.561998
      16A     -0.524825    17A     -0.498426    18A     -0.470242
      19A     -0.463429    20A     -0.460437    21A     -0.392901

  @DF-RHF Final Energy:  -212.39996269541089

   => Energetics <=

    Nuclear Repulsion Energy =            185.8739608855310053
    One-Electron Energy =                -654.3748596545801774
    Two-Electron Energy =                 256.1009360736383087
    Total Energy =                       -212.3999626954108635
  Basis Set: (AUG-CC-PVTZ AUX)
    Blend: AUG-CC-PVTZ-RI
    Molecular point group: c1

    Geometry (in Angstrom), charge = 0, multiplicity = 1:

       Center              X                  Y                   Z               Mass
    ------------   -----------------  -----------------  -----------------  -----------------
         N           -2.420457734947    -0.391458756082    -0.092192669937    14.003074004430
         C            0.014234465053    -0.317659156082    -0.023790769937    12.000000000000
         C            1.278671465053     0.534754843918     0.045037230063    12.000000000000
         C           -1.265400534947     0.505590843918     0.028435230063    12.000000000000
         C            2.554650465053    -0.301519156082    -0.005651769937    12.000000000000
         H            0.005892465053    -0.910033156082    -0.945729769937     1.007825032230
         H            0.015403465053    -1.034806156082     0.809246230063     1.007825032230
         H            1.266909465053     1.131354843918     0.965908230063     1.007825032230
         H            1.276019465053     1.250707843918    -0.786414769937     1.007825032230
         H           -1.260529534947     1.124154843918     0.942574230063     1.007825032230
         H           -1.282703534947     1.198425843918    -0.820533769937     1.007825032230
         H            3.448048465053     0.328012843918     0.041798230063     1.007825032230
         H            2.593284465053    -1.003970156082     0.832708230063     1.007825032230
         H            2.601315465053    -0.883405156082    -0.931157769937     1.007825032230
         H           -3.287266534947     0.189368843918    -0.087725769937     1.007825032230
         H           -2.490973534947    -0.965513156082     0.736027230063     1.007825032230

  Basis Set: AUG-CC-PVTZ
    Blend: AUG-CC-PVTZ
  Basis Set: (AUG-CC-PVTZ AUX)
    Blend: AUG-CC-PVTZ-JKFIT
	 Reference Energy          =    -212.3999626954108919 [Eh]
	 Singles Energy            =      -0.0000000000000000 [Eh]
	 Same-Spin Energy          =      -0.2230422168649371 [Eh]
	 Opposite-Spin Energy      =      -0.8135732304985275 [Eh]
	 Correlation Energy        =      -1.0366154473634646 [Eh]
	 Total Energy              =    -213.4365781427743514 [Eh]

	 ================> DF-SCS-MP2 Energies <==================
	-----------------------------------------------------------
	 SCS Same-Spin Scale       =       0.3333333333333333 [-]
	 SCS Opposite-Spin Scale   =       1.2000000000000000 [-]
	 SCS Same-Spin Energy      =      -0.0743474056216457 [Eh]
	 SCS Opposite-Spin Energy  =      -0.9762878765982329 [Eh]
	 SCS Correlation Energy    =      -1.0506352822198786 [Eh]
	 SCS Total Energy          =    -213.4505979776307640 [Eh]
	-----------------------------------------------------------

  Dipole Moment: [D]
     X:    -0.0850      Y:     0.7935      Z:     1.0872     Total:     1.3487

*** Psi4 exiting successfully. Buy a developer a beer!
