                               Psi4 1.3.2 release

  ==> Input File <==

--------------------------------------------------------------------------
#psi4
#
memory 32 gb

molecule  {
0 1
  N       -2.4828852    -0.3591173    -0.0980179
  C       -0.0173340    -0.3260580    -0.0330120
  C        1.2471030     0.5263560     0.0358160
  C       -1.2969690     0.4971920     0.0192140
  C        2.5230820    -0.3099180    -0.0148730
  H       -0.0256760    -0.9184320    -0.9549510
  H       -0.0161650    -1.0432050     0.8000250
  H        1.2353410     1.1229560     0.9566870
  H        1.2444510     1.2423090    -0.7956360
  H       -1.2920980     1.1157560     0.9333530
  H       -1.3142720     1.1900270    -0.8297550
  H        3.4164800     0.3196140     0.0325770
  H        2.5617160    -1.0123690     0.8234870
  H        2.5697470    -0.8918040    -0.9403790
  H       -3.3188350     0.1809700    -0.0969470
  H       -2.5225420    -0.9739120     0.7268060
units angstrom
no_reorient  #important for SAPT in psi4, default
symmetry c1  #important for SAPT in psi4, default
}

set PROPERTIES_ORIGIN ["COM"]
properties('MP2/aug-cc-pvtz', properties = ['dipole'])
--------------------------------------------------------------------------

    Molecular point group: c1
  Charge       = 0
  Multiplicity = 1
  Basis Set: AUG-CC-PVTZ
    Blend: AUG-CC-PVTZ
  Basis Set: (AUG-CC-PVTZ AUX)
    Blend: AUG-CC-PVTZ-JKFIT

    Orbital Energies [Eh]
    ---------------------

    Doubly Occupied:

       1A    -15.536914     2A    -11.244154     3A    -11.217490
       4A    -11.212941     5A    -11.210778     6A     -1.175273
       7A     -1.060216     8A     -0.958242     9A     -0.840888
      10A     -0.789044    11A     -0.662895    12A     -0.638754
      13A     -0.602977    14A     -0.575942    15A     -0.562434
      16A     -0.523486    17A     -0.498064    18A     -0.470285
      19A     -0.465473    20A     -0.463221    21A     -0.388607

  @DF-RHF Final Energy:  -212.40129805295734

   => Energetics <=

    Nuclear Repulsion Energy =            185.7731680135265435
    One-Electron Energy =                -654.1527754865381894
    Two-Electron Energy =                 255.9783094200543303
    Total Energy =                       -212.4012980529573440
  Basis Set: (AUG-CC-PVTZ AUX)
    Blend: AUG-CC-PVTZ-RI
    Molecular point group: c1

    Geometry (in Angstrom), charge = 0, multiplicity = 1:

       Center              X                  Y                   Z               Mass
    ------------   -----------------  -----------------  -----------------  -----------------
         N           -2.445404491276    -0.358523847728    -0.089447306040    14.003074004430
         C            0.020146708724    -0.325464547728    -0.024441406040    12.000000000000
         C            1.284583708724     0.526949452272     0.044386593960    12.000000000000
         C           -1.259488291276     0.497785452272     0.027784593960    12.000000000000
         C            2.560562708724    -0.309324547728    -0.006302406040    12.000000000000
         H            0.011804708724    -0.917838547728    -0.946380406040     1.007825032230
         H            0.021315708724    -1.042611547728     0.808595593960     1.007825032230
         H            1.272821708724     1.123549452272     0.965257593960     1.007825032230
         H            1.281931708724     1.242902452272    -0.787065406040     1.007825032230
         H           -1.254617291276     1.116349452272     0.941923593960     1.007825032230
         H           -1.276791291276     1.190620452272    -0.821184406040     1.007825032230
         H            3.453960708724     0.320207452272     0.041147593960     1.007825032230
         H            2.599196708724    -1.011775547728     0.832057593960     1.007825032230
         H            2.607227708724    -0.891210547728    -0.931808406040     1.007825032230
         H           -3.281354291276     0.181563452272    -0.088376406040     1.007825032230
         H           -2.485061291276    -0.973318547728     0.735376593960     1.007825032230

  Basis Set: AUG-CC-PVTZ
    Blend: AUG-CC-PVTZ
  Basis Set: (AUG-CC-PVTZ AUX)
    Blend: AUG-CC-PVTZ-JKFIT
	 Reference Energy          =    -212.4012980529573440 [Eh]
	 Singles Energy            =      -0.0000000000000000 [Eh]
	 Same-Spin Energy          =      -0.2228202998676510 [Eh]
	 Opposite-Spin Energy      =      -0.8128710134125743 [Eh]
	 Correlation Energy        =      -1.0356913132802252 [Eh]
	 Total Energy              =    -213.4369893662375830 [Eh]

	 ================> DF-SCS-MP2 Energies <==================
	-----------------------------------------------------------
	 SCS Same-Spin Scale       =       0.3333333333333333 [-]
	 SCS Opposite-Spin Scale   =       1.2000000000000000 [-]
	 SCS Same-Spin Energy      =      -0.0742734332892170 [Eh]
	 SCS Opposite-Spin Energy  =      -0.9754452160950891 [Eh]
	 SCS Correlation Energy    =      -1.0497186493843060 [Eh]
	 SCS Total Energy          =    -213.4510167023416614 [Eh]
	-----------------------------------------------------------

  Dipole Moment: [D]
     X:    -0.0289      Y:     0.7315      Z:     1.0647     Total:     1.2921

*** Psi4 exiting successfully. Buy a developer a beer!
