                               Psi4 1.3.2 release

  ==> Input File <==

--------------------------------------------------------------------------
#psi4
#
memory 32 gb

molecule  {
0 1
  N       -2.4977752    -0.3383527    -0.0962661
  C       -0.0173340    -0.3260580    -0.0330120
  C        1.2471030     0.5263560     0.0358160
  C       -1.2969690     0.4971920     0.0192140
  C        2.5230820    -0.3099180    -0.0148730
  H       -0.0256760    -0.9184320    -0.9549510
  H       -0.0161650    -1.0432050     0.8000250
  H        1.2353410     1.1229560     0.9566870
  H        1.2444510     1.2423090    -0.7956360
  H       -1.2920980     1.1157560     0.9333530
  H       -1.3142720     1.1900270    -0.8297550
  H        3.4164800     0.3196140     0.0325770
  H        2.5617160    -1.0123690     0.8234870
  H        2.5697470    -0.8918040    -0.9403790
  H       -3.3188350     0.1809700    -0.0969470
  H       -2.5225420    -0.9739120     0.7268060
units angstrom
no_reorient  #important for SAPT in psi4, default
symmetry c1  #important for SAPT in psi4, default
}

set PROPERTIES_ORIGIN ["COM"]
properties('MP2/aug-cc-pvtz', properties = ['dipole'])
--------------------------------------------------------------------------

    Molecular point group: c1
  Charge       = 0
  Multiplicity = 1
  Basis Set: AUG-CC-PVTZ
    Blend: AUG-CC-PVTZ
  Basis Set: (AUG-CC-PVTZ AUX)
    Blend: AUG-CC-PVTZ-JKFIT

    Orbital Energies [Eh]
    ---------------------

    Doubly Occupied:

       1A    -15.534748     2A    -11.244205     3A    -11.217924
       4A    -11.213633     5A    -11.211062     6A     -1.176000
       7A     -1.060905     8A     -0.959153     9A     -0.841476
      10A     -0.789065    11A     -0.665343    12A     -0.641207
      13A     -0.601819    14A     -0.577772    15A     -0.562192
      16A     -0.522744    17A     -0.497800    18A     -0.470294
      19A     -0.467388    20A     -0.463583    21A     -0.386564

  @DF-RHF Final Energy:  -212.39976381364389

   => Energetics <=

    Nuclear Repulsion Energy =            185.7298060059045781
    One-Electron Energy =                -654.0493854710979349
    Two-Electron Energy =                 255.9198156515494418
    Total Energy =                       -212.3997638136438866
  Basis Set: (AUG-CC-PVTZ AUX)
    Blend: AUG-CC-PVTZ-RI
    Molecular point group: c1

    Geometry (in Angstrom), charge = 0, multiplicity = 1:

       Center              X                  Y                   Z               Mass
    ------------   -----------------  -----------------  -----------------  -----------------
         N           -2.457441731683    -0.341737515816    -0.088031131577    14.003074004430
         C            0.022999468317    -0.329442815816    -0.024777031577    12.000000000000
         C            1.287436468317     0.522971184184     0.044050968423    12.000000000000
         C           -1.256635531683     0.493807184184     0.027448968423    12.000000000000
         C            2.563415468317    -0.313302815816    -0.006638031577    12.000000000000
         H            0.014657468317    -0.921816815816    -0.946716031577     1.007825032230
         H            0.024168468317    -1.046589815816     0.808259968423     1.007825032230
         H            1.275674468317     1.119571184184     0.964921968423     1.007825032230
         H            1.284784468317     1.238924184184    -0.787401031577     1.007825032230
         H           -1.251764531683     1.112371184184     0.941587968423     1.007825032230
         H           -1.273938531683     1.186642184184    -0.821520031577     1.007825032230
         H            3.456813468317     0.316229184184     0.040811968423     1.007825032230
         H            2.602049468317    -1.015753815816     0.831721968423     1.007825032230
         H            2.610080468317    -0.895188815816    -0.932144031577     1.007825032230
         H           -3.278501531683     0.177585184184    -0.088712031577     1.007825032230
         H           -2.482208531683    -0.977296815816     0.735040968423     1.007825032230

  Basis Set: AUG-CC-PVTZ
    Blend: AUG-CC-PVTZ
  Basis Set: (AUG-CC-PVTZ AUX)
    Blend: AUG-CC-PVTZ-JKFIT
	 Reference Energy          =    -212.3997638136438866 [Eh]
	 Singles Energy            =      -0.0000000000000000 [Eh]
	 Same-Spin Energy          =      -0.2227379795454292 [Eh]
	 Opposite-Spin Energy      =      -0.8126237579973234 [Eh]
	 Correlation Energy        =      -1.0353617375427526 [Eh]
	 Total Energy              =    -213.4351255511866441 [Eh]

	 ================> DF-SCS-MP2 Energies <==================
	-----------------------------------------------------------
	 SCS Same-Spin Scale       =       0.3333333333333333 [-]
	 SCS Opposite-Spin Scale   =       1.2000000000000000 [-]
	 SCS Same-Spin Energy      =      -0.0742459931818097 [Eh]
	 SCS Opposite-Spin Energy  =      -0.9751485095967881 [Eh]
	 SCS Correlation Energy    =      -1.0493945027785978 [Eh]
	 SCS Total Energy          =    -213.4491583164224835 [Eh]
	-----------------------------------------------------------

  Dipole Moment: [D]
     X:     0.0035      Y:     0.6991      Z:     1.0528     Total:     1.2638

*** Psi4 exiting successfully. Buy a developer a beer!
