                               Psi4 1.3.2 release

  ==> Input File <==

--------------------------------------------------------------------------
#psi4
#
memory 32 gb

molecule  {
0 1
  N       -2.5264535    -0.2960664    -0.0926574
  C       -0.0173340    -0.3260580    -0.0330120
  C        1.2471030     0.5263560     0.0358160
  C       -1.2969690     0.4971920     0.0192140
  C        2.5230820    -0.3099180    -0.0148730
  H       -0.0256760    -0.9184320    -0.9549510
  H       -0.0161650    -1.0432050     0.8000250
  H        1.2353410     1.1229560     0.9566870
  H        1.2444510     1.2423090    -0.7956360
  H       -1.2920980     1.1157560     0.9333530
  H       -1.3142720     1.1900270    -0.8297550
  H        3.4164800     0.3196140     0.0325770
  H        2.5617160    -1.0123690     0.8234870
  H        2.5697470    -0.8918040    -0.9403790
  H       -3.3188350     0.1809700    -0.0969470
  H       -2.5225420    -0.9739120     0.7268060
units angstrom
no_reorient  #important for SAPT in psi4, default
symmetry c1  #important for SAPT in psi4, default
}

set PROPERTIES_ORIGIN ["COM"]
properties('MP2/aug-cc-pvtz', properties = ['dipole'])
--------------------------------------------------------------------------

    Molecular point group: c1
  Charge       = 0
  Multiplicity = 1
  Basis Set: AUG-CC-PVTZ
    Blend: AUG-CC-PVTZ
  Basis Set: (AUG-CC-PVTZ AUX)
    Blend: AUG-CC-PVTZ-JKFIT

    Orbital Energies [Eh]
    ---------------------

    Doubly Occupied:

       1A    -15.530627     2A    -11.244583     3A    -11.218845
       4A    -11.215134     5A    -11.211676     6A     -1.178172
       7A     -1.062444     8A     -0.961333     9A     -0.843349
      10A     -0.789278    11A     -0.671595    12A     -0.644621
      13A     -0.599874    14A     -0.581159    15A     -0.561284
      16A     -0.521205    17A     -0.497068    18A     -0.471197
      19A     -0.470260    20A     -0.464030    21A     -0.382715

  @DF-RHF Final Energy:  -212.39152639857738

   => Energetics <=

    Nuclear Repulsion Energy =            185.6582561141123051
    One-Electron Energy =                -653.8586655839453670
    Two-Electron Energy =                 255.8088830712556785
    Total Energy =                       -212.3915263985773834
  Basis Set: (AUG-CC-PVTZ AUX)
    Blend: AUG-CC-PVTZ-RI
    Molecular point group: c1

    Geometry (in Angstrom), charge = 0, multiplicity = 1:

       Center              X                  Y                   Z               Mass
    ------------   -----------------  -----------------  -----------------  -----------------
         N           -2.480625586055    -0.307552803993    -0.085113818652    14.003074004430
         C            0.028493913945    -0.337544403993    -0.025468418652    12.000000000000
         C            1.292930913945     0.514869596007     0.043359581348    12.000000000000
         C           -1.251141086055     0.485705596007     0.026757581348    12.000000000000
         C            2.568909913945    -0.321404403993    -0.007329418652    12.000000000000
         H            0.020151913945    -0.929918403993    -0.947407418652     1.007825032230
         H            0.029662913945    -1.054691403993     0.807568581348     1.007825032230
         H            1.281168913945     1.111469596007     0.964230581348     1.007825032230
         H            1.290278913945     1.230822596007    -0.788092418652     1.007825032230
         H           -1.246270086055     1.104269596007     0.940896581348     1.007825032230
         H           -1.268444086055     1.178540596007    -0.822211418652     1.007825032230
         H            3.462307913945     0.308127596007     0.040120581348     1.007825032230
         H            2.607543913945    -1.023855403993     0.831030581348     1.007825032230
         H            2.615574913945    -0.903290403993    -0.932835418652     1.007825032230
         H           -3.273007086055     0.169483596007    -0.089403418652     1.007825032230
         H           -2.476714086055    -0.985398403993     0.734349581348     1.007825032230

  Basis Set: AUG-CC-PVTZ
    Blend: AUG-CC-PVTZ
  Basis Set: (AUG-CC-PVTZ AUX)
    Blend: AUG-CC-PVTZ-JKFIT
	 Reference Energy          =    -212.3915263985773834 [Eh]
	 Singles Energy            =      -0.0000000000000000 [Eh]
	 Same-Spin Energy          =      -0.2226338628279437 [Eh]
	 Opposite-Spin Energy      =      -0.8123451078477872 [Eh]
	 Correlation Energy        =      -1.0349789706757309 [Eh]
	 Total Energy              =    -213.4265053692531069 [Eh]

	 ================> DF-SCS-MP2 Energies <==================
	-----------------------------------------------------------
	 SCS Same-Spin Scale       =       0.3333333333333333 [-]
	 SCS Opposite-Spin Scale   =       1.2000000000000000 [-]
	 SCS Same-Spin Energy      =      -0.0742112876093146 [Eh]
	 SCS Opposite-Spin Energy  =      -0.9748141294173447 [Eh]
	 SCS Correlation Energy    =      -1.0490254170266593 [Eh]
	 SCS Total Energy          =    -213.4405518156040387 [Eh]
	-----------------------------------------------------------

  Dipole Moment: [D]
     X:     0.0768      Y:     0.6319      Z:     1.0270     Total:     1.2083

*** Psi4 exiting successfully. Buy a developer a beer!
