                               Psi4 1.3.2 release

  ==> Input File <==

--------------------------------------------------------------------------
#psi4
#
memory 32 gb

molecule  {
0 1
  N       -2.4031112    -0.4589038    -0.1062311
  C       -0.0173340    -0.3260580    -0.0330120
  C        1.2471030     0.5263560     0.0358160
  C       -1.2969690     0.4971920     0.0192140
  C        2.5230820    -0.3099180    -0.0148730
  H       -0.0256760    -0.9184320    -0.9549510
  H       -0.0161650    -1.0432050     0.8000250
  H        1.2353410     1.1229560     0.9566870
  H        1.2444510     1.2423090    -0.7956360
  H       -1.2920980     1.1157560     0.9333530
  H       -1.3142720     1.1900270    -0.8297550
  H        3.4164800     0.3196140     0.0325770
  H        2.5617160    -1.0123690     0.8234870
  H        2.5697470    -0.8918040    -0.9403790
  H       -3.3188350     0.1809700    -0.0969470
  H       -2.5225420    -0.9739120     0.7268060
units angstrom
no_reorient  #important for SAPT in psi4, default
symmetry c1  #important for SAPT in psi4, default
}

set PROPERTIES_ORIGIN ["COM"]
properties('MP2/aug-cc-pvtz', properties = ['dipole'])
--------------------------------------------------------------------------

    Molecular point group: c1
  Charge       = 0
  Multiplicity = 1
  Basis Set: AUG-CC-PVTZ
    Blend: AUG-CC-PVTZ
  Basis Set: (AUG-CC-PVTZ AUX)
    Blend: AUG-CC-PVTZ-JKFIT

    Orbital Energies [Eh]
    ---------------------

    Doubly Occupied:

       1A    -15.548820     2A    -11.245099     3A    -11.215597
       4A    -11.210134     5A    -11.209598     6A     -1.174637
       7A     -1.057501     8A     -0.955252     9A     -0.840484
      10A     -0.789285    11A     -0.658455    12A     -0.622017
      13A     -0.609769    14A     -0.569870    15A     -0.556828
      16A     -0.526241    17A     -0.498664    18A     -0.470168
      19A     -0.462787    20A     -0.453220    21A     -0.399691

  @DF-RHF Final Energy:  -212.38908577156377

   => Energetics <=

    Nuclear Repulsion Energy =            186.0566702311901111
    One-Electron Energy =                -654.7432808222467884
    Two-Electron Energy =                 256.2975248194929350
    Total Energy =                       -212.3890857715637708
  Basis Set: (AUG-CC-PVTZ AUX)
    Blend: AUG-CC-PVTZ-RI
    Molecular point group: c1

    Geometry (in Angstrom), charge = 0, multiplicity = 1:

       Center              X                  Y                   Z               Mass
    ------------   -----------------  -----------------  -----------------  -----------------
         N           -2.380914308852    -0.439192356119    -0.096086947606    14.003074004430
         C            0.004862891148    -0.306346556119    -0.022867847606    12.000000000000
         C            1.269299891148     0.546067443881     0.045960152394    12.000000000000
         C           -1.274772108852     0.516903443881     0.029358152394    12.000000000000
         C            2.545278891148    -0.290206556119    -0.004728847606    12.000000000000
         H           -0.003479108852    -0.898720556119    -0.944806847606     1.007825032230
         H            0.006031891148    -1.023493556119     0.810169152394     1.007825032230
         H            1.257537891148     1.142667443881     0.966831152394     1.007825032230
         H            1.266647891148     1.262020443881    -0.785491847606     1.007825032230
         H           -1.269901108852     1.135467443881     0.943497152394     1.007825032230
         H           -1.292075108852     1.209738443881    -0.819610847606     1.007825032230
         H            3.438676891148     0.339325443881     0.042721152394     1.007825032230
         H            2.583912891148    -0.992657556119     0.833631152394     1.007825032230
         H            2.591943891148    -0.872092556119    -0.930234847606     1.007825032230
         H           -3.296638108852     0.200681443881    -0.086802847606     1.007825032230
         H           -2.500345108852    -0.954200556119     0.736950152394     1.007825032230

  Basis Set: AUG-CC-PVTZ
    Blend: AUG-CC-PVTZ
  Basis Set: (AUG-CC-PVTZ AUX)
    Blend: AUG-CC-PVTZ-JKFIT
	 Reference Energy          =    -212.3890857715637708 [Eh]
	 Singles Energy            =      -0.0000000000000000 [Eh]
	 Same-Spin Energy          =      -0.2235092692002326 [Eh]
	 Opposite-Spin Energy      =      -0.8151213561385615 [Eh]
	 Correlation Energy        =      -1.0386306253387940 [Eh]
	 Total Energy              =    -213.4277163969025537 [Eh]

	 ================> DF-SCS-MP2 Energies <==================
	-----------------------------------------------------------
	 SCS Same-Spin Scale       =       0.3333333333333333 [-]
	 SCS Opposite-Spin Scale   =       1.2000000000000000 [-]
	 SCS Same-Spin Energy      =      -0.0745030897334109 [Eh]
	 SCS Opposite-Spin Energy  =      -0.9781456273662738 [Eh]
	 SCS Correlation Energy    =      -1.0526487170996845 [Eh]
	 SCS Total Energy          =    -213.4417344886634567 [Eh]
	-----------------------------------------------------------

  Dipole Moment: [D]
     X:    -0.1480      Y:     0.8779      Z:     1.1182     Total:     1.4293

*** Psi4 exiting successfully. Buy a developer a beer!
