                               Psi4 1.3.2 release

  ==> Input File <==

--------------------------------------------------------------------------
#psi4
#
memory 32 gb

molecule  {
0 1
  N       -2.5536338    -0.2528137    -0.0889125
  C       -0.0173340    -0.3260580    -0.0330120
  C        1.2471030     0.5263560     0.0358160
  C       -1.2969690     0.4971920     0.0192140
  C        2.5230820    -0.3099180    -0.0148730
  H       -0.0256760    -0.9184320    -0.9549510
  H       -0.0161650    -1.0432050     0.8000250
  H        1.2353410     1.1229560     0.9566870
  H        1.2444510     1.2423090    -0.7956360
  H       -1.2920980     1.1157560     0.9333530
  H       -1.3142720     1.1900270    -0.8297550
  H        3.4164800     0.3196140     0.0325770
  H        2.5617160    -1.0123690     0.8234870
  H        2.5697470    -0.8918040    -0.9403790
  H       -3.3188350     0.1809700    -0.0969470
  H       -2.5225420    -0.9739120     0.7268060
units angstrom
no_reorient  #important for SAPT in psi4, default
symmetry c1  #important for SAPT in psi4, default
}

set PROPERTIES_ORIGIN ["COM"]
properties('MP2/aug-cc-pvtz', properties = ['dipole'])
--------------------------------------------------------------------------

    Molecular point group: c1
  Charge       = 0
  Multiplicity = 1
  Basis Set: AUG-CC-PVTZ
    Blend: AUG-CC-PVTZ
  Basis Set: (AUG-CC-PVTZ AUX)
    Blend: AUG-CC-PVTZ-JKFIT

    Orbital Energies [Eh]
    ---------------------

    Doubly Occupied:

       1A    -15.526805     2A    -11.245362     3A    -11.219835
       4A    -11.216782     5A    -11.212350     6A     -1.181370
       7A     -1.064196     8A     -0.964007     9A     -0.846255
      10A     -0.789830    11A     -0.678368    12A     -0.646682
      13A     -0.598524    14A     -0.584012    15A     -0.560083
      16A     -0.519737    17A     -0.496037    18A     -0.474712
      19A     -0.470159    20A     -0.464244    21A     -0.379203

  @DF-RHF Final Energy:  -212.37534856666204

   => Energetics <=

    Nuclear Repulsion Energy =            185.6081225276764144
    One-Electron Energy =                -653.6898357478575008
    Two-Electron Energy =                 255.7063646535190458
    Total Energy =                       -212.3753485666620406
  Basis Set: (AUG-CC-PVTZ AUX)
    Blend: AUG-CC-PVTZ-RI
    Molecular point group: c1

    Geometry (in Angstrom), charge = 0, multiplicity = 1:

       Center              X                  Y                   Z               Mass
    ------------   -----------------  -----------------  -----------------  -----------------
         N           -2.502598440685    -0.272586843739    -0.082086400142    14.003074004430
         C            0.033701359315    -0.345831143739    -0.026185900142    12.000000000000
         C            1.298138359315     0.506582856261     0.042642099858    12.000000000000
         C           -1.245933640685     0.477418856261     0.026040099858    12.000000000000
         C            2.574117359315    -0.329691143739    -0.008046900142    12.000000000000
         H            0.025359359315    -0.938205143739    -0.948124900142     1.007825032230
         H            0.034870359315    -1.062978143739     0.806851099858     1.007825032230
         H            1.286376359315     1.103182856261     0.963513099858     1.007825032230
         H            1.295486359315     1.222535856261    -0.788809900142     1.007825032230
         H           -1.241062640685     1.095982856261     0.940179099858     1.007825032230
         H           -1.263236640685     1.170253856261    -0.822928900142     1.007825032230
         H            3.467515359315     0.299840856261     0.039403099858     1.007825032230
         H            2.612751359315    -1.032142143739     0.830313099858     1.007825032230
         H            2.620782359315    -0.911577143739    -0.933552900142     1.007825032230
         H           -3.267799640685     0.161196856261    -0.090120900142     1.007825032230
         H           -2.471506640685    -0.993685143739     0.733632099858     1.007825032230

  Basis Set: AUG-CC-PVTZ
    Blend: AUG-CC-PVTZ
  Basis Set: (AUG-CC-PVTZ AUX)
    Blend: AUG-CC-PVTZ-JKFIT
	 Reference Energy          =    -212.3753485666620406 [Eh]
	 Singles Energy            =      -0.0000000000000000 [Eh]
	 Same-Spin Energy          =      -0.2226135889024689 [Eh]
	 Opposite-Spin Energy      =      -0.8123643508581420 [Eh]
	 Correlation Energy        =      -1.0349779397606107 [Eh]
	 Total Energy              =    -213.4103265064226491 [Eh]

	 ================> DF-SCS-MP2 Energies <==================
	-----------------------------------------------------------
	 SCS Same-Spin Scale       =       0.3333333333333333 [-]
	 SCS Opposite-Spin Scale   =       1.2000000000000000 [-]
	 SCS Same-Spin Energy      =      -0.0742045296341563 [Eh]
	 SCS Opposite-Spin Energy  =      -0.9748372210297703 [Eh]
	 SCS Correlation Energy    =      -1.0490417506639267 [Eh]
	 SCS Total Energy          =    -213.4243903173259582 [Eh]
	-----------------------------------------------------------

  Dipole Moment: [D]
     X:     0.1611      Y:     0.5622      Z:     0.9981     Total:     1.1568

*** Psi4 exiting successfully. Buy a developer a beer!
