                               Psi4 1.3.2 release

  ==> Input File <==

--------------------------------------------------------------------------
#psi4
#
memory 32 gb

molecule  {
0 1
  O        0.3967640     1.3827560    -0.0007810
  C       -0.6783870    -0.7655370    -0.0020220
  C        0.6140164     0.0302432    -0.0012185
  C       -2.0052390    -0.0209150     0.0016680
  C        1.8877690    -0.4956840     0.0011830
  H       -0.5958070    -1.4240690    -0.8772130
  H       -0.5938650    -1.4297600     0.8686460
  H       -2.8419260    -0.7243560     0.0001610
  H       -2.0887280     0.6224500    -0.8763240
  H       -2.0871610     0.6166780     0.8840340
  H        2.0010780    -1.1412890    -0.8757170
  H        2.6611170     0.2731320    -0.0054170
  H        2.0037860    -1.1278740     0.8875240
units angstrom
no_reorient  #important for SAPT in psi4, default
symmetry c1  #important for SAPT in psi4, default
}

set PROPERTIES_ORIGIN ["COM"]
properties('MP2/aug-cc-pvtz', properties = ['dipole'])
--------------------------------------------------------------------------

    Molecular point group: c1
  Charge       = 0
  Multiplicity = 1
  Basis Set: AUG-CC-PVTZ
    Blend: AUG-CC-PVTZ
  Basis Set: (AUG-CC-PVTZ AUX)
    Blend: AUG-CC-PVTZ-JKFIT

    Orbital Energies [Eh]
    ---------------------

    Doubly Occupied:

       1A    -20.531140     2A    -11.343102     3A    -11.248934
       4A    -11.243535     5A    -11.218513     6A     -1.293063
       7A     -1.081256     8A     -1.030055     9A     -0.884152
      10A     -0.735509    11A     -0.648385    12A     -0.645543
      13A     -0.623006    14A     -0.596163    15A     -0.550221
      16A     -0.527461    17A     -0.502432    18A     -0.493427
      19A     -0.430689    20A     -0.417784

  @DF-RHF Final Energy:  -231.03276528168414

   => Energetics <=

    Nuclear Repulsion Energy =            174.9561865273009857
    One-Electron Energy =                -659.8891658549307522
    Two-Electron Energy =                 253.9002140459456314
    Total Energy =                       -231.0327652816841351
  Basis Set: (AUG-CC-PVTZ AUX)
    Blend: AUG-CC-PVTZ-RI
    Molecular point group: c1

    Geometry (in Angstrom), charge = 0, multiplicity = 1:

       Center              X                  Y                   Z               Mass
    ------------   -----------------  -----------------  -----------------  -----------------
         O            0.360535290553     1.344934263280    -0.000622411786    15.994914619570
         C           -0.714615709447    -0.803358736720    -0.001863411786    12.000000000000
         C            0.577787690553    -0.007578536720    -0.001059911786    12.000000000000
         C           -2.041467709447    -0.058736736720     0.001826588214    12.000000000000
         C            1.851540290553    -0.533505736720     0.001341588214    12.000000000000
         H           -0.632035709447    -1.461890736720    -0.877054411786     1.007825032230
         H           -0.630093709447    -1.467581736720     0.868804588214     1.007825032230
         H           -2.878154709447    -0.762177736720     0.000319588214     1.007825032230
         H           -2.124956709447     0.584628263280    -0.876165411786     1.007825032230
         H           -2.123389709447     0.578856263280     0.884192588214     1.007825032230
         H            1.964849290553    -1.179110736720    -0.875558411786     1.007825032230
         H            2.624888290553     0.235310263280    -0.005258411786     1.007825032230
         H            1.967557290553    -1.165695736720     0.887682588214     1.007825032230

  Basis Set: AUG-CC-PVTZ
    Blend: AUG-CC-PVTZ
  Basis Set: (AUG-CC-PVTZ AUX)
    Blend: AUG-CC-PVTZ-JKFIT
	 Reference Energy          =    -231.0327652816841351 [Eh]
	 Singles Energy            =      -0.0000000000000000 [Eh]
	 Same-Spin Energy          =      -0.2353469633211892 [Eh]
	 Opposite-Spin Energy      =      -0.8023949442057622 [Eh]
	 Correlation Energy        =      -1.0377419075269514 [Eh]
	 Total Energy              =    -232.0705071892110993 [Eh]

	 ================> DF-SCS-MP2 Energies <==================
	-----------------------------------------------------------
	 SCS Same-Spin Scale       =       0.3333333333333333 [-]
	 SCS Opposite-Spin Scale   =       1.2000000000000000 [-]
	 SCS Same-Spin Energy      =      -0.0784489877737297 [Eh]
	 SCS Opposite-Spin Energy  =      -0.9628739330469146 [Eh]
	 SCS Correlation Energy    =      -1.0413229208206443 [Eh]
	 SCS Total Energy          =    -232.0740882025047824 [Eh]
	-----------------------------------------------------------

  Dipole Moment: [D]
     X:     0.5905      Y:    -3.3126      Z:     0.0021     Total:     3.3648

*** Psi4 exiting successfully. Buy a developer a beer!
