                               Psi4 1.3.2 release

  ==> Input File <==

--------------------------------------------------------------------------
#psi4
#
memory 32 gb

molecule  {
0 1
  O        0.3967640     1.3827560    -0.0007810
  C       -0.6783870    -0.7655370    -0.0020220
  C        0.4203226     0.2815578    -0.0002676
  C       -2.0052390    -0.0209150     0.0016680
  C        1.8877690    -0.4956840     0.0011830
  H       -0.5958070    -1.4240690    -0.8772130
  H       -0.5938650    -1.4297600     0.8686460
  H       -2.8419260    -0.7243560     0.0001610
  H       -2.0887280     0.6224500    -0.8763240
  H       -2.0871610     0.6166780     0.8840340
  H        2.0010780    -1.1412890    -0.8757170
  H        2.6611170     0.2731320    -0.0054170
  H        2.0037860    -1.1278740     0.8875240
units angstrom
no_reorient  #important for SAPT in psi4, default
symmetry c1  #important for SAPT in psi4, default
}

set PROPERTIES_ORIGIN ["COM"]
properties('MP2/aug-cc-pvtz', properties = ['dipole'])
--------------------------------------------------------------------------

    Molecular point group: c1
  Charge       = 0
  Multiplicity = 1
  Basis Set: AUG-CC-PVTZ
    Blend: AUG-CC-PVTZ
  Basis Set: (AUG-CC-PVTZ AUX)
    Blend: AUG-CC-PVTZ-JKFIT

    Orbital Energies [Eh]
    ---------------------

    Doubly Occupied:

       1A    -20.557514     2A    -11.324239     3A    -11.239262
       4A    -11.219473     5A    -11.217895     6A     -1.473258
       7A     -1.061984     8A     -0.964519     9A     -0.871193
      10A     -0.739482    11A     -0.680588    12A     -0.646294
      13A     -0.632663    14A     -0.576435    15A     -0.565927
      16A     -0.533670    17A     -0.528223    18A     -0.514384
      19A     -0.499395    20A     -0.376245

  @DF-RHF Final Energy:  -231.05633857537566

   => Energetics <=

    Nuclear Repulsion Energy =            177.2264106822834719
    One-Electron Energy =                -664.1202159850065527
    Two-Electron Energy =                 255.8374667273474188
    Total Energy =                       -231.0563385753756620
  Basis Set: (AUG-CC-PVTZ AUX)
    Blend: AUG-CC-PVTZ-RI
    Molecular point group: c1

    Geometry (in Angstrom), charge = 0, multiplicity = 1:

       Center              X                  Y                   Z               Mass
    ------------   -----------------  -----------------  -----------------  -----------------
         O            0.392791823462     1.303081929001    -0.000780768621    15.994914619570
         C           -0.682359176538    -0.845211070999    -0.002021768621    12.000000000000
         C            0.416350423462     0.201883729001    -0.000267368621    12.000000000000
         C           -2.009211176538    -0.100589070999     0.001668231379    12.000000000000
         C            1.883796823462    -0.575358070999     0.001183231379    12.000000000000
         H           -0.599779176538    -1.503743070999    -0.877212768621     1.007825032230
         H           -0.597837176538    -1.509434070999     0.868646231379     1.007825032230
         H           -2.845898176538    -0.804030070999     0.000161231379     1.007825032230
         H           -2.092700176538     0.542775929001    -0.876323768621     1.007825032230
         H           -2.091133176538     0.537003929001     0.884034231379     1.007825032230
         H            1.997105823462    -1.220963070999    -0.875716768621     1.007825032230
         H            2.657144823462     0.193457929001    -0.005416768621     1.007825032230
         H            1.999813823462    -1.207548070999     0.887524231379     1.007825032230

  Basis Set: AUG-CC-PVTZ
    Blend: AUG-CC-PVTZ
  Basis Set: (AUG-CC-PVTZ AUX)
    Blend: AUG-CC-PVTZ-JKFIT
	 Reference Energy          =    -231.0563385753756620 [Eh]
	 Singles Energy            =      -0.0000000000000000 [Eh]
	 Same-Spin Energy          =      -0.2274083737694043 [Eh]
	 Opposite-Spin Energy      =      -0.7868845069751720 [Eh]
	 Correlation Energy        =      -1.0142928807445764 [Eh]
	 Total Energy              =    -232.0706314561202248 [Eh]

	 ================> DF-SCS-MP2 Energies <==================
	-----------------------------------------------------------
	 SCS Same-Spin Scale       =       0.3333333333333333 [-]
	 SCS Opposite-Spin Scale   =       1.2000000000000000 [-]
	 SCS Same-Spin Energy      =      -0.0758027912564681 [Eh]
	 SCS Opposite-Spin Energy  =      -0.9442614083702063 [Eh]
	 SCS Correlation Energy    =      -1.0200641996266744 [Eh]
	 SCS Total Energy          =    -232.0764027750023502 [Eh]
	-----------------------------------------------------------

  Dipole Moment: [D]
     X:    -0.4642      Y:    -2.1421      Z:    -0.0001     Total:     2.1919

*** Psi4 exiting successfully. Buy a developer a beer!
