                               Psi4 1.3.2 release

  ==> Input File <==

--------------------------------------------------------------------------
#psi4
#
memory 32 gb

molecule  {
0 1
  O        0.3967640     1.3827560    -0.0007810
  C       -0.6783870    -0.7655370    -0.0020220
  C        0.5854569     0.0748624    -0.0010565
  C       -2.0052390    -0.0209150     0.0016680
  C        1.8877690    -0.4956840     0.0011830
  H       -0.5958070    -1.4240690    -0.8772130
  H       -0.5938650    -1.4297600     0.8686460
  H       -2.8419260    -0.7243560     0.0001610
  H       -2.0887280     0.6224500    -0.8763240
  H       -2.0871610     0.6166780     0.8840340
  H        2.0010780    -1.1412890    -0.8757170
  H        2.6611170     0.2731320    -0.0054170
  H        2.0037860    -1.1278740     0.8875240
units angstrom
no_reorient  #important for SAPT in psi4, default
symmetry c1  #important for SAPT in psi4, default
}

set PROPERTIES_ORIGIN ["COM"]
properties('MP2/aug-cc-pvtz', properties = ['dipole'])
--------------------------------------------------------------------------

    Molecular point group: c1
  Charge       = 0
  Multiplicity = 1
  Basis Set: AUG-CC-PVTZ
    Blend: AUG-CC-PVTZ
  Basis Set: (AUG-CC-PVTZ AUX)
    Blend: AUG-CC-PVTZ-JKFIT

    Orbital Energies [Eh]
    ---------------------

    Doubly Occupied:

       1A    -20.536262     2A    -11.339579     3A    -11.245960
       4A    -11.241747     5A    -11.217869     6A     -1.318128
       7A     -1.072956     8A     -1.022329     9A     -0.881532
      10A     -0.733514    11A     -0.649129    12A     -0.642100
      13A     -0.620146    14A     -0.591531    15A     -0.557454
      16A     -0.522275    17A     -0.503255    18A     -0.502333
      19A     -0.447374    20A     -0.419373

  @DF-RHF Final Energy:  -231.05670753691797

   => Energetics <=

    Nuclear Repulsion Energy =            175.2089793010337928
    One-Electron Energy =                -660.4016805798514724
    Two-Electron Energy =                 254.1359937418997390
    Total Energy =                       -231.0567075369179690
  Basis Set: (AUG-CC-PVTZ AUX)
    Blend: AUG-CC-PVTZ-RI
    Molecular point group: c1

    Geometry (in Angstrom), charge = 0, multiplicity = 1:

       Center              X                  Y                   Z               Mass
    ------------   -----------------  -----------------  -----------------  -----------------
         O            0.365291407948     1.337503665640    -0.000649390235    15.994914619570
         C           -0.709859592052    -0.810789334360    -0.001890390235    12.000000000000
         C            0.553984307948     0.029610065640    -0.000924890235    12.000000000000
         C           -2.036711592052    -0.066167334360     0.001799609765    12.000000000000
         C            1.856296407948    -0.540936334360     0.001314609765    12.000000000000
         H           -0.627279592052    -1.469321334360    -0.877081390235     1.007825032230
         H           -0.625337592052    -1.475012334360     0.868777609765     1.007825032230
         H           -2.873398592052    -0.769608334360     0.000292609765     1.007825032230
         H           -2.120200592052     0.577197665640    -0.876192390235     1.007825032230
         H           -2.118633592052     0.571425665640     0.884165609765     1.007825032230
         H            1.969605407948    -1.186541334360    -0.875585390235     1.007825032230
         H            2.629644407948     0.227879665640    -0.005285390235     1.007825032230
         H            1.972313407948    -1.173126334360     0.887655609765     1.007825032230

  Basis Set: AUG-CC-PVTZ
    Blend: AUG-CC-PVTZ
  Basis Set: (AUG-CC-PVTZ AUX)
    Blend: AUG-CC-PVTZ-JKFIT
	 Reference Energy          =    -231.0567075369179690 [Eh]
	 Singles Energy            =      -0.0000000000000000 [Eh]
	 Same-Spin Energy          =      -0.2333234179154084 [Eh]
	 Opposite-Spin Energy      =      -0.7986237180307032 [Eh]
	 Correlation Energy        =      -1.0319471359461116 [Eh]
	 Total Energy              =    -232.0886546728640667 [Eh]

	 ================> DF-SCS-MP2 Energies <==================
	-----------------------------------------------------------
	 SCS Same-Spin Scale       =       0.3333333333333333 [-]
	 SCS Opposite-Spin Scale   =       1.2000000000000000 [-]
	 SCS Same-Spin Energy      =      -0.0777744726384695 [Eh]
	 SCS Opposite-Spin Energy  =      -0.9583484616368438 [Eh]
	 SCS Correlation Energy    =      -1.0361229342753133 [Eh]
	 SCS Total Energy          =    -232.0928304711932810 [Eh]
	-----------------------------------------------------------

  Dipole Moment: [D]
     X:     0.4851      Y:    -3.1739      Z:     0.0017     Total:     3.2107

*** Psi4 exiting successfully. Buy a developer a beer!
