                               Psi4 1.3.2 release

  ==> Input File <==

--------------------------------------------------------------------------
#psi4
#
memory 32 gb

molecule  {
0 1
  O        0.3967640     1.3827560    -0.0007810
  C       -0.6783870    -0.7655370    -0.0020220
  C        0.4561964     0.2425757    -0.0004218
  C       -2.0052390    -0.0209150     0.0016680
  C        1.8877690    -0.4956840     0.0011830
  H       -0.5958070    -1.4240690    -0.8772130
  H       -0.5938650    -1.4297600     0.8686460
  H       -2.8419260    -0.7243560     0.0001610
  H       -2.0887280     0.6224500    -0.8763240
  H       -2.0871610     0.6166780     0.8840340
  H        2.0010780    -1.1412890    -0.8757170
  H        2.6611170     0.2731320    -0.0054170
  H        2.0037860    -1.1278740     0.8875240
units angstrom
no_reorient  #important for SAPT in psi4, default
symmetry c1  #important for SAPT in psi4, default
}

set PROPERTIES_ORIGIN ["COM"]
properties('MP2/aug-cc-pvtz', properties = ['dipole'])
--------------------------------------------------------------------------

    Molecular point group: c1
  Charge       = 0
  Multiplicity = 1
  Basis Set: AUG-CC-PVTZ
    Blend: AUG-CC-PVTZ
  Basis Set: (AUG-CC-PVTZ AUX)
    Blend: AUG-CC-PVTZ-JKFIT

    Orbital Energies [Eh]
    ---------------------

    Doubly Occupied:

       1A    -20.552594     2A    -11.325964     3A    -11.238956
       4A    -11.226769     5A    -11.217115     6A     -1.439338
       7A     -1.061134     8A     -0.976867     9A     -0.872773
      10A     -0.735436    11A     -0.669644    12A     -0.641493
      13A     -0.626841    14A     -0.574878    15A     -0.568878
      16A     -0.525156    17A     -0.523707    18A     -0.513562
      19A     -0.497335    20A     -0.391125

  @DF-RHF Final Energy:  -231.07458010825090

   => Energetics <=

    Nuclear Repulsion Energy =            176.7304241181434179
    One-Electron Energy =                -663.2508789250613290
    Two-Electron Energy =                 255.4458746986669837
    Total Energy =                       -231.0745801082508990
  Basis Set: (AUG-CC-PVTZ AUX)
    Blend: AUG-CC-PVTZ-RI
    Molecular point group: c1

    Geometry (in Angstrom), charge = 0, multiplicity = 1:

       Center              X                  Y                   Z               Mass
    ------------   -----------------  -----------------  -----------------  -----------------
         O            0.386817629088     1.309573759878    -0.000755089134    15.994914619570
         C           -0.688333370912    -0.838719240122    -0.001996089134    12.000000000000
         C            0.446250029088     0.169393459878    -0.000395889134    12.000000000000
         C           -2.015185370912    -0.094097240122     0.001693910866    12.000000000000
         C            1.877822629088    -0.568866240122     0.001208910866    12.000000000000
         H           -0.605753370912    -1.497251240122    -0.877187089134     1.007825032230
         H           -0.603811370912    -1.502942240122     0.868671910866     1.007825032230
         H           -2.851872370912    -0.797538240122     0.000186910866     1.007825032230
         H           -2.098674370912     0.549267759878    -0.876298089134     1.007825032230
         H           -2.097107370912     0.543495759878     0.884059910866     1.007825032230
         H            1.991131629088    -1.214471240122    -0.875691089134     1.007825032230
         H            2.651170629088     0.199949759878    -0.005391089134     1.007825032230
         H            1.993839629088    -1.201056240122     0.887549910866     1.007825032230

  Basis Set: AUG-CC-PVTZ
    Blend: AUG-CC-PVTZ
  Basis Set: (AUG-CC-PVTZ AUX)
    Blend: AUG-CC-PVTZ-JKFIT
	 Reference Energy          =    -231.0745801082508990 [Eh]
	 Singles Energy            =      -0.0000000000000000 [Eh]
	 Same-Spin Energy          =      -0.2280042367489267 [Eh]
	 Opposite-Spin Energy      =      -0.7881697435788153 [Eh]
	 Correlation Energy        =      -1.0161739803277421 [Eh]
	 Total Energy              =    -232.0907540885786489 [Eh]

	 ================> DF-SCS-MP2 Energies <==================
	-----------------------------------------------------------
	 SCS Same-Spin Scale       =       0.3333333333333333 [-]
	 SCS Opposite-Spin Scale   =       1.2000000000000000 [-]
	 SCS Same-Spin Energy      =      -0.0760014122496422 [Eh]
	 SCS Opposite-Spin Energy  =      -0.9458036922945783 [Eh]
	 SCS Correlation Energy    =      -1.0218051045442205 [Eh]
	 SCS Total Energy          =    -232.0963852127951270 [Eh]
	-----------------------------------------------------------

  Dipole Moment: [D]
     X:    -0.1879      Y:    -2.3978      Z:     0.0003     Total:     2.4052

*** Psi4 exiting successfully. Buy a developer a beer!
