                               Psi4 1.3.2 release

  ==> Input File <==

--------------------------------------------------------------------------
#psi4
#
memory 32 gb

molecule  {
0 1
  O        0.3967640     1.3827560    -0.0007810
  C       -0.6783870    -0.7655370    -0.0020220
  C        0.4906879     0.2023655    -0.0005780
  C       -2.0052390    -0.0209150     0.0016680
  C        1.8877690    -0.4956840     0.0011830
  H       -0.5958070    -1.4240690    -0.8772130
  H       -0.5938650    -1.4297600     0.8686460
  H       -2.8419260    -0.7243560     0.0001610
  H       -2.0887280     0.6224500    -0.8763240
  H       -2.0871610     0.6166780     0.8840340
  H        2.0010780    -1.1412890    -0.8757170
  H        2.6611170     0.2731320    -0.0054170
  H        2.0037860    -1.1278740     0.8875240
units angstrom
no_reorient  #important for SAPT in psi4, default
symmetry c1  #important for SAPT in psi4, default
}

set PROPERTIES_ORIGIN ["COM"]
properties('MP2/aug-cc-pvtz', properties = ['dipole'])
--------------------------------------------------------------------------

    Molecular point group: c1
  Charge       = 0
  Multiplicity = 1
  Basis Set: AUG-CC-PVTZ
    Blend: AUG-CC-PVTZ
  Basis Set: (AUG-CC-PVTZ AUX)
    Blend: AUG-CC-PVTZ-JKFIT

    Orbital Energies [Eh]
    ---------------------

    Doubly Occupied:

       1A    -20.548426     2A    -11.328712     3A    -11.239684
       4A    -11.232323     5A    -11.216843     6A     -1.406494
       7A     -1.061569     8A     -0.989200     9A     -0.874629
      10A     -0.733054    11A     -0.661057    12A     -0.639260
      13A     -0.622312    14A     -0.577690    15A     -0.570119
      16A     -0.521636    17A     -0.513197    18A     -0.511185
      19A     -0.492828    20A     -0.403397

  @DF-RHF Final Energy:  -231.08315369242783

   => Energetics <=

    Nuclear Repulsion Energy =            176.2759628140941004
    One-Electron Energy =                -662.4310018242744036
    Two-Electron Energy =                 255.0718853177524750
    Total Energy =                       -231.0831536924278282
  Basis Set: (AUG-CC-PVTZ AUX)
    Blend: AUG-CC-PVTZ-RI
    Molecular point group: c1

    Geometry (in Angstrom), charge = 0, multiplicity = 1:

       Center              X                  Y                   Z               Mass
    ------------   -----------------  -----------------  -----------------  -----------------
         O            0.381073634159     1.316270110714    -0.000729076580    15.994914619570
         C           -0.694077365841    -0.832022889286    -0.001970076580    12.000000000000
         C            0.474997534159     0.135879610714    -0.000526076580    12.000000000000
         C           -2.020929365841    -0.087400889286     0.001719923420    12.000000000000
         C            1.872078634159    -0.562169889286     0.001234923420    12.000000000000
         H           -0.611497365841    -1.490554889286    -0.877161076580     1.007825032230
         H           -0.609555365841    -1.496245889286     0.868697923420     1.007825032230
         H           -2.857616365841    -0.790841889286     0.000212923420     1.007825032230
         H           -2.104418365841     0.555964110714    -0.876272076580     1.007825032230
         H           -2.102851365841     0.550192110714     0.884085923420     1.007825032230
         H            1.985387634159    -1.207774889286    -0.875665076580     1.007825032230
         H            2.645426634159     0.206646110714    -0.005365076580     1.007825032230
         H            1.988095634159    -1.194359889286     0.887575923420     1.007825032230

  Basis Set: AUG-CC-PVTZ
    Blend: AUG-CC-PVTZ
  Basis Set: (AUG-CC-PVTZ AUX)
    Blend: AUG-CC-PVTZ-JKFIT
	 Reference Energy          =    -231.0831536924278282 [Eh]
	 Singles Energy            =      -0.0000000000000000 [Eh]
	 Same-Spin Energy          =      -0.2288820663920694 [Eh]
	 Opposite-Spin Energy      =      -0.7899723360808640 [Eh]
	 Correlation Energy        =      -1.0188544024729334 [Eh]
	 Total Energy              =    -232.1020080949007536 [Eh]

	 ================> DF-SCS-MP2 Energies <==================
	-----------------------------------------------------------
	 SCS Same-Spin Scale       =       0.3333333333333333 [-]
	 SCS Opposite-Spin Scale   =       1.2000000000000000 [-]
	 SCS Same-Spin Energy      =      -0.0762940221306898 [Eh]
	 SCS Opposite-Spin Energy  =      -0.9479668032970368 [Eh]
	 SCS Correlation Energy    =      -1.0242608254277266 [Eh]
	 SCS Total Energy          =    -232.1074145178555455 [Eh]
	-----------------------------------------------------------

  Dipole Moment: [D]
     X:     0.0353      Y:    -2.6283      Z:     0.0006     Total:     2.6286

*** Psi4 exiting successfully. Buy a developer a beer!
