                               Psi4 1.3.2 release

  ==> Input File <==

--------------------------------------------------------------------------
#psi4
#
memory 32 gb

molecule  {
0 1
  O        0.3967640     1.3827560    -0.0007810
  C       -0.6783870    -0.7655370    -0.0020220
  C        0.5237550     0.1609760    -0.0007360
  C       -2.0052390    -0.0209150     0.0016680
  C        1.8877690    -0.4956840     0.0011830
  H       -0.5958070    -1.4240690    -0.8772130
  H       -0.5938650    -1.4297600     0.8686460
  H       -2.8419260    -0.7243560     0.0001610
  H       -2.0887280     0.6224500    -0.8763240
  H       -2.0871610     0.6166780     0.8840340
  H        2.0010780    -1.1412890    -0.8757170
  H        2.6611170     0.2731320    -0.0054170
  H        2.0037860    -1.1278740     0.8875240
units angstrom
no_reorient  #important for SAPT in psi4, default
symmetry c1  #important for SAPT in psi4, default
}

set PROPERTIES_ORIGIN ["COM"]
properties('MP2/aug-cc-pvtz', properties = ['dipole'])
--------------------------------------------------------------------------

    Molecular point group: c1
  Charge       = 0
  Multiplicity = 1
  Basis Set: AUG-CC-PVTZ
    Blend: AUG-CC-PVTZ
  Basis Set: (AUG-CC-PVTZ AUX)
    Blend: AUG-CC-PVTZ-JKFIT

    Orbital Energies [Eh]
    ---------------------

    Doubly Occupied:

       1A    -20.544580     2A    -11.332116     3A    -11.241213
       4A    -11.236451     5A    -11.216950     6A     -1.375132
       7A     -1.063436     8A     -1.001253     9A     -0.876733
      10A     -0.732094    11A     -0.654977    12A     -0.638851
      13A     -0.619454    14A     -0.582015    15A     -0.568676
      16A     -0.518155    17A     -0.513298    18A     -0.504548
      19A     -0.481041    20A     -0.412406

  @DF-RHF Final Energy:  -231.08258532305470

   => Energetics <=

    Nuclear Repulsion Energy =            175.8690111516952186
    One-Electron Energy =                -661.6764321630281529
    Two-Electron Energy =                 254.7248356882782616
    Total Energy =                       -231.0825853230547011
  Basis Set: (AUG-CC-PVTZ AUX)
    Blend: AUG-CC-PVTZ-RI
    Molecular point group: c1

    Geometry (in Angstrom), charge = 0, multiplicity = 1:

       Center              X                  Y                   Z               Mass
    ------------   -----------------  -----------------  -----------------  -----------------
         O            0.375566849743     1.323162854668    -0.000702764266    15.994914619570
         C           -0.699584150257    -0.825130145332    -0.001943764266    12.000000000000
         C            0.502557849743     0.101382854668    -0.000657764266    12.000000000000
         C           -2.026436150257    -0.080508145332     0.001746235734    12.000000000000
         C            1.866571849743    -0.555277145332     0.001261235734    12.000000000000
         H           -0.617004150257    -1.483662145332    -0.877134764266     1.007825032230
         H           -0.615062150257    -1.489353145332     0.868724235734     1.007825032230
         H           -2.863123150257    -0.783949145332     0.000239235734     1.007825032230
         H           -2.109925150257     0.562856854668    -0.876245764266     1.007825032230
         H           -2.108358150257     0.557084854668     0.884112235734     1.007825032230
         H            1.979880849743    -1.200882145332    -0.875638764266     1.007825032230
         H            2.639919849743     0.213538854668    -0.005338764266     1.007825032230
         H            1.982588849743    -1.187467145332     0.887602235734     1.007825032230

  Basis Set: AUG-CC-PVTZ
    Blend: AUG-CC-PVTZ
  Basis Set: (AUG-CC-PVTZ AUX)
    Blend: AUG-CC-PVTZ-JKFIT
	 Reference Energy          =    -231.0825853230547011 [Eh]
	 Singles Energy            =      -0.0000000000000000 [Eh]
	 Same-Spin Energy          =      -0.2300628006026981 [Eh]
	 Opposite-Spin Energy      =      -0.7923301616420595 [Eh]
	 Correlation Energy        =      -1.0223929622447576 [Eh]
	 Total Energy              =    -232.1049782852994667 [Eh]

	 ================> DF-SCS-MP2 Energies <==================
	-----------------------------------------------------------
	 SCS Same-Spin Scale       =       0.3333333333333333 [-]
	 SCS Opposite-Spin Scale   =       1.2000000000000000 [-]
	 SCS Same-Spin Energy      =      -0.0766876002008994 [Eh]
	 SCS Opposite-Spin Energy  =      -0.9507961939704713 [Eh]
	 SCS Correlation Energy    =      -1.0274837941713706 [Eh]
	 SCS Total Energy          =    -232.1100691172260611 [Eh]
	-----------------------------------------------------------

  Dipole Moment: [D]
     X:     0.2154      Y:    -2.8338      Z:     0.0009     Total:     2.8420

*** Psi4 exiting successfully. Buy a developer a beer!
