                               Psi4 1.3.2 release

  ==> Input File <==

--------------------------------------------------------------------------
#psi4
#
memory 32 gb

molecule  {
0 1
  O        0.3967640     1.3827560    -0.0007810
  C       -0.6783870    -0.7655370    -0.0020220
  C        0.5074020     0.1818150    -0.0006568
  C       -2.0052390    -0.0209150     0.0016680
  C        1.8877690    -0.4956840     0.0011830
  H       -0.5958070    -1.4240690    -0.8772130
  H       -0.5938650    -1.4297600     0.8686460
  H       -2.8419260    -0.7243560     0.0001610
  H       -2.0887280     0.6224500    -0.8763240
  H       -2.0871610     0.6166780     0.8840340
  H        2.0010780    -1.1412890    -0.8757170
  H        2.6611170     0.2731320    -0.0054170
  H        2.0037860    -1.1278740     0.8875240
units angstrom
no_reorient  #important for SAPT in psi4, default
symmetry c1  #important for SAPT in psi4, default
}

set PROPERTIES_ORIGIN ["COM"]
properties('MP2/aug-cc-pvtz', properties = ['dipole'])
--------------------------------------------------------------------------

    Molecular point group: c1
  Charge       = 0
  Multiplicity = 1
  Basis Set: AUG-CC-PVTZ
    Blend: AUG-CC-PVTZ
  Basis Set: (AUG-CC-PVTZ AUX)
    Blend: AUG-CC-PVTZ-JKFIT

    Orbital Energies [Eh]
    ---------------------

    Doubly Occupied:

       1A    -20.546489     2A    -11.330354     3A    -11.240361
       4A    -11.234545     5A    -11.216856     6A     -1.390606
       7A     -1.062307     8A     -0.995286     9A     -0.875652
      10A     -0.732411    11A     -0.657710    12A     -0.638859
      13A     -0.620636    14A     -0.579759    15A     -0.569781
      16A     -0.519784    17A     -0.513280    18A     -0.506918
      19A     -0.487929    20A     -0.408345

  @DF-RHF Final Energy:  -231.08397254330981

   => Energetics <=

    Nuclear Repulsion Energy =            176.0662791041680180
    One-Electron Energy =                -662.0447626929457101
    Two-Electron Energy =                 254.8945110454678797
    Total Energy =                       -231.0839725433098124
  Basis Set: (AUG-CC-PVTZ AUX)
    Blend: AUG-CC-PVTZ-RI
    Molecular point group: c1

    Geometry (in Angstrom), charge = 0, multiplicity = 1:

       Center              X                  Y                   Z               Mass
    ------------   -----------------  -----------------  -----------------  -----------------
         O            0.378290174303     1.319692460214    -0.000715953730    15.994914619570
         C           -0.696860825697    -0.828600539786    -0.001956953730    12.000000000000
         C            0.488928174303     0.118751460214    -0.000591753730    12.000000000000
         C           -2.023712825697    -0.083978539786     0.001733046270    12.000000000000
         C            1.869295174303    -0.558747539786     0.001248046270    12.000000000000
         H           -0.614280825697    -1.487132539786    -0.877147953730     1.007825032230
         H           -0.612338825697    -1.492823539786     0.868711046270     1.007825032230
         H           -2.860399825697    -0.787419539786     0.000226046270     1.007825032230
         H           -2.107201825697     0.559386460214    -0.876258953730     1.007825032230
         H           -2.105634825697     0.553614460214     0.884099046270     1.007825032230
         H            1.982604174303    -1.204352539786    -0.875651953730     1.007825032230
         H            2.642643174303     0.210068460214    -0.005351953730     1.007825032230
         H            1.985312174303    -1.190937539786     0.887589046270     1.007825032230

  Basis Set: AUG-CC-PVTZ
    Blend: AUG-CC-PVTZ
  Basis Set: (AUG-CC-PVTZ AUX)
    Blend: AUG-CC-PVTZ-JKFIT
	 Reference Energy          =    -231.0839725433098124 [Eh]
	 Singles Energy            =      -0.0000000000000000 [Eh]
	 Same-Spin Energy          =      -0.2294339868975739 [Eh]
	 Opposite-Spin Energy      =      -0.7910813433797155 [Eh]
	 Correlation Energy        =      -1.0205153302772894 [Eh]
	 Total Energy              =    -232.1044878735870896 [Eh]

	 ================> DF-SCS-MP2 Energies <==================
	-----------------------------------------------------------
	 SCS Same-Spin Scale       =       0.3333333333333333 [-]
	 SCS Opposite-Spin Scale   =       1.2000000000000000 [-]
	 SCS Same-Spin Energy      =      -0.0764779956325246 [Eh]
	 SCS Opposite-Spin Energy  =      -0.9492976120556585 [Eh]
	 SCS Correlation Energy    =      -1.0257756076881832 [Eh]
	 SCS Total Energy          =    -232.1097481509980014 [Eh]
	-----------------------------------------------------------

  Dipole Moment: [D]
     X:     0.1301      Y:    -2.7341      Z:     0.0008     Total:     2.7372

*** Psi4 exiting successfully. Buy a developer a beer!
