                               Psi4 1.3.2 release

  ==> Input File <==

--------------------------------------------------------------------------
#psi4
#
memory 32 gb

molecule  {
0 1
  O        0.3967640     1.3827560    -0.0007810
  C       -0.6783870    -0.7655370    -0.0020220
  C        0.5397418     0.1398547    -0.0008156
  C       -2.0052390    -0.0209150     0.0016680
  C        1.8877690    -0.4956840     0.0011830
  H       -0.5958070    -1.4240690    -0.8772130
  H       -0.5938650    -1.4297600     0.8686460
  H       -2.8419260    -0.7243560     0.0001610
  H       -2.0887280     0.6224500    -0.8763240
  H       -2.0871610     0.6166780     0.8840340
  H        2.0010780    -1.1412890    -0.8757170
  H        2.6611170     0.2731320    -0.0054170
  H        2.0037860    -1.1278740     0.8875240
units angstrom
no_reorient  #important for SAPT in psi4, default
symmetry c1  #important for SAPT in psi4, default
}

set PROPERTIES_ORIGIN ["COM"]
properties('MP2/aug-cc-pvtz', properties = ['dipole'])
--------------------------------------------------------------------------

    Molecular point group: c1
  Charge       = 0
  Multiplicity = 1
  Basis Set: AUG-CC-PVTZ
    Blend: AUG-CC-PVTZ
  Basis Set: (AUG-CC-PVTZ AUX)
    Blend: AUG-CC-PVTZ-JKFIT

    Orbital Energies [Eh]
    ---------------------

    Doubly Occupied:

       1A    -20.542647     2A    -11.333955     3A    -11.242217
       4A    -11.238084     5A    -11.217109     6A     -1.360112
       7A     -1.065007     8A     -1.007031     9A     -0.877867
      10A     -0.732072    11A     -0.652817    12A     -0.639192
      13A     -0.618824    14A     -0.584366    15A     -0.566783
      16A     -0.517568    17A     -0.512416    18A     -0.503346
      19A     -0.473028    20A     -0.415539

  @DF-RHF Final Energy:  -231.07907796644375

   => Energetics <=

    Nuclear Repulsion Energy =            175.6845056481639915
    One-Electron Energy =                -661.3272039344889208
    Two-Electron Energy =                 254.5636203198812098
    Total Energy =                       -231.0790779664437480
  Basis Set: (AUG-CC-PVTZ AUX)
    Blend: AUG-CC-PVTZ-RI
    Molecular point group: c1

    Geometry (in Angstrom), charge = 0, multiplicity = 1:

       Center              X                  Y                   Z               Mass
    ------------   -----------------  -----------------  -----------------  -----------------
         O            0.372904509801     1.326680261567    -0.000689508188    15.994914619570
         C           -0.702246490199    -0.821612738433    -0.001930508188    12.000000000000
         C            0.515882309801     0.083778961567    -0.000724108188    12.000000000000
         C           -2.029098490199    -0.076990738433     0.001759491812    12.000000000000
         C            1.863909509801    -0.551759738433     0.001274491812    12.000000000000
         H           -0.619666490199    -1.480144738433    -0.877121508188     1.007825032230
         H           -0.617724490199    -1.485835738433     0.868737491812     1.007825032230
         H           -2.865785490199    -0.780431738433     0.000252491812     1.007825032230
         H           -2.112587490199     0.566374261567    -0.876232508188     1.007825032230
         H           -2.111020490199     0.560602261567     0.884125491812     1.007825032230
         H            1.977218509801    -1.197364738433    -0.875625508188     1.007825032230
         H            2.637257509801     0.217056261567    -0.005325508188     1.007825032230
         H            1.979926509801    -1.183949738433     0.887615491812     1.007825032230

  Basis Set: AUG-CC-PVTZ
    Blend: AUG-CC-PVTZ
  Basis Set: (AUG-CC-PVTZ AUX)
    Blend: AUG-CC-PVTZ-JKFIT
	 Reference Energy          =    -231.0790779664437480 [Eh]
	 Singles Energy            =      -0.0000000000000000 [Eh]
	 Same-Spin Energy          =      -0.2307682495210450 [Eh]
	 Opposite-Spin Energy      =      -0.7937160514087218 [Eh]
	 Correlation Energy        =      -1.0244843009297668 [Eh]
	 Total Energy              =    -232.1035622673735190 [Eh]

	 ================> DF-SCS-MP2 Energies <==================
	-----------------------------------------------------------
	 SCS Same-Spin Scale       =       0.3333333333333333 [-]
	 SCS Opposite-Spin Scale   =       1.2000000000000000 [-]
	 SCS Same-Spin Energy      =      -0.0769227498403483 [Eh]
	 SCS Opposite-Spin Energy  =      -0.9524592616904661 [Eh]
	 SCS Correlation Energy    =      -1.0293820115308145 [Eh]
	 SCS Total Energy          =    -232.1084599779745758 [Eh]
	-----------------------------------------------------------

  Dipole Moment: [D]
     X:     0.2924      Y:    -2.9274      Z:     0.0011     Total:     2.9419

*** Psi4 exiting successfully. Buy a developer a beer!
