                               Psi4 1.3.2 release

  ==> Input File <==

--------------------------------------------------------------------------
#psi4
#
memory 32 gb

molecule  {
0 1
  O        0.3967640     1.3827560    -0.0007810
  C       -0.6783870    -0.7655370    -0.0020220
  C        0.5553575     0.1184577    -0.0008955
  C       -2.0052390    -0.0209150     0.0016680
  C        1.8877690    -0.4956840     0.0011830
  H       -0.5958070    -1.4240690    -0.8772130
  H       -0.5938650    -1.4297600     0.8686460
  H       -2.8419260    -0.7243560     0.0001610
  H       -2.0887280     0.6224500    -0.8763240
  H       -2.0871610     0.6166780     0.8840340
  H        2.0010780    -1.1412890    -0.8757170
  H        2.6611170     0.2731320    -0.0054170
  H        2.0037860    -1.1278740     0.8875240
units angstrom
no_reorient  #important for SAPT in psi4, default
symmetry c1  #important for SAPT in psi4, default
}

set PROPERTIES_ORIGIN ["COM"]
properties('MP2/aug-cc-pvtz', properties = ['dipole'])
--------------------------------------------------------------------------

    Molecular point group: c1
  Charge       = 0
  Multiplicity = 1
  Basis Set: AUG-CC-PVTZ
    Blend: AUG-CC-PVTZ
  Basis Set: (AUG-CC-PVTZ AUX)
    Blend: AUG-CC-PVTZ-JKFIT

    Orbital Energies [Eh]
    ---------------------

    Doubly Occupied:

       1A    -20.540645     2A    -11.335835     3A    -11.243353
       4A    -11.239485     5A    -11.217323     6A     -1.345582
       7A     -1.067078     8A     -1.012533     9A     -0.879047
      10A     -0.732318    11A     -0.651167    12A     -0.639857
      13A     -0.618760    14A     -0.586756    15A     -0.564171
      16A     -0.518413    17A     -0.510180    18A     -0.502737
      19A     -0.464552    20A     -0.417727

  @DF-RHF Final Energy:  -231.07353810447469

   => Energetics <=

    Nuclear Repulsion Energy =            175.5129699979241025
    One-Electron Energy =                -660.9979766328401638
    Two-Electron Energy =                 254.4114685304413968
    Total Energy =                       -231.0735381044746930
  Basis Set: (AUG-CC-PVTZ AUX)
    Blend: AUG-CC-PVTZ-RI
    Molecular point group: c1

    Geometry (in Angstrom), charge = 0, multiplicity = 1:

       Center              X                  Y                   Z               Mass
    ------------   -----------------  -----------------  -----------------  -----------------
         O            0.370303970491     1.330243581791    -0.000676202151    15.994914619570
         C           -0.704847029509    -0.818049418209    -0.001917202151    12.000000000000
         C            0.528897470491     0.065945281791    -0.000790702151    12.000000000000
         C           -2.031699029509    -0.073427418209     0.001772797849    12.000000000000
         C            1.861308970491    -0.548196418209     0.001287797849    12.000000000000
         H           -0.622267029509    -1.476581418209    -0.877108202151     1.007825032230
         H           -0.620325029509    -1.482272418209     0.868750797849     1.007825032230
         H           -2.868386029509    -0.776868418209     0.000265797849     1.007825032230
         H           -2.115188029509     0.569937581791    -0.876219202151     1.007825032230
         H           -2.113621029509     0.564165581791     0.884138797849     1.007825032230
         H            1.974617970491    -1.193801418209    -0.875612202151     1.007825032230
         H            2.634656970491     0.220619581791    -0.005312202151     1.007825032230
         H            1.977325970491    -1.180386418209     0.887628797849     1.007825032230

  Basis Set: AUG-CC-PVTZ
    Blend: AUG-CC-PVTZ
  Basis Set: (AUG-CC-PVTZ AUX)
    Blend: AUG-CC-PVTZ-JKFIT
	 Reference Energy          =    -231.0735381044746930 [Eh]
	 Singles Energy            =      -0.0000000000000000 [Eh]
	 Same-Spin Energy          =      -0.2315488781420509 [Eh]
	 Opposite-Spin Energy      =      -0.7952332610652895 [Eh]
	 Correlation Energy        =      -1.0267821392073404 [Eh]
	 Total Energy              =    -232.1003202436820345 [Eh]

	 ================> DF-SCS-MP2 Energies <==================
	-----------------------------------------------------------
	 SCS Same-Spin Scale       =       0.3333333333333333 [-]
	 SCS Opposite-Spin Scale   =       1.2000000000000000 [-]
	 SCS Same-Spin Energy      =      -0.0771829593806836 [Eh]
	 SCS Opposite-Spin Energy  =      -0.9542799132783473 [Eh]
	 SCS Correlation Energy    =      -1.0314628726590309 [Eh]
	 SCS Total Energy          =    -232.1050009771337272 [Eh]
	-----------------------------------------------------------

  Dipole Moment: [D]
     X:     0.3624      Y:    -3.0151      Z:     0.0013     Total:     3.0368

*** Psi4 exiting successfully. Buy a developer a beer!
