                               Psi4 1.3.2 release

  ==> Input File <==

--------------------------------------------------------------------------
#psi4
#
memory 32 gb

molecule  {
0 1
  N       -1.5631460    -1.0786450     0.0000020
  C        0.9814170     1.4318910     0.0000000
  C        2.1554110     0.6922200     0.0000020
  C        2.1326810    -0.7203310    -0.0000050
  C        0.9343870    -1.4220840     0.0000000
  C       -0.2980291    -0.5354767    -0.0000008
  C       -0.2522510     0.7528300     0.0000150
  C       -1.6207120     1.1681210    -0.0000080
  C       -2.3885810     0.0265560    -0.0000050
  H        1.0121500     2.5200250     0.0000050
  H        3.1140070     1.2059840    -0.0000050
  H        3.0718340    -1.2688090    -0.0000050
  H        0.9183210    -2.5105470    -0.0000040
  H       -1.9975130     2.1830700    -0.0000130
  H       -1.8769340    -2.0399470     0.0000180
  H       -3.4648550    -0.0903210     0.0000040
units angstrom
no_reorient  #important for SAPT in psi4, default
symmetry c1  #important for SAPT in psi4, default
}

set PROPERTIES_ORIGIN ["COM"]
properties('MP2/aug-cc-pvtz', properties = ['dipole'])
--------------------------------------------------------------------------

    Molecular point group: c1
  Charge       = 0
  Multiplicity = 1
  Basis Set: AUG-CC-PVTZ
    Blend: AUG-CC-PVTZ
  Basis Set: (AUG-CC-PVTZ AUX)
    Blend: AUG-CC-PVTZ-JKFIT

    Orbital Energies [Eh]
    ---------------------

    Doubly Occupied:

       1A    -15.601034     2A    -11.266608     3A    -11.261515
       4A    -11.243770     5A    -11.235406     6A    -11.231557
       7A    -11.224666     8A    -11.215253     9A    -11.210060
      10A     -1.302147    11A     -1.133283    12A     -1.057757
      13A     -0.992172    14A     -0.973792    15A     -0.845927
      16A     -0.799586    17A     -0.787278    18A     -0.732153
      19A     -0.663823    20A     -0.647609    21A     -0.608911
      22A     -0.589141    23A     -0.585836    24A     -0.569546
      25A     -0.547168    26A     -0.507209    27A     -0.483334
      28A     -0.465037    29A     -0.376774    30A     -0.307145
      31A     -0.288809

  @DF-RHF Final Energy:  -361.56286015238913

   => Energetics <=

    Nuclear Repulsion Energy =            401.3292628276034293
    One-Electron Energy =               -1284.2756362763807374
    Two-Electron Energy =                 521.3835132963881733
    Total Energy =                       -361.5628601523891348
  Basis Set: (AUG-CC-PVTZ AUX)
    Blend: AUG-CC-PVTZ-RI
    Molecular point group: c1

    Geometry (in Angstrom), charge = 0, multiplicity = 1:

       Center              X                  Y                   Z               Mass
    ------------   -----------------  -----------------  -----------------  -----------------
         N           -1.551409203207    -1.092482778385     0.000001945274    14.003074004430
         C            0.993153796793     1.418053221615    -0.000000054726    12.000000000000
         C            2.167147796793     0.678382221615     0.000001945274    12.000000000000
         C            2.144417796793    -0.734168778385    -0.000005054726    12.000000000000
         C            0.946123796793    -1.435921778385    -0.000000054726    12.000000000000
         C           -0.286292303207    -0.549314478385    -0.000000854726    12.000000000000
         C           -0.240514203207     0.738992221615     0.000014945274    12.000000000000
         C           -1.608975203207     1.154283221615    -0.000008054726    12.000000000000
         C           -2.376844203207     0.012718221615    -0.000005054726    12.000000000000
         H            1.023886796793     2.506187221615     0.000004945274     1.007825032230
         H            3.125743796793     1.192146221615    -0.000005054726     1.007825032230
         H            3.083570796793    -1.282646778385    -0.000005054726     1.007825032230
         H            0.930057796793    -2.524384778385    -0.000004054726     1.007825032230
         H           -1.985776203207     2.169232221615    -0.000013054726     1.007825032230
         H           -1.865197203207    -2.053784778385     0.000017945274     1.007825032230
         H           -3.453118203207    -0.104158778385     0.000003945274     1.007825032230

  Basis Set: AUG-CC-PVTZ
    Blend: AUG-CC-PVTZ
  Basis Set: (AUG-CC-PVTZ AUX)
    Blend: AUG-CC-PVTZ-JKFIT
	 Reference Energy          =    -361.5628601523891348 [Eh]
	 Singles Energy            =      -0.0000000000000000 [Eh]
	 Same-Spin Energy          =      -0.4061777884006642 [Eh]
	 Opposite-Spin Energy      =      -1.2478620822765900 [Eh]
	 Correlation Energy        =      -1.6540398706772543 [Eh]
	 Total Energy              =    -363.2169000230663869 [Eh]

	 ================> DF-SCS-MP2 Energies <==================
	-----------------------------------------------------------
	 SCS Same-Spin Scale       =       0.3333333333333333 [-]
	 SCS Opposite-Spin Scale   =       1.2000000000000000 [-]
	 SCS Same-Spin Energy      =      -0.1353925961335547 [Eh]
	 SCS Opposite-Spin Energy  =      -1.4974344987319079 [Eh]
	 SCS Correlation Energy    =      -1.6328270948654626 [Eh]
	 SCS Total Energy          =    -363.1956872472546252 [Eh]
	-----------------------------------------------------------

  Dipole Moment: [D]
     X:    -1.2284      Y:    -1.5971      Z:     0.0000     Total:     2.0149

*** Psi4 exiting successfully. Buy a developer a beer!
