                               Psi4 1.3.2 release

  ==> Input File <==

--------------------------------------------------------------------------
#psi4
#
memory 32 gb

molecule  {
0 1
  N       -1.5631460    -1.0786450     0.0000020
  C        0.9036776     1.5571245     0.0000027
  C        2.1554110     0.6922200     0.0000020
  C        2.1326810    -0.7203310    -0.0000050
  C        0.9343870    -1.4220840     0.0000000
  C       -0.2481830    -0.6706930     0.0000000
  C       -0.2522510     0.7528300     0.0000150
  C       -1.6207120     1.1681210    -0.0000080
  C       -2.3885810     0.0265560    -0.0000050
  H        1.0121500     2.5200250     0.0000050
  H        3.1140070     1.2059840    -0.0000050
  H        3.0718340    -1.2688090    -0.0000050
  H        0.9183210    -2.5105470    -0.0000040
  H       -1.9975130     2.1830700    -0.0000130
  H       -1.8769340    -2.0399470     0.0000180
  H       -3.4648550    -0.0903210     0.0000040
units angstrom
no_reorient  #important for SAPT in psi4, default
symmetry c1  #important for SAPT in psi4, default
}

set PROPERTIES_ORIGIN ["COM"]
properties('MP2/aug-cc-pvtz', properties = ['dipole'])
--------------------------------------------------------------------------

    Molecular point group: c1
  Charge       = 0
  Multiplicity = 1
  Basis Set: AUG-CC-PVTZ
    Blend: AUG-CC-PVTZ
  Basis Set: (AUG-CC-PVTZ AUX)
    Blend: AUG-CC-PVTZ-JKFIT

    Orbital Energies [Eh]
    ---------------------

    Doubly Occupied:

       1A    -15.604716     2A    -11.273728     3A    -11.270852
       4A    -11.236616     5A    -11.235623     6A    -11.234535
       7A    -11.232580     8A    -11.230768     9A    -11.215522
      10A     -1.296873    11A     -1.118447    12A     -1.058619
      13A     -0.984802    14A     -0.975194    15A     -0.851033
      16A     -0.802826    17A     -0.784129    18A     -0.741586
      19A     -0.665129    20A     -0.640022    21A     -0.616594
      22A     -0.598042    23A     -0.583998    24A     -0.572181
      25A     -0.550668    26A     -0.508872    27A     -0.475265
      28A     -0.456052    29A     -0.387725    30A     -0.294878
      31A     -0.279746

  @DF-RHF Final Energy:  -361.55895133688722

   => Energetics <=

    Nuclear Repulsion Energy =            398.2567525462179674
    One-Electron Energy =               -1278.0761669020550926
    Two-Electron Energy =                 518.2604630189499630
    Total Energy =                       -361.5589513368871621
  Basis Set: (AUG-CC-PVTZ AUX)
    Blend: AUG-CC-PVTZ-RI
    Molecular point group: c1

    Geometry (in Angstrom), charge = 0, multiplicity = 1:

       Center              X                  Y                   Z               Mass
    ------------   -----------------  -----------------  -----------------  -----------------
         N           -1.548549765739    -1.091459407455     0.000001586477    14.003074004430
         C            0.918273834261     1.544310092545     0.000002286477    12.000000000000
         C            2.170007234261     0.679405592545     0.000001586477    12.000000000000
         C            2.147277234261    -0.733145407455    -0.000005413523    12.000000000000
         C            0.948983234261    -1.434898407455    -0.000000413523    12.000000000000
         C           -0.233586765739    -0.683507407455    -0.000000413523    12.000000000000
         C           -0.237654765739     0.740015592545     0.000014586477    12.000000000000
         C           -1.606115765739     1.155306592545    -0.000008413523    12.000000000000
         C           -2.373984765739     0.013741592545    -0.000005413523    12.000000000000
         H            1.026746234261     2.507210592545     0.000004586477     1.007825032230
         H            3.128603234261     1.193169592545    -0.000005413523     1.007825032230
         H            3.086430234261    -1.281623407455    -0.000005413523     1.007825032230
         H            0.932917234261    -2.523361407455    -0.000004413523     1.007825032230
         H           -1.982916765739     2.170255592545    -0.000013413523     1.007825032230
         H           -1.862337765739    -2.052761407455     0.000017586477     1.007825032230
         H           -3.450258765739    -0.103135407455     0.000003586477     1.007825032230

  Basis Set: AUG-CC-PVTZ
    Blend: AUG-CC-PVTZ
  Basis Set: (AUG-CC-PVTZ AUX)
    Blend: AUG-CC-PVTZ-JKFIT
	 Reference Energy          =    -361.5589513368872190 [Eh]
	 Singles Energy            =      -0.0000000000000000 [Eh]
	 Same-Spin Energy          =      -0.4085457888851116 [Eh]
	 Opposite-Spin Energy      =      -1.2504684038239207 [Eh]
	 Correlation Energy        =      -1.6590141927090323 [Eh]
	 Total Energy              =    -363.2179655295962561 [Eh]

	 ================> DF-SCS-MP2 Energies <==================
	-----------------------------------------------------------
	 SCS Same-Spin Scale       =       0.3333333333333333 [-]
	 SCS Opposite-Spin Scale   =       1.2000000000000000 [-]
	 SCS Same-Spin Energy      =      -0.1361819296283705 [Eh]
	 SCS Opposite-Spin Energy  =      -1.5005620845887047 [Eh]
	 SCS Correlation Energy    =      -1.6367440142170753 [Eh]
	 SCS Total Energy          =    -363.1956953511042911 [Eh]
	-----------------------------------------------------------

  Dipole Moment: [D]
     X:    -1.4917      Y:    -1.5314      Z:     0.0000     Total:     2.1379

*** Psi4 exiting successfully. Buy a developer a beer!
