                               Psi4 1.4a3.dev225

  ==> Input File <==

--------------------------------------------------------------------------
#psi4
#
memory 32 gb

molecule  {
0 1
  N       -1.5630850    -1.0784890    -0.0000040
  C        0.9811620     1.4317850    -0.0000050
  C        2.1553110     0.6923450     0.0000000
  C        2.1328040    -0.7200770     0.0000000
  C        0.9346070    -1.4219960     0.0000040
  C       -0.2479390    -0.6706250     0.0000000
  C       -0.2522910     0.7524290     0.0000030
  C       -1.6208000     1.1677860     0.0000050
  C       -2.3888340     0.0267020    -0.0000020
  H        1.0113780     2.5197500    -0.0000020
  H        3.0961754     1.1965077    -0.0000049
  H        3.0720020    -1.2682500     0.0000030
  H        0.9188940    -2.5102320     0.0000020
  H       -1.9966350     2.1828910     0.0000100
  H       -1.8770410    -2.0396260     0.0000000
  H       -3.4649170    -0.0911630    -0.0000050
units angstrom
no_reorient  #important for SAPT in psi4, default
symmetry c1  #important for SAPT in psi4, default
}

set PROPERTIES_ORIGIN ["COM"]
properties('MP2/aug-cc-pvtz', properties = ['dipole'])
--------------------------------------------------------------------------

    Molecular point group: c1
  Charge       = 0
  Multiplicity = 1
  Basis Set: AUG-CC-PVTZ
    Blend: AUG-CC-PVTZ
  Basis Set: (AUG-CC-PVTZ AUX)
    Blend: AUG-CC-PVTZ-JKFIT

    Orbital Energies [Eh]
    ---------------------

    Doubly Occupied:

       1A    -15.605549     2A    -11.273077     3A    -11.267004
       4A    -11.233393     5A    -11.231476     6A    -11.230177
       7A    -11.227051     8A    -11.219979     9A    -11.218686
      10A     -1.296122    11A     -1.128533    12A     -1.055911
      13A     -0.997092    14A     -0.974241    15A     -0.842772
      16A     -0.806427    17A     -0.788985    18A     -0.727154
      19A     -0.662509    20A     -0.649238    21A     -0.601635
      22A     -0.595415    23A     -0.583932    24A     -0.574530
      25A     -0.549964    26A     -0.509564    27A     -0.482666
      28A     -0.464783    29A     -0.385932    30A     -0.301440
      31A     -0.282951

  @DF-RHF Final Energy:  -361.58944574861061

   => Energetics <=

    Nuclear Repulsion Energy =            400.1251632917268353
    One-Electron Energy =               -1281.8928422923449943
    Two-Electron Energy =                 520.1782332520075443
    Total Energy =                       -361.5894457486106148
  Basis Set: (AUG-CC-PVTZ AUX)
    Blend: AUG-CC-PVTZ-RI
    Molecular point group: c1

    Geometry (in Angstrom), charge = 0, multiplicity = 1:

       Center              X                  Y                   Z               Mass
    ------------   -----------------  -----------------  -----------------  -----------------
         N           -1.556302433648    -1.078384993414    -0.000004060756    14.003074004430
         C            0.987944566352     1.431889006586    -0.000005060756    12.000000000000
         C            2.162093566352     0.692449006586    -0.000000060756    12.000000000000
         C            2.139586566352    -0.719972993414    -0.000000060756    12.000000000000
         C            0.941389566352    -1.421891993414     0.000003939244    12.000000000000
         C           -0.241156433648    -0.670520993414    -0.000000060756    12.000000000000
         C           -0.245508433648     0.752533006586     0.000002939244    12.000000000000
         C           -1.614017433648     1.167890006586     0.000004939244    12.000000000000
         C           -2.382051433648     0.026806006586    -0.000002060756    12.000000000000
         H            1.018160566352     2.519854006586    -0.000002060756     1.007825032230
         H            3.102957966352     1.196611706586    -0.000004960756     1.007825032230
         H            3.078784566352    -1.268145993414     0.000002939244     1.007825032230
         H            0.925676566352    -2.510127993414     0.000001939244     1.007825032230
         H           -1.989852433648     2.182995006586     0.000009939244     1.007825032230
         H           -1.870258433648    -2.039521993414    -0.000000060756     1.007825032230
         H           -3.458134433648    -0.091058993414    -0.000005060756     1.007825032230

  Basis Set: AUG-CC-PVTZ
    Blend: AUG-CC-PVTZ
  Basis Set: (AUG-CC-PVTZ AUX)
    Blend: AUG-CC-PVTZ-JKFIT
	 Reference Energy          =    -361.5894457486106148 [Eh]
	 Singles Energy            =      -0.0000000000000000 [Eh]
	 Same-Spin Energy          =      -0.4079318560444423 [Eh]
	 Opposite-Spin Energy      =      -1.2477205458099176 [Eh]
	 Correlation Energy        =      -1.6556524018543599 [Eh]
	 Total Energy              =    -363.2450981504649690 [Eh]

	 ================> DF-SCS-MP2 Energies <==================
	-----------------------------------------------------------
	 SCS Same-Spin Scale       =       0.3333333333333333 [-]
	 SCS Opposite-Spin Scale   =       1.2000000000000000 [-]
	 SCS Same-Spin Energy      =      -0.1359772853481474 [Eh]
	 SCS Opposite-Spin Energy  =      -1.4972646549719011 [Eh]
	 SCS Correlation Energy    =      -1.6332419403200484 [Eh]
	 SCS Total Energy          =    -363.2226876889306482 [Eh]
	-----------------------------------------------------------

  Dipole Moment: [D]
     X:    -1.4756      Y:    -1.5414      Z:     0.0000     Total:     2.1338

*** Psi4 exiting successfully. Buy a developer a beer!
