                               Psi4 1.3.2 release

  ==> Input File <==

--------------------------------------------------------------------------
#psi4
#
memory 32 gb

molecule  {
0 1
  N       -1.5631460    -1.0786450     0.0000020
  C        0.9814170     1.4318910     0.0000000
  C        2.1805100     0.7336424     0.0000014
  C        2.1326810    -0.7203310    -0.0000050
  C        0.9343870    -1.4220840     0.0000000
  C       -0.2481830    -0.6706930     0.0000000
  C       -0.2522510     0.7528300     0.0000150
  C       -1.6207120     1.1681210    -0.0000080
  C       -2.3885810     0.0265560    -0.0000050
  H        1.0121500     2.5200250     0.0000050
  H        3.1140070     1.2059840    -0.0000050
  H        3.0718340    -1.2688090    -0.0000050
  H        0.9183210    -2.5105470    -0.0000040
  H       -1.9975130     2.1830700    -0.0000130
  H       -1.8769340    -2.0399470     0.0000180
  H       -3.4648550    -0.0903210     0.0000040
units angstrom
no_reorient  #important for SAPT in psi4, default
symmetry c1  #important for SAPT in psi4, default
}

set PROPERTIES_ORIGIN ["COM"]
properties('MP2/aug-cc-pvtz', properties = ['dipole'])
--------------------------------------------------------------------------

    Molecular point group: c1
  Charge       = 0
  Multiplicity = 1
  Basis Set: AUG-CC-PVTZ
    Blend: AUG-CC-PVTZ
  Basis Set: (AUG-CC-PVTZ AUX)
    Blend: AUG-CC-PVTZ-JKFIT

    Orbital Energies [Eh]
    ---------------------

    Doubly Occupied:

       1A    -15.606557     2A    -11.272309     3A    -11.267631
       4A    -11.235331     5A    -11.233713     6A    -11.232576
       7A    -11.227058     8A    -11.223310     9A    -11.219426
      10A     -1.296394    11A     -1.124619    12A     -1.055371
      13A     -0.997368    14A     -0.972084    15A     -0.840726
      16A     -0.807261    17A     -0.790457    18A     -0.725840
      19A     -0.665163    20A     -0.650477    21A     -0.599900
      22A     -0.595462    23A     -0.583963    24A     -0.572587
      25A     -0.547075    26A     -0.519780    27A     -0.476949
      28A     -0.461485    29A     -0.386119    30A     -0.301264
      31A     -0.282337

  @DF-RHF Final Energy:  -361.58623698140894

   => Energetics <=

    Nuclear Repulsion Energy =            399.2601262536706486
    One-Electron Energy =               -1280.1515386390642561
    Two-Electron Energy =                 519.3051754039845491
    Total Energy =                       -361.5862369814090016
  Basis Set: (AUG-CC-PVTZ AUX)
    Blend: AUG-CC-PVTZ-RI
    Molecular point group: c1

    Geometry (in Angstrom), charge = 0, multiplicity = 1:

       Center              X                  Y                   Z               Mass
    ------------   -----------------  -----------------  -----------------  -----------------
         N           -1.559092081424    -1.082867645291     0.000001924771    14.003074004430
         C            0.985470918576     1.427668354709    -0.000000075229    12.000000000000
         C            2.184563918576     0.729419754709     0.000001324771    12.000000000000
         C            2.136734918576    -0.724553645291    -0.000005075229    12.000000000000
         C            0.938440918576    -1.426306645291    -0.000000075229    12.000000000000
         C           -0.244129081424    -0.674915645291    -0.000000075229    12.000000000000
         C           -0.248197081424     0.748607354709     0.000014924771    12.000000000000
         C           -1.616658081424     1.163898354709    -0.000008075229    12.000000000000
         C           -2.384527081424     0.022333354709    -0.000005075229    12.000000000000
         H            1.016203918576     2.515802354709     0.000004924771     1.007825032230
         H            3.118060918576     1.201761354709    -0.000005075229     1.007825032230
         H            3.075887918576    -1.273031645291    -0.000005075229     1.007825032230
         H            0.922374918576    -2.514769645291    -0.000004075229     1.007825032230
         H           -1.993459081424     2.178847354709    -0.000013075229     1.007825032230
         H           -1.872880081424    -2.044169645291     0.000017924771     1.007825032230
         H           -3.460801081424    -0.094543645291     0.000003924771     1.007825032230

  Basis Set: AUG-CC-PVTZ
    Blend: AUG-CC-PVTZ
  Basis Set: (AUG-CC-PVTZ AUX)
    Blend: AUG-CC-PVTZ-JKFIT
	 Reference Energy          =    -361.5862369814089448 [Eh]
	 Singles Energy            =      -0.0000000000000000 [Eh]
	 Same-Spin Energy          =      -0.4077746190938477 [Eh]
	 Opposite-Spin Energy      =      -1.2481113592559354 [Eh]
	 Correlation Energy        =      -1.6558859783497830 [Eh]
	 Total Energy              =    -363.2421229597587171 [Eh]

	 ================> DF-SCS-MP2 Energies <==================
	-----------------------------------------------------------
	 SCS Same-Spin Scale       =       0.3333333333333333 [-]
	 SCS Opposite-Spin Scale   =       1.2000000000000000 [-]
	 SCS Same-Spin Energy      =      -0.1359248730312826 [Eh]
	 SCS Opposite-Spin Energy  =      -1.4977336311071225 [Eh]
	 SCS Correlation Energy    =      -1.6336585041384051 [Eh]
	 SCS Total Energy          =    -363.2198954855473403 [Eh]
	-----------------------------------------------------------

  Dipole Moment: [D]
     X:    -1.4850      Y:    -1.5498      Z:     0.0000     Total:     2.1464

*** Psi4 exiting successfully. Buy a developer a beer!
