                               Psi4 1.3.2 release

  ==> Input File <==

--------------------------------------------------------------------------
#psi4
#
memory 32 gb

molecule  {
0 1
  N       -1.5631460    -1.0786450     0.0000020
  C        0.9814170     1.4318910     0.0000000
  C        2.1554110     0.6922200     0.0000020
  C        2.1326810    -0.7203310    -0.0000050
  C        0.9343870    -1.4220840     0.0000000
  C       -0.2481830    -0.6706930     0.0000000
  C       -0.2522510     0.7528300     0.0000150
  C       -1.6207120     1.1681210    -0.0000080
  C       -2.3885810     0.0265560    -0.0000050
  H        1.0121500     2.5200250     0.0000050
  H        3.1140070     1.2059840    -0.0000050
  H        3.0718340    -1.2688090    -0.0000050
  H        0.9183210    -2.5105470    -0.0000040
  H       -1.9975130     2.1830700    -0.0000130
  H       -1.8769340    -2.0399470     0.0000180
  H       -3.5642705    -0.1011169     0.0000048
units angstrom
no_reorient  #important for SAPT in psi4, default
symmetry c1  #important for SAPT in psi4, default
}

set PROPERTIES_ORIGIN ["COM"]
properties('MP2/aug-cc-pvtz', properties = ['dipole'])
--------------------------------------------------------------------------

    Molecular point group: c1
  Charge       = 0
  Multiplicity = 1
  Basis Set: AUG-CC-PVTZ
    Blend: AUG-CC-PVTZ
  Basis Set: (AUG-CC-PVTZ AUX)
    Blend: AUG-CC-PVTZ-JKFIT

    Orbital Energies [Eh]
    ---------------------

    Doubly Occupied:

       1A    -15.606608     2A    -11.283986     3A    -11.267583
       4A    -11.233901     5A    -11.231965     6A    -11.230599
       7A    -11.227855     8A    -11.222666     9A    -11.219501
      10A     -1.296760    11A     -1.128620    12A     -1.056247
      13A     -0.996336    14A     -0.972131    15A     -0.838922
      16A     -0.803605    17A     -0.787726    18A     -0.724283
      19A     -0.658729    20A     -0.640318    21A     -0.601682
      22A     -0.595402    23A     -0.584662    24A     -0.572479
      25A     -0.542852    26A     -0.507660    27A     -0.482784
      28A     -0.465250    29A     -0.386502    30A     -0.301861
      31A     -0.283283

  @DF-RHF Final Energy:  -361.58160008133103

   => Energetics <=

    Nuclear Repulsion Energy =            399.5182665355501967
    One-Electron Energy =               -1280.6942157070473058
    Two-Electron Energy =                 519.5943490901661335
    Total Energy =                       -361.5816000813309756
  Basis Set: (AUG-CC-PVTZ AUX)
    Blend: AUG-CC-PVTZ-RI
    Molecular point group: c1

    Geometry (in Angstrom), charge = 0, multiplicity = 1:

       Center              X                  Y                   Z               Mass
    ------------   -----------------  -----------------  -----------------  -----------------
         N           -1.555663166301    -1.078528344838     0.000001856375    14.003074004430
         C            0.988899833699     1.432007655162    -0.000000143625    12.000000000000
         C            2.162893833699     0.692336655162     0.000001856375    12.000000000000
         C            2.140163833699    -0.720214344838    -0.000005143625    12.000000000000
         C            0.941869833699    -1.421967344838    -0.000000143625    12.000000000000
         C           -0.240700166301    -0.670576344838    -0.000000143625    12.000000000000
         C           -0.244768166301     0.752946655162     0.000014856375    12.000000000000
         C           -1.613229166301     1.168237655162    -0.000008143625    12.000000000000
         C           -2.381098166301     0.026672655162    -0.000005143625    12.000000000000
         H            1.019632833699     2.520141655162     0.000004856375     1.007825032230
         H            3.121489833699     1.206100655162    -0.000005143625     1.007825032230
         H            3.079316833699    -1.268692344838    -0.000005143625     1.007825032230
         H            0.925803833699    -2.510430344838    -0.000004143625     1.007825032230
         H           -1.990030166301     2.183186655162    -0.000013143625     1.007825032230
         H           -1.869451166301    -2.039830344838     0.000017856375     1.007825032230
         H           -3.556787666301    -0.101000244838     0.000004656375     1.007825032230

  Basis Set: AUG-CC-PVTZ
    Blend: AUG-CC-PVTZ
  Basis Set: (AUG-CC-PVTZ AUX)
    Blend: AUG-CC-PVTZ-JKFIT
	 Reference Energy          =    -361.5816000813310325 [Eh]
	 Singles Energy            =      -0.0000000000000000 [Eh]
	 Same-Spin Energy          =      -0.4082312078113538 [Eh]
	 Opposite-Spin Energy      =      -1.2488656220040086 [Eh]
	 Correlation Energy        =      -1.6570968298153623 [Eh]
	 Total Energy              =    -363.2386969111464055 [Eh]

	 ================> DF-SCS-MP2 Energies <==================
	-----------------------------------------------------------
	 SCS Same-Spin Scale       =       0.3333333333333333 [-]
	 SCS Opposite-Spin Scale   =       1.2000000000000000 [-]
	 SCS Same-Spin Energy      =      -0.1360770692704513 [Eh]
	 SCS Opposite-Spin Energy  =      -1.4986387464048103 [Eh]
	 SCS Correlation Energy    =      -1.6347158156752615 [Eh]
	 SCS Total Energy          =    -363.2163158970062682 [Eh]
	-----------------------------------------------------------

  Dipole Moment: [D]
     X:    -1.4678      Y:    -1.5462      Z:     0.0000     Total:     2.1319

*** Psi4 exiting successfully. Buy a developer a beer!
