                               Psi4 1.3.2 release

  ==> Input File <==

--------------------------------------------------------------------------
#psi4
#
memory 32 gb

molecule  {
0 1
  N       -1.5631460    -1.0786450     0.0000020
  C        0.9814170     1.4318910     0.0000000
  C        2.1554110     0.6922200     0.0000020
  C        2.1326810    -0.7203310    -0.0000050
  C        0.9343870    -1.4220840     0.0000000
  C       -0.2481830    -0.6706930     0.0000000
  C       -0.2522510     0.7528300     0.0000150
  C       -1.6207120     1.1681210    -0.0000080
  C       -2.3885810     0.0265560    -0.0000050
  H        1.0121500     2.5200250     0.0000050
  H        3.1140070     1.2059840    -0.0000050
  H        3.0718340    -1.2688090    -0.0000050
  H        0.9183210    -2.5105470    -0.0000040
  H       -2.0323170     2.2768180    -0.0000135
  H       -1.8769340    -2.0399470     0.0000180
  H       -3.4648550    -0.0903210     0.0000040
units angstrom
no_reorient  #important for SAPT in psi4, default
symmetry c1  #important for SAPT in psi4, default
}

set PROPERTIES_ORIGIN ["COM"]
properties('MP2/aug-cc-pvtz', properties = ['dipole'])
--------------------------------------------------------------------------

    Molecular point group: c1
  Charge       = 0
  Multiplicity = 1
  Basis Set: AUG-CC-PVTZ
    Blend: AUG-CC-PVTZ
  Basis Set: (AUG-CC-PVTZ AUX)
    Blend: AUG-CC-PVTZ-JKFIT

    Orbital Energies [Eh]
    ---------------------

    Doubly Occupied:

       1A    -15.606248     2A    -11.273898     3A    -11.267832
       4A    -11.233955     5A    -11.232000     6A    -11.230749
       7A    -11.229992     8A    -11.228103     9A    -11.222664
      10A     -1.296898    11A     -1.128832    12A     -1.054914
      13A     -0.996796    14A     -0.973720    15A     -0.842529
      16A     -0.805672    17A     -0.780563    18A     -0.726364
      19A     -0.661510    20A     -0.646618    21A     -0.599556
      22A     -0.594948    23A     -0.584675    24A     -0.564708
      25A     -0.545347    26A     -0.508257    27A     -0.481386
      28A     -0.465269    29A     -0.386558    30A     -0.301963
      31A     -0.283373

  @DF-RHF Final Energy:  -361.58169607867706

   => Energetics <=

    Nuclear Repulsion Energy =            399.5222165419468752
    One-Electron Energy =               -1280.6960272476587761
    Two-Electron Energy =                 519.5921146270349027
    Total Energy =                       -361.5816960786770551
  Basis Set: (AUG-CC-PVTZ AUX)
    Blend: AUG-CC-PVTZ-RI
    Molecular point group: c1

    Geometry (in Angstrom), charge = 0, multiplicity = 1:

       Center              X                  Y                   Z               Mass
    ------------   -----------------  -----------------  -----------------  -----------------
         N           -1.556219447554    -1.079428429369     0.000001867568    14.003074004430
         C            0.988343552446     1.431107570631    -0.000000132432    12.000000000000
         C            2.162337552446     0.691436570631     0.000001867568    12.000000000000
         C            2.139607552446    -0.721114429369    -0.000005132432    12.000000000000
         C            0.941313552446    -1.422867429369    -0.000000132432    12.000000000000
         C           -0.241256447554    -0.671476429369    -0.000000132432    12.000000000000
         C           -0.245324447554     0.752046570631     0.000014867568    12.000000000000
         C           -1.613785447554     1.167337570631    -0.000008132432    12.000000000000
         C           -2.381654447554     0.025772570631    -0.000005132432    12.000000000000
         H            1.019076552446     2.519241570631     0.000004867568     1.007825032230
         H            3.120933552446     1.205200570631    -0.000005132432     1.007825032230
         H            3.078760552446    -1.269592429369    -0.000005132432     1.007825032230
         H            0.925247552446    -2.511330429369    -0.000004132432     1.007825032230
         H           -2.025390447554     2.276034570631    -0.000013632432     1.007825032230
         H           -1.870007447554    -2.040730429369     0.000017867568     1.007825032230
         H           -3.457928447554    -0.091104429369     0.000003867568     1.007825032230

  Basis Set: AUG-CC-PVTZ
    Blend: AUG-CC-PVTZ
  Basis Set: (AUG-CC-PVTZ AUX)
    Blend: AUG-CC-PVTZ-JKFIT
	 Reference Energy          =    -361.5816960786770551 [Eh]
	 Singles Energy            =      -0.0000000000000000 [Eh]
	 Same-Spin Energy          =      -0.4081804265805220 [Eh]
	 Opposite-Spin Energy      =      -1.2488326426768186 [Eh]
	 Correlation Energy        =      -1.6570130692573406 [Eh]
	 Total Energy              =    -363.2387091479344008 [Eh]

	 ================> DF-SCS-MP2 Energies <==================
	-----------------------------------------------------------
	 SCS Same-Spin Scale       =       0.3333333333333333 [-]
	 SCS Opposite-Spin Scale   =       1.2000000000000000 [-]
	 SCS Same-Spin Energy      =      -0.1360601421935073 [Eh]
	 SCS Opposite-Spin Energy  =      -1.4985991712121822 [Eh]
	 SCS Correlation Energy    =      -1.6346593134056895 [Eh]
	 SCS Total Energy          =    -363.2163553920827326 [Eh]
	-----------------------------------------------------------

  Dipole Moment: [D]
     X:    -1.4612      Y:    -1.5622      Z:     0.0000     Total:     2.1391

*** Psi4 exiting successfully. Buy a developer a beer!
