                               Psi4 1.3.2 release

  ==> Input File <==

--------------------------------------------------------------------------
#psi4
#
memory 32 gb

molecule  {
0 1
  N       -1.5439833    -1.0640708     0.0000020
  C        0.9814170     1.4318910     0.0000000
  C        2.1554110     0.6922200     0.0000020
  C        2.1326810    -0.7203310    -0.0000050
  C        0.9343870    -1.4220840     0.0000000
  C       -0.2481830    -0.6706930     0.0000000
  C       -0.2522510     0.7528300     0.0000150
  C       -1.6207120     1.1681210    -0.0000080
  C       -2.3885810     0.0265560    -0.0000050
  H        1.0121500     2.5200250     0.0000050
  H        3.1140070     1.2059840    -0.0000050
  H        3.0718340    -1.2688090    -0.0000050
  H        0.9183210    -2.5105470    -0.0000040
  H       -1.9975130     2.1830700    -0.0000130
  H       -1.8769340    -2.0399470     0.0000180
  H       -3.4648550    -0.0903210     0.0000040
units angstrom
no_reorient  #important for SAPT in psi4, default
symmetry c1  #important for SAPT in psi4, default
}

set PROPERTIES_ORIGIN ["COM"]
properties('MP2/aug-cc-pvtz', properties = ['dipole'])
--------------------------------------------------------------------------

    Molecular point group: c1
  Charge       = 0
  Multiplicity = 1
  Basis Set: AUG-CC-PVTZ
    Blend: AUG-CC-PVTZ
  Basis Set: (AUG-CC-PVTZ AUX)
    Blend: AUG-CC-PVTZ-JKFIT

    Orbital Energies [Eh]
    ---------------------

    Doubly Occupied:

       1A    -15.607510     2A    -11.272009     3A    -11.265455
       4A    -11.232742     5A    -11.231535     6A    -11.230421
       7A    -11.225708     8A    -11.221256     9A    -11.218900
      10A     -1.301721    11A     -1.127403    12A     -1.055770
      13A     -0.995324    14A     -0.975311    15A     -0.843940
      16A     -0.803081    17A     -0.788541    18A     -0.726245
      19A     -0.665240    20A     -0.647119    21A     -0.598692
      22A     -0.594125    23A     -0.587631    24A     -0.573965
      25A     -0.551478    26A     -0.507271    27A     -0.481960
      28A     -0.464184    29A     -0.386607    30A     -0.299175
      31A     -0.283667

  @DF-RHF Final Energy:  -361.58792543533525

   => Energetics <=

    Nuclear Repulsion Energy =            400.5413811649572153
    One-Electron Energy =               -1282.7306385181911992
    Two-Electron Energy =                 520.6013319178987331
    Total Energy =                       -361.5879254353352508
  Basis Set: (AUG-CC-PVTZ AUX)
    Blend: AUG-CC-PVTZ-RI
    Molecular point group: c1

    Geometry (in Angstrom), charge = 0, multiplicity = 1:

       Center              X                  Y                   Z               Mass
    ------------   -----------------  -----------------  -----------------  -----------------
         N           -1.539648739895    -1.065790535826     0.000001863263    14.003074004430
         C            0.985751560105     1.430171264174    -0.000000136737    12.000000000000
         C            2.159745560105     0.690500264174     0.000001863263    12.000000000000
         C            2.137015560105    -0.722050735826    -0.000005136737    12.000000000000
         C            0.938721560105    -1.423803735826    -0.000000136737    12.000000000000
         C           -0.243848439895    -0.672412735826    -0.000000136737    12.000000000000
         C           -0.247916439895     0.751110264174     0.000014863263    12.000000000000
         C           -1.616377439895     1.166401264174    -0.000008136737    12.000000000000
         C           -2.384246439895     0.024836264174    -0.000005136737    12.000000000000
         H            1.016484560105     2.518305264174     0.000004863263     1.007825032230
         H            3.118341560105     1.204264264174    -0.000005136737     1.007825032230
         H            3.076168560105    -1.270528735826    -0.000005136737     1.007825032230
         H            0.922655560105    -2.512266735826    -0.000004136737     1.007825032230
         H           -1.993178439895     2.181350264174    -0.000013136737     1.007825032230
         H           -1.872599439895    -2.041666735826     0.000017863263     1.007825032230
         H           -3.460520439895    -0.092040735826     0.000003863263     1.007825032230

  Basis Set: AUG-CC-PVTZ
    Blend: AUG-CC-PVTZ
  Basis Set: (AUG-CC-PVTZ AUX)
    Blend: AUG-CC-PVTZ-JKFIT
	 Reference Energy          =    -361.5879254353352508 [Eh]
	 Singles Energy            =      -0.0000000000000000 [Eh]
	 Same-Spin Energy          =      -0.4082993887323025 [Eh]
	 Opposite-Spin Energy      =      -1.2481604723490269 [Eh]
	 Correlation Energy        =      -1.6564598610813295 [Eh]
	 Total Energy              =    -363.2443852964165671 [Eh]

	 ================> DF-SCS-MP2 Energies <==================
	-----------------------------------------------------------
	 SCS Same-Spin Scale       =       0.3333333333333333 [-]
	 SCS Opposite-Spin Scale   =       1.2000000000000000 [-]
	 SCS Same-Spin Energy      =      -0.1360997962441008 [Eh]
	 SCS Opposite-Spin Energy  =      -1.4977925668188323 [Eh]
	 SCS Correlation Energy    =      -1.6338923630629332 [Eh]
	 SCS Total Energy          =    -363.2218177983982059 [Eh]
	-----------------------------------------------------------

  Dipole Moment: [D]
     X:    -1.5555      Y:    -1.5844      Z:     0.0000     Total:     2.2204

*** Psi4 exiting successfully. Buy a developer a beer!
