                               Psi4 1.4a3.dev225

  ==> Input File <==

--------------------------------------------------------------------------
#psi4
#
memory 32 gb

molecule  {
0 1
  N       -1.5630850    -1.0784890    -0.0000040
  C        0.9811620     1.4317850    -0.0000050
  C        2.1553110     0.6923450     0.0000000
  C        2.1328040    -0.7200770     0.0000000
  C        0.9346070    -1.4219960     0.0000040
  C       -0.2479390    -0.6706250     0.0000000
  C       -0.2522298     0.7324291     0.0000030
  C       -1.6208000     1.1677860     0.0000050
  C       -2.3888340     0.0267020    -0.0000020
  H        1.0113780     2.5197500    -0.0000020
  H        3.1138040     1.2059540    -0.0000050
  H        3.0720020    -1.2682500     0.0000030
  H        0.9188940    -2.5102320     0.0000020
  H       -1.9966350     2.1828910     0.0000100
  H       -1.8770410    -2.0396260     0.0000000
  H       -3.4649170    -0.0911630    -0.0000050
units angstrom
no_reorient  #important for SAPT in psi4, default
symmetry c1  #important for SAPT in psi4, default
}

set PROPERTIES_ORIGIN ["COM"]
properties('MP2/aug-cc-pvtz', properties = ['dipole'])
--------------------------------------------------------------------------

    Molecular point group: c1
  Charge       = 0
  Multiplicity = 1
  Basis Set: AUG-CC-PVTZ
    Blend: AUG-CC-PVTZ
  Basis Set: (AUG-CC-PVTZ AUX)
    Blend: AUG-CC-PVTZ-JKFIT

    Orbital Energies [Eh]
    ---------------------

    Doubly Occupied:

       1A    -15.604489     2A    -11.272521     3A    -11.264790
       4A    -11.233952     5A    -11.232662     6A    -11.230485
       7A    -11.226146     8A    -11.222556     9A    -11.218501
      10A     -1.296636    11A     -1.128872    12A     -1.054706
      13A     -0.997620    14A     -0.973947    15A     -0.842491
      16A     -0.804647    17A     -0.788840    18A     -0.727960
      19A     -0.660432    20A     -0.647307    21A     -0.601729
      22A     -0.595420    23A     -0.584578    24A     -0.575143
      25A     -0.549584    26A     -0.505304    27A     -0.485923
      28A     -0.464791    29A     -0.383756    30A     -0.303240
      31A     -0.283378

  @DF-RHF Final Energy:  -361.58945807953597

   => Energetics <=

    Nuclear Repulsion Energy =            400.2371830869309974
    One-Electron Energy =               -1282.1284701768661307
    Two-Electron Energy =                 520.3018290103991603
    Total Energy =                       -361.5894580795359161
  Basis Set: (AUG-CC-PVTZ AUX)
    Blend: AUG-CC-PVTZ-RI
    Molecular point group: c1

    Geometry (in Angstrom), charge = 0, multiplicity = 1:

       Center              X                  Y                   Z               Mass
    ------------   -----------------  -----------------  -----------------  -----------------
         N           -1.556460483232    -1.076416064513    -0.000004059895    14.003074004430
         C            0.987786516768     1.433857935487    -0.000005059895    12.000000000000
         C            2.161935516768     0.694417935487    -0.000000059895    12.000000000000
         C            2.139428516768    -0.718004064513    -0.000000059895    12.000000000000
         C            0.941231516768    -1.419923064513     0.000003940105    12.000000000000
         C           -0.241314483232    -0.668552064513    -0.000000059895    12.000000000000
         C           -0.245605283232     0.734502035487     0.000002940105    12.000000000000
         C           -1.614175483232     1.169858935487     0.000004940105    12.000000000000
         C           -2.382209483232     0.028774935487    -0.000002059895    12.000000000000
         H            1.018002516768     2.521822935487    -0.000002059895     1.007825032230
         H            3.120428516768     1.208026935487    -0.000005059895     1.007825032230
         H            3.078626516768    -1.266177064513     0.000002940105     1.007825032230
         H            0.925518516768    -2.508159064513     0.000001940105     1.007825032230
         H           -1.990010483232     2.184963935487     0.000009940105     1.007825032230
         H           -1.870416483232    -2.037553064513    -0.000000059895     1.007825032230
         H           -3.458292483232    -0.089090064513    -0.000005059895     1.007825032230

  Basis Set: AUG-CC-PVTZ
    Blend: AUG-CC-PVTZ
  Basis Set: (AUG-CC-PVTZ AUX)
    Blend: AUG-CC-PVTZ-JKFIT
	 Reference Energy          =    -361.5894580795359730 [Eh]
	 Singles Energy            =      -0.0000000000000000 [Eh]
	 Same-Spin Energy          =      -0.4076882779220183 [Eh]
	 Opposite-Spin Energy      =      -1.2476449616173577 [Eh]
	 Correlation Energy        =      -1.6553332395393761 [Eh]
	 Total Energy              =    -363.2447913190753752 [Eh]

	 ================> DF-SCS-MP2 Energies <==================
	-----------------------------------------------------------
	 SCS Same-Spin Scale       =       0.3333333333333333 [-]
	 SCS Opposite-Spin Scale   =       1.2000000000000000 [-]
	 SCS Same-Spin Energy      =      -0.1358960926406728 [Eh]
	 SCS Opposite-Spin Energy  =      -1.4971739539408293 [Eh]
	 SCS Correlation Energy    =      -1.6330700465815020 [Eh]
	 SCS Total Energy          =    -363.2225281261174814 [Eh]
	-----------------------------------------------------------

  Dipole Moment: [D]
     X:    -1.4500      Y:    -1.5261      Z:     0.0000     Total:     2.1051

*** Psi4 exiting successfully. Buy a developer a beer!
