                               Psi4 1.3.2 release

  ==> Input File <==

--------------------------------------------------------------------------
#psi4
#
memory 32 gb

molecule  {
0 1
  N       -1.5700655    -1.0556336     0.0000020
  C        0.9814170     1.4318910     0.0000000
  C        2.1554110     0.6922200     0.0000020
  C        2.1326810    -0.7203310    -0.0000050
  C        0.9343870    -1.4220840     0.0000000
  C       -0.2481830    -0.6706930     0.0000000
  C       -0.2522510     0.7528300     0.0000150
  C       -1.6207120     1.1681210    -0.0000080
  C       -2.3885810     0.0265560    -0.0000050
  H        1.0121500     2.5200250     0.0000050
  H        3.1140070     1.2059840    -0.0000050
  H        3.0718340    -1.2688090    -0.0000050
  H        0.9183210    -2.5105470    -0.0000040
  H       -1.9975130     2.1830700    -0.0000130
  H       -1.8769340    -2.0399470     0.0000180
  H       -3.4648550    -0.0903210     0.0000040
units angstrom
no_reorient  #important for SAPT in psi4, default
symmetry c1  #important for SAPT in psi4, default
}

set PROPERTIES_ORIGIN ["COM"]
properties('MP2/aug-cc-pvtz', properties = ['dipole'])
--------------------------------------------------------------------------

    Molecular point group: c1
  Charge       = 0
  Multiplicity = 1
  Basis Set: AUG-CC-PVTZ
    Blend: AUG-CC-PVTZ
  Basis Set: (AUG-CC-PVTZ AUX)
    Blend: AUG-CC-PVTZ-JKFIT

    Orbital Energies [Eh]
    ---------------------

    Doubly Occupied:

       1A    -15.608030     2A    -11.271618     3A    -11.266145
       4A    -11.234474     5A    -11.231087     6A    -11.230238
       7A    -11.226611     8A    -11.222516     9A    -11.216230
      10A     -1.301674    11A     -1.128824    12A     -1.054040
      13A     -0.997106    14A     -0.974650    15A     -0.843412
      16A     -0.803227    17A     -0.789366    18A     -0.726668
      19A     -0.662537    20A     -0.647710    21A     -0.602754
      22A     -0.593999    23A     -0.587209    24A     -0.572871
      25A     -0.550150    26A     -0.507863    27A     -0.481532
      28A     -0.466093    29A     -0.384709    30A     -0.302460
      31A     -0.281410

  @DF-RHF Final Energy:  -361.58799017850015

   => Energetics <=

    Nuclear Repulsion Energy =            400.3646148668526052
    One-Electron Energy =               -1282.3707815443428899
    Two-Electron Energy =                 520.4181764989900785
    Total Energy =                       -361.5879901785001493
  Basis Set: (AUG-CC-PVTZ AUX)
    Blend: AUG-CC-PVTZ-RI
    Molecular point group: c1

    Geometry (in Angstrom), charge = 0, multiplicity = 1:

       Center              X                  Y                   Z               Mass
    ------------   -----------------  -----------------  -----------------  -----------------
         N           -1.562610850305    -1.058362637951     0.000001863263    14.003074004430
         C            0.988871649695     1.429161962049    -0.000000136737    12.000000000000
         C            2.162865649695     0.689490962049     0.000001863263    12.000000000000
         C            2.140135649695    -0.723060037951    -0.000005136737    12.000000000000
         C            0.941841649695    -1.424813037951    -0.000000136737    12.000000000000
         C           -0.240728350305    -0.673422037951    -0.000000136737    12.000000000000
         C           -0.244796350305     0.750100962049     0.000014863263    12.000000000000
         C           -1.613257350305     1.165391962049    -0.000008136737    12.000000000000
         C           -2.381126350305     0.023826962049    -0.000005136737    12.000000000000
         H            1.019604649695     2.517295962049     0.000004863263     1.007825032230
         H            3.121461649695     1.203254962049    -0.000005136737     1.007825032230
         H            3.079288649695    -1.271538037951    -0.000005136737     1.007825032230
         H            0.925775649695    -2.513276037951    -0.000004136737     1.007825032230
         H           -1.990058350305     2.180340962049    -0.000013136737     1.007825032230
         H           -1.869479350305    -2.042676037951     0.000017863263     1.007825032230
         H           -3.457400350305    -0.093050037951     0.000003863263     1.007825032230

  Basis Set: AUG-CC-PVTZ
    Blend: AUG-CC-PVTZ
  Basis Set: (AUG-CC-PVTZ AUX)
    Blend: AUG-CC-PVTZ-JKFIT
	 Reference Energy          =    -361.5879901785001493 [Eh]
	 Singles Energy            =      -0.0000000000000000 [Eh]
	 Same-Spin Energy          =      -0.4083097090570896 [Eh]
	 Opposite-Spin Energy      =      -1.2480211067647771 [Eh]
	 Correlation Energy        =      -1.6563308158218666 [Eh]
	 Total Energy              =    -363.2443209943220381 [Eh]

	 ================> DF-SCS-MP2 Energies <==================
	-----------------------------------------------------------
	 SCS Same-Spin Scale       =       0.3333333333333333 [-]
	 SCS Opposite-Spin Scale   =       1.2000000000000000 [-]
	 SCS Same-Spin Energy      =      -0.1361032363523632 [Eh]
	 SCS Opposite-Spin Energy  =      -1.4976253281177325 [Eh]
	 SCS Correlation Energy    =      -1.6337285644700956 [Eh]
	 SCS Total Energy          =    -363.2217187429702676 [Eh]
	-----------------------------------------------------------

  Dipole Moment: [D]
     X:    -1.4954      Y:    -1.6125      Z:     0.0000     Total:     2.1992

*** Psi4 exiting successfully. Buy a developer a beer!
