                               Psi4 1.3.2 release

  ==> Input File <==

--------------------------------------------------------------------------
#psi4
#
memory 32 gb

molecule  {
0 1
  N       -1.5631460    -1.0786450     0.0000020
  C        0.9814170     1.4318910     0.0000000
  C        2.1554110     0.6922200     0.0000020
  C        2.1787138    -0.8056292    -0.0000048
  C        0.9343870    -1.4220840     0.0000000
  C       -0.2481830    -0.6706930     0.0000000
  C       -0.2522510     0.7528300     0.0000150
  C       -1.6207120     1.1681210    -0.0000080
  C       -2.3885810     0.0265560    -0.0000050
  H        1.0121500     2.5200250     0.0000050
  H        3.1140070     1.2059840    -0.0000050
  H        3.0718340    -1.2688090    -0.0000050
  H        0.9183210    -2.5105470    -0.0000040
  H       -1.9975130     2.1830700    -0.0000130
  H       -1.8769340    -2.0399470     0.0000180
  H       -3.4648550    -0.0903210     0.0000040
units angstrom
no_reorient  #important for SAPT in psi4, default
symmetry c1  #important for SAPT in psi4, default
}

set PROPERTIES_ORIGIN ["COM"]
properties('MP2/aug-cc-pvtz', properties = ['dipole'])
--------------------------------------------------------------------------

    Molecular point group: c1
  Charge       = 0
  Multiplicity = 1
  Basis Set: AUG-CC-PVTZ
    Blend: AUG-CC-PVTZ
  Basis Set: (AUG-CC-PVTZ AUX)
    Blend: AUG-CC-PVTZ-JKFIT

    Orbital Energies [Eh]
    ---------------------

    Doubly Occupied:

       1A    -15.607927     2A    -11.273210     3A    -11.266918
       4A    -11.236632     5A    -11.232449     6A    -11.231619
       7A    -11.230107     8A    -11.227730     9A    -11.219177
      10A     -1.296688    11A     -1.121093    12A     -1.056237
      13A     -0.991568    14A     -0.976206    15A     -0.837765
      16A     -0.813175    17A     -0.789251    18A     -0.726243
      19A     -0.673401    20A     -0.645225    21A     -0.601824
      22A     -0.591187    23A     -0.584169    24A     -0.571861
      25A     -0.561429    26A     -0.513857    27A     -0.471815
      28A     -0.458348    29A     -0.386564    30A     -0.298422
      31A     -0.283756

  @DF-RHF Final Energy:  -361.57693832881694

   => Energetics <=

    Nuclear Repulsion Energy =            398.5603267649021291
    One-Electron Energy =               -1278.7228300310955547
    Two-Electron Energy =                 518.5855649373764891
    Total Energy =                       -361.5769383288169365
  Basis Set: (AUG-CC-PVTZ AUX)
    Blend: AUG-CC-PVTZ-RI
    Molecular point group: c1

    Geometry (in Angstrom), charge = 0, multiplicity = 1:

       Center              X                  Y                   Z               Mass
    ------------   -----------------  -----------------  -----------------  -----------------
         N           -1.561238076773    -1.069877083701     0.000001842760    14.003074004430
         C            0.983324923227     1.440658916299    -0.000000157240    12.000000000000
         C            2.157318923227     0.700987916299     0.000001842760    12.000000000000
         C            2.180621723227    -0.796861283701    -0.000004957240    12.000000000000
         C            0.936294923227    -1.413316083701    -0.000000157240    12.000000000000
         C           -0.246275076773    -0.661925083701    -0.000000157240    12.000000000000
         C           -0.250343076773     0.761597916299     0.000014842760    12.000000000000
         C           -1.618804076773     1.176888916299    -0.000008157240    12.000000000000
         C           -2.386673076773     0.035323916299    -0.000005157240    12.000000000000
         H            1.014057923227     2.528792916299     0.000004842760     1.007825032230
         H            3.115914923227     1.214751916299    -0.000005157240     1.007825032230
         H            3.073741923227    -1.260041083701    -0.000005157240     1.007825032230
         H            0.920228923227    -2.501779083701    -0.000004157240     1.007825032230
         H           -1.995605076773     2.191837916299    -0.000013157240     1.007825032230
         H           -1.875026076773    -2.031179083701     0.000017842760     1.007825032230
         H           -3.462947076773    -0.081553083701     0.000003842760     1.007825032230

  Basis Set: AUG-CC-PVTZ
    Blend: AUG-CC-PVTZ
  Basis Set: (AUG-CC-PVTZ AUX)
    Blend: AUG-CC-PVTZ-JKFIT
	 Reference Energy          =    -361.5769383288169365 [Eh]
	 Singles Energy            =      -0.0000000000000000 [Eh]
	 Same-Spin Energy          =      -0.4078228901220797 [Eh]
	 Opposite-Spin Energy      =      -1.2488563714800351 [Eh]
	 Correlation Energy        =      -1.6566792616021149 [Eh]
	 Total Energy              =    -363.2336175904190441 [Eh]

	 ================> DF-SCS-MP2 Energies <==================
	-----------------------------------------------------------
	 SCS Same-Spin Scale       =       0.3333333333333333 [-]
	 SCS Opposite-Spin Scale   =       1.2000000000000000 [-]
	 SCS Same-Spin Energy      =      -0.1359409633740266 [Eh]
	 SCS Opposite-Spin Energy  =      -1.4986276457760421 [Eh]
	 SCS Correlation Energy    =      -1.6345686091500686 [Eh]
	 SCS Total Energy          =    -363.2115069379669876 [Eh]
	-----------------------------------------------------------

  Dipole Moment: [D]
     X:    -1.4971      Y:    -1.5534      Z:     0.0000     Total:     2.1574

*** Psi4 exiting successfully. Buy a developer a beer!
