                               Psi4 1.4a3.dev225

  ==> Input File <==

--------------------------------------------------------------------------
#psi4
#
memory 32 gb

molecule  {
0 1
  N       -1.5630850    -1.0784890    -0.0000040
  C        0.9811620     1.4317850    -0.0000050
  C        2.1553110     0.6923450     0.0000000
  C        2.1328040    -0.7200770     0.0000000
  C        0.9346070    -1.4219960     0.0000040
  C       -0.2479390    -0.6706250     0.0000000
  C       -0.2522910     0.7524290     0.0000030
  C       -1.6208000     1.1677860     0.0000050
  C       -2.3888340     0.0267020    -0.0000020
  H        1.0113780     2.5197500    -0.0000020
  H        3.1578755     1.2295697    -0.0000052
  H        3.0720020    -1.2682500     0.0000030
  H        0.9188940    -2.5102320     0.0000020
  H       -1.9966350     2.1828910     0.0000100
  H       -1.8770410    -2.0396260     0.0000000
  H       -3.4649170    -0.0911630    -0.0000050
units angstrom
no_reorient  #important for SAPT in psi4, default
symmetry c1  #important for SAPT in psi4, default
}

set PROPERTIES_ORIGIN ["COM"]
properties('MP2/aug-cc-pvtz', properties = ['dipole'])
--------------------------------------------------------------------------

    Molecular point group: c1
  Charge       = 0
  Multiplicity = 1
  Basis Set: AUG-CC-PVTZ
    Blend: AUG-CC-PVTZ
  Basis Set: (AUG-CC-PVTZ AUX)
    Blend: AUG-CC-PVTZ-JKFIT

    Orbital Energies [Eh]
    ---------------------

    Doubly Occupied:

       1A    -15.605820     2A    -11.273373     3A    -11.267323
       4A    -11.233931     5A    -11.232232     6A    -11.230971
       7A    -11.228118     8A    -11.227564     9A    -11.219006
      10A     -1.296416    11A     -1.128520    12A     -1.056279
      13A     -0.995220    14A     -0.974629    15A     -0.841348
      16A     -0.805807    17A     -0.787251    18A     -0.727529
      19A     -0.660813    20A     -0.642752    21A     -0.602054
      22A     -0.595053    23A     -0.584257    24A     -0.574217
      25A     -0.550228    26A     -0.503024    27A     -0.482600
      28A     -0.465307    29A     -0.386317    30A     -0.301813
      31A     -0.283329

  @DF-RHF Final Energy:  -361.58685671311707

   => Energetics <=

    Nuclear Repulsion Energy =            399.7779797106709907
    One-Electron Energy =               -1281.2034716978394044
    Two-Electron Energy =                 519.8386352740513985
    Total Energy =                       -361.5868567131170721
  Basis Set: (AUG-CC-PVTZ AUX)
    Blend: AUG-CC-PVTZ-RI
    Molecular point group: c1

    Geometry (in Angstrom), charge = 0, multiplicity = 1:

       Center              X                  Y                   Z               Mass
    ------------   -----------------  -----------------  -----------------  -----------------
         N           -1.556833648818    -1.078669645075    -0.000004058173    14.003074004430
         C            0.987413351182     1.431604354925    -0.000005058173    12.000000000000
         C            2.161562351182     0.692164354925    -0.000000058173    12.000000000000
         C            2.139055351182    -0.720257645075    -0.000000058173    12.000000000000
         C            0.940858351182    -1.422176645075     0.000003941827    12.000000000000
         C           -0.241687648818    -0.670805645075    -0.000000058173    12.000000000000
         C           -0.246039648818     0.752248354925     0.000002941827    12.000000000000
         C           -1.614548648818     1.167605354925     0.000004941827    12.000000000000
         C           -2.382582648818     0.026521354925    -0.000002058173    12.000000000000
         H            1.017629351182     2.519569354925    -0.000002058173     1.007825032230
         H            3.164126851182     1.229389054925    -0.000005258173     1.007825032230
         H            3.078253351182    -1.268430645075     0.000002941827     1.007825032230
         H            0.925145351182    -2.510412645075     0.000001941827     1.007825032230
         H           -1.990383648818     2.182710354925     0.000009941827     1.007825032230
         H           -1.870789648818    -2.039806645075    -0.000000058173     1.007825032230
         H           -3.458665648818    -0.091343645075    -0.000005058173     1.007825032230

  Basis Set: AUG-CC-PVTZ
    Blend: AUG-CC-PVTZ
  Basis Set: (AUG-CC-PVTZ AUX)
    Blend: AUG-CC-PVTZ-JKFIT
	 Reference Energy          =    -361.5868567131170721 [Eh]
	 Singles Energy            =      -0.0000000000000000 [Eh]
	 Same-Spin Energy          =      -0.4080579044197388 [Eh]
	 Opposite-Spin Energy      =      -1.2482913464254435 [Eh]
	 Correlation Energy        =      -1.6563492508451823 [Eh]
	 Total Energy              =    -363.2432059639622821 [Eh]

	 ================> DF-SCS-MP2 Energies <==================
	-----------------------------------------------------------
	 SCS Same-Spin Scale       =       0.3333333333333333 [-]
	 SCS Opposite-Spin Scale   =       1.2000000000000000 [-]
	 SCS Same-Spin Energy      =      -0.1360193014732463 [Eh]
	 SCS Opposite-Spin Energy  =      -1.4979496157105321 [Eh]
	 SCS Correlation Energy    =      -1.6339689171837783 [Eh]
	 SCS Total Energy          =    -363.2208256303008511 [Eh]
	-----------------------------------------------------------

  Dipole Moment: [D]
     X:    -1.5089      Y:    -1.5585      Z:     0.0000     Total:     2.1693

*** Psi4 exiting successfully. Buy a developer a beer!
