                               Psi4 1.3.2 release

  ==> Input File <==

--------------------------------------------------------------------------
#psi4
#
memory 32 gb

molecule  {
0 1
  N       -1.5631460    -1.0786450     0.0000020
  C        0.9814170     1.4318910     0.0000000
  C        2.1554110     0.6922200     0.0000020
  C        2.1994698    -0.8494311    -0.0000047
  C        0.9343870    -1.4220840     0.0000000
  C       -0.2481830    -0.6706930     0.0000000
  C       -0.2522510     0.7528300     0.0000150
  C       -1.6207120     1.1681210    -0.0000080
  C       -2.3885810     0.0265560    -0.0000050
  H        1.0121500     2.5200250     0.0000050
  H        3.1140070     1.2059840    -0.0000050
  H        3.0718340    -1.2688090    -0.0000050
  H        0.9183210    -2.5105470    -0.0000040
  H       -1.9975130     2.1830700    -0.0000130
  H       -1.8769340    -2.0399470     0.0000180
  H       -3.4648550    -0.0903210     0.0000040
units angstrom
no_reorient  #important for SAPT in psi4, default
symmetry c1  #important for SAPT in psi4, default
}

set PROPERTIES_ORIGIN ["COM"]
properties('MP2/aug-cc-pvtz', properties = ['dipole'])
--------------------------------------------------------------------------

    Molecular point group: c1
  Charge       = 0
  Multiplicity = 1
  Basis Set: AUG-CC-PVTZ
    Blend: AUG-CC-PVTZ
  Basis Set: (AUG-CC-PVTZ AUX)
    Blend: AUG-CC-PVTZ-JKFIT

    Orbital Energies [Eh]
    ---------------------

    Doubly Occupied:

       1A    -15.609093     2A    -11.273357     3A    -11.266970
       4A    -11.238685     5A    -11.234284     6A    -11.233470
       7A    -11.231094     8A    -11.228094     9A    -11.219456
      10A     -1.297012    11A     -1.118253    12A     -1.056505
      13A     -0.990216    14A     -0.977005    15A     -0.837375
      16A     -0.816426    17A     -0.789649    18A     -0.725423
      19A     -0.681208    20A     -0.643854    21A     -0.601944
      22A     -0.590262    23A     -0.584382    24A     -0.576328
      25A     -0.560953    26A     -0.515041    27A     -0.463742
      28A     -0.455688    29A     -0.387026    30A     -0.298150
      31A     -0.283379

  @DF-RHF Final Energy:  -361.56188355018253

   => Energetics <=

    Nuclear Repulsion Energy =            397.8935503340915147
    One-Electron Energy =               -1277.3422258605237403
    Two-Electron Energy =                 517.8867919762496967
    Total Energy =                       -361.5618835501825288
  Basis Set: (AUG-CC-PVTZ AUX)
    Blend: AUG-CC-PVTZ-RI
    Molecular point group: c1

    Geometry (in Angstrom), charge = 0, multiplicity = 1:

       Center              X                  Y                   Z               Mass
    ------------   -----------------  -----------------  -----------------  -----------------
         N           -1.563365845237    -1.065386801303     0.000001832509    14.003074004430
         C            0.981197154763     1.445149198697    -0.000000167491    12.000000000000
         C            2.155191154763     0.705478198697     0.000001832509    12.000000000000
         C            2.199249954763    -0.836172901303    -0.000004867491    12.000000000000
         C            0.934167154763    -1.408825801303    -0.000000167491    12.000000000000
         C           -0.248402845237    -0.657434801303    -0.000000167491    12.000000000000
         C           -0.252470845237     0.766088198697     0.000014832509    12.000000000000
         C           -1.620931845237     1.181379198697    -0.000008167491    12.000000000000
         C           -2.388800845237     0.039814198697    -0.000005167491    12.000000000000
         H            1.011930154763     2.533283198697     0.000004832509     1.007825032230
         H            3.113787154763     1.219242198697    -0.000005167491     1.007825032230
         H            3.071614154763    -1.255550801303    -0.000005167491     1.007825032230
         H            0.918101154763    -2.497288801303    -0.000004167491     1.007825032230
         H           -1.997732845237     2.196328198697    -0.000013167491     1.007825032230
         H           -1.877153845237    -2.026688801303     0.000017832509     1.007825032230
         H           -3.465074845237    -0.077062801303     0.000003832509     1.007825032230

  Basis Set: AUG-CC-PVTZ
    Blend: AUG-CC-PVTZ
  Basis Set: (AUG-CC-PVTZ AUX)
    Blend: AUG-CC-PVTZ-JKFIT
	 Reference Energy          =    -361.5618835501825288 [Eh]
	 Singles Energy            =      -0.0000000000000000 [Eh]
	 Same-Spin Energy          =      -0.4078530147765349 [Eh]
	 Opposite-Spin Energy      =      -1.2498406864979319 [Eh]
	 Correlation Energy        =      -1.6576937012744668 [Eh]
	 Total Energy              =    -363.2195772514569967 [Eh]

	 ================> DF-SCS-MP2 Energies <==================
	-----------------------------------------------------------
	 SCS Same-Spin Scale       =       0.3333333333333333 [-]
	 SCS Opposite-Spin Scale   =       1.2000000000000000 [-]
	 SCS Same-Spin Energy      =      -0.1359510049255116 [Eh]
	 SCS Opposite-Spin Energy  =      -1.4998088237975182 [Eh]
	 SCS Correlation Energy    =      -1.6357598287230299 [Eh]
	 SCS Total Energy          =    -363.1976433789055818 [Eh]
	-----------------------------------------------------------

  Dipole Moment: [D]
     X:    -1.5148      Y:    -1.5503      Z:     0.0000     Total:     2.1675

*** Psi4 exiting successfully. Buy a developer a beer!
