                               Psi4 1.3.2 release

  ==> Input File <==

--------------------------------------------------------------------------
#psi4
#
memory 32 gb

molecule  {
0 1
  N       -1.5631460    -1.0786450     0.0000020
  C        0.9814170     1.4318910     0.0000000
  C        2.1554110     0.6922200     0.0000020
  C        2.1326810    -0.7203310    -0.0000050
  C        0.9343870    -1.4220840     0.0000000
  C       -0.2481830    -0.6706930     0.0000000
  C       -0.2522510     0.7528300     0.0000150
  C       -1.6207120     1.1681210    -0.0000080
  C       -2.3885810     0.0265560    -0.0000050
  H        1.0121500     2.5200250     0.0000050
  H        3.1140070     1.2059840    -0.0000050
  H        3.0718340    -1.2688090    -0.0000050
  H        0.9183210    -2.5105470    -0.0000040
  H       -1.9975130     2.1830700    -0.0000130
  H       -1.8459033    -1.9448833     0.0000164
  H       -3.4648550    -0.0903210     0.0000040
units angstrom
no_reorient  #important for SAPT in psi4, default
symmetry c1  #important for SAPT in psi4, default
}

set PROPERTIES_ORIGIN ["COM"]
properties('MP2/aug-cc-pvtz', properties = ['dipole'])
--------------------------------------------------------------------------

    Molecular point group: c1
  Charge       = 0
  Multiplicity = 1
  Basis Set: AUG-CC-PVTZ
    Blend: AUG-CC-PVTZ
  Basis Set: (AUG-CC-PVTZ AUX)
    Blend: AUG-CC-PVTZ-JKFIT

    Orbital Energies [Eh]
    ---------------------

    Doubly Occupied:

       1A    -15.595819     2A    -11.273556     3A    -11.267502
       4A    -11.234076     5A    -11.232084     6A    -11.230883
       7A    -11.227711     8A    -11.222929     9A    -11.219550
      10A     -1.304940    11A     -1.131245    12A     -1.061900
      13A     -1.000562    14A     -0.975760    15A     -0.846587
      16A     -0.818852    17A     -0.790664    18A     -0.734411
      19A     -0.663368    20A     -0.647897    21A     -0.607007
      22A     -0.596548    23A     -0.585404    24A     -0.575389
      25A     -0.550713    26A     -0.508292    27A     -0.483425
      28A     -0.465804    29A     -0.386839    30A     -0.302482
      31A     -0.283691

  @DF-RHF Final Energy:  -361.58293020458814

   => Energetics <=

    Nuclear Repulsion Energy =            400.6563493247830934
    One-Electron Energy =               -1282.8267791316898183
    Two-Electron Energy =                 520.5874996023185304
    Total Energy =                       -361.5829302045881377
  Basis Set: (AUG-CC-PVTZ AUX)
    Blend: AUG-CC-PVTZ-RI
    Molecular point group: c1

    Geometry (in Angstrom), charge = 0, multiplicity = 1:

       Center              X                  Y                   Z               Mass
    ------------   -----------------  -----------------  -----------------  -----------------
         N           -1.556786260110    -1.079439757062     0.000001877038    14.003074004430
         C            0.987776739890     1.431096242938    -0.000000122962    12.000000000000
         C            2.161770739890     0.691425242938     0.000001877038    12.000000000000
         C            2.139040739890    -0.721125757062    -0.000005122962    12.000000000000
         C            0.940746739890    -1.422878757062    -0.000000122962    12.000000000000
         C           -0.241823260110    -0.671487757062    -0.000000122962    12.000000000000
         C           -0.245891260110     0.752035242938     0.000014877038    12.000000000000
         C           -1.614352260110     1.167326242938    -0.000008122962    12.000000000000
         C           -2.382221260110     0.025761242938    -0.000005122962    12.000000000000
         H            1.018509739890     2.519230242938     0.000004877038     1.007825032230
         H            3.120366739890     1.205189242938    -0.000005122962     1.007825032230
         H            3.078193739890    -1.269603757062    -0.000005122962     1.007825032230
         H            0.924680739890    -2.511341757062    -0.000004122962     1.007825032230
         H           -1.991153260110     2.182275242938    -0.000013122962     1.007825032230
         H           -1.839543560110    -1.945678057062     0.000016277038     1.007825032230
         H           -3.458495260110    -0.091115757062     0.000003877038     1.007825032230

  Basis Set: AUG-CC-PVTZ
    Blend: AUG-CC-PVTZ
  Basis Set: (AUG-CC-PVTZ AUX)
    Blend: AUG-CC-PVTZ-JKFIT
	 Reference Energy          =    -361.5829302045881377 [Eh]
	 Singles Energy            =      -0.0000000000000000 [Eh]
	 Same-Spin Energy          =      -0.4071758504141806 [Eh]
	 Opposite-Spin Energy      =      -1.2461624375306930 [Eh]
	 Correlation Energy        =      -1.6533382879448735 [Eh]
	 Total Energy              =    -363.2362684925329859 [Eh]

	 ================> DF-SCS-MP2 Energies <==================
	-----------------------------------------------------------
	 SCS Same-Spin Scale       =       0.3333333333333333 [-]
	 SCS Opposite-Spin Scale   =       1.2000000000000000 [-]
	 SCS Same-Spin Energy      =      -0.1357252834713935 [Eh]
	 SCS Opposite-Spin Energy  =      -1.4953949250368315 [Eh]
	 SCS Correlation Energy    =      -1.6311202085082250 [Eh]
	 SCS Total Energy          =    -363.2140504130963450 [Eh]
	-----------------------------------------------------------

  Dipole Moment: [D]
     X:    -1.4323      Y:    -1.4349      Z:     0.0000     Total:     2.0274

*** Psi4 exiting successfully. Buy a developer a beer!
