                               Psi4 1.3.2 release

  ==> Input File <==

--------------------------------------------------------------------------
#psi4
#
memory 32 gb

molecule  {
0 1
  N       -1.5631460    -1.0786450     0.0000020
  C        0.9814170     1.4318910     0.0000000
  C        2.1554110     0.6922200     0.0000020
  C        2.1326810    -0.7203310    -0.0000050
  C        0.9343870    -1.4220840     0.0000000
  C       -0.2978657    -0.6699678    -0.0000010
  C       -0.2522510     0.7528300     0.0000150
  C       -1.6207120     1.1681210    -0.0000080
  C       -2.3885810     0.0265560    -0.0000050
  H        1.0121500     2.5200250     0.0000050
  H        3.1140070     1.2059840    -0.0000050
  H        3.0718340    -1.2688090    -0.0000050
  H        0.9183210    -2.5105470    -0.0000040
  H       -1.9975130     2.1830700    -0.0000130
  H       -1.8769340    -2.0399470     0.0000180
  H       -3.4648550    -0.0903210     0.0000040
units angstrom
no_reorient  #important for SAPT in psi4, default
symmetry c1  #important for SAPT in psi4, default
}

set PROPERTIES_ORIGIN ["COM"]
properties('MP2/aug-cc-pvtz', properties = ['dipole'])
--------------------------------------------------------------------------

    Molecular point group: c1
  Charge       = 0
  Multiplicity = 1
  Basis Set: AUG-CC-PVTZ
    Blend: AUG-CC-PVTZ
  Basis Set: (AUG-CC-PVTZ AUX)
    Blend: AUG-CC-PVTZ-JKFIT

    Orbital Energies [Eh]
    ---------------------

    Doubly Occupied:

       1A    -15.609496     2A    -11.270220     3A    -11.267938
       4A    -11.236098     5A    -11.232274     6A    -11.230718
       7A    -11.224642     8A    -11.220935     9A    -11.220150
      10A     -1.311738    11A     -1.124716    12A     -1.056935
      13A     -0.992760    14A     -0.975343    15A     -0.845507
      16A     -0.804969    17A     -0.789440    18A     -0.729993
      19A     -0.668031    20A     -0.646865    21A     -0.600542
      22A     -0.592554    23A     -0.591789    24A     -0.572499
      25A     -0.551563    26A     -0.507666    27A     -0.478541
      28A     -0.463431    29A     -0.385950    30A     -0.295524
      31A     -0.286032

  @DF-RHF Final Energy:  -361.58580773958204

   => Energetics <=

    Nuclear Repulsion Energy =            400.1213245717340783
    One-Electron Energy =               -1281.8445470149467837
    Two-Electron Energy =                 520.1374147036307249
    Total Energy =                       -361.5858077395820374
  Basis Set: (AUG-CC-PVTZ AUX)
    Blend: AUG-CC-PVTZ-RI
    Molecular point group: c1

    Geometry (in Angstrom), charge = 0, multiplicity = 1:

       Center              X                  Y                   Z               Mass
    ------------   -----------------  -----------------  -----------------  -----------------
         N           -1.551425953899    -1.078695636296     0.000001965776    14.003074004430
         C            0.993137046101     1.431840363704    -0.000000034224    12.000000000000
         C            2.167131046101     0.692169363704     0.000001965776    12.000000000000
         C            2.144401046101    -0.720381636296    -0.000005034224    12.000000000000
         C            0.946107046101    -1.422134636296    -0.000000034224    12.000000000000
         C           -0.286145653899    -0.670018436296    -0.000001034224    12.000000000000
         C           -0.240530953899     0.752779363704     0.000014965776    12.000000000000
         C           -1.608991953899     1.168070363704    -0.000008034224    12.000000000000
         C           -2.376860953899     0.026505363704    -0.000005034224    12.000000000000
         H            1.023870046101     2.519974363704     0.000004965776     1.007825032230
         H            3.125727046101     1.205933363704    -0.000005034224     1.007825032230
         H            3.083554046101    -1.268859636296    -0.000005034224     1.007825032230
         H            0.930041046101    -2.510597636296    -0.000004034224     1.007825032230
         H           -1.985792953899     2.183019363704    -0.000013034224     1.007825032230
         H           -1.865213953899    -2.039997636296     0.000017965776     1.007825032230
         H           -3.453134953899    -0.090371636296     0.000003965776     1.007825032230

  Basis Set: AUG-CC-PVTZ
    Blend: AUG-CC-PVTZ
  Basis Set: (AUG-CC-PVTZ AUX)
    Blend: AUG-CC-PVTZ-JKFIT
	 Reference Energy          =    -361.5858077395820374 [Eh]
	 Singles Energy            =      -0.0000000000000000 [Eh]
	 Same-Spin Energy          =      -0.4079948477274365 [Eh]
	 Opposite-Spin Energy      =      -1.2479465484054526 [Eh]
	 Correlation Energy        =      -1.6559413961328890 [Eh]
	 Total Energy              =    -363.2417491357149402 [Eh]

	 ================> DF-SCS-MP2 Energies <==================
	-----------------------------------------------------------
	 SCS Same-Spin Scale       =       0.3333333333333333 [-]
	 SCS Opposite-Spin Scale   =       1.2000000000000000 [-]
	 SCS Same-Spin Energy      =      -0.1359982825758122 [Eh]
	 SCS Opposite-Spin Energy  =      -1.4975358580865430 [Eh]
	 SCS Correlation Energy    =      -1.6335341406623551 [Eh]
	 SCS Total Energy          =    -363.2193418802443716 [Eh]
	-----------------------------------------------------------

  Dipole Moment: [D]
     X:    -1.5960      Y:    -1.5984      Z:     0.0000     Total:     2.2588

*** Psi4 exiting successfully. Buy a developer a beer!
