                               Psi4 1.4a3.dev225

  ==> Input File <==

--------------------------------------------------------------------------
#psi4
#
memory 32 gb

molecule  {
0 1
  N       -1.5630850    -1.0784890    -0.0000040
  C        0.9811620     1.4317850    -0.0000050
  C        2.1553110     0.6923450     0.0000000
  C        2.1328040    -0.7200770     0.0000000
  C        0.9346070    -1.4219960     0.0000040
  C       -0.2479390    -0.6706250     0.0000000
  C       -0.2522910     0.7524290     0.0000030
  C       -1.6208000     1.1677860     0.0000050
  C       -2.3888340     0.0267020    -0.0000020
  H        1.0108228     2.4997577    -0.0000021
  H        3.1138040     1.2059540    -0.0000050
  H        3.0720020    -1.2682500     0.0000030
  H        0.9188940    -2.5102320     0.0000020
  H       -1.9966350     2.1828910     0.0000100
  H       -1.8770410    -2.0396260     0.0000000
  H       -3.4649170    -0.0911630    -0.0000050
units angstrom
no_reorient  #important for SAPT in psi4, default
symmetry c1  #important for SAPT in psi4, default
}

set PROPERTIES_ORIGIN ["COM"]
properties('MP2/aug-cc-pvtz', properties = ['dipole'])
--------------------------------------------------------------------------

    Molecular point group: c1
  Charge       = 0
  Multiplicity = 1
  Basis Set: AUG-CC-PVTZ
    Blend: AUG-CC-PVTZ
  Basis Set: (AUG-CC-PVTZ AUX)
    Blend: AUG-CC-PVTZ-JKFIT

    Orbital Energies [Eh]
    ---------------------

    Doubly Occupied:

       1A    -15.605549     2A    -11.273112     3A    -11.266935
       4A    -11.233464     5A    -11.230244     6A    -11.229365
       7A    -11.226928     8A    -11.222178     9A    -11.218723
      10A     -1.296118    11A     -1.128536    12A     -1.056032
      13A     -0.996744    14A     -0.974551    15A     -0.842955
      16A     -0.806122    17A     -0.788506    18A     -0.728729
      19A     -0.662309    20A     -0.647411    21A     -0.601886
      22A     -0.597295    23A     -0.583929    24A     -0.574456
      25A     -0.550033    26A     -0.507662    27A     -0.483625
      28A     -0.464799    29A     -0.385961    30A     -0.301429
      31A     -0.282972

  @DF-RHF Final Energy:  -361.58945898639524

   => Energetics <=

    Nuclear Repulsion Energy =            400.1258354372567396
    One-Electron Energy =               -1281.8934734602469234
    Two-Electron Energy =                 520.1781790365949973
    Total Energy =                       -361.5894589863952433
  Basis Set: (AUG-CC-PVTZ AUX)
    Blend: AUG-CC-PVTZ-RI
    Molecular point group: c1

    Geometry (in Angstrom), charge = 0, multiplicity = 1:

       Center              X                  Y                   Z               Mass
    ------------   -----------------  -----------------  -----------------  -----------------
         N           -1.556449429343    -1.078294196232    -0.000004059034    14.003074004430
         C            0.987797570657     1.431979803768    -0.000005059034    12.000000000000
         C            2.161946570657     0.692539803768    -0.000000059034    12.000000000000
         C            2.139439570657    -0.719882196232    -0.000000059034    12.000000000000
         C            0.941242570657    -1.421801196232     0.000003940966    12.000000000000
         C           -0.241303429343    -0.670430196232    -0.000000059034    12.000000000000
         C           -0.245655429343     0.752623803768     0.000002940966    12.000000000000
         C           -1.614164429343     1.167980803768     0.000004940966    12.000000000000
         C           -2.382198429343     0.026896803768    -0.000002059034    12.000000000000
         H            1.017458370657     2.499952503768    -0.000002159034     1.007825032230
         H            3.120439570657     1.206148803768    -0.000005059034     1.007825032230
         H            3.078637570657    -1.268055196232     0.000002940966     1.007825032230
         H            0.925529570657    -2.510037196232     0.000001940966     1.007825032230
         H           -1.989999429343     2.183085803768     0.000009940966     1.007825032230
         H           -1.870405429343    -2.039431196232    -0.000000059034     1.007825032230
         H           -3.458281429343    -0.090968196232    -0.000005059034     1.007825032230

  Basis Set: AUG-CC-PVTZ
    Blend: AUG-CC-PVTZ
  Basis Set: (AUG-CC-PVTZ AUX)
    Blend: AUG-CC-PVTZ-JKFIT
	 Reference Energy          =    -361.5894589863952433 [Eh]
	 Singles Energy            =      -0.0000000000000000 [Eh]
	 Same-Spin Energy          =      -0.4079268256314191 [Eh]
	 Opposite-Spin Energy      =      -1.2477313607942269 [Eh]
	 Correlation Energy        =      -1.6556581864256459 [Eh]
	 Total Energy              =    -363.2451171728208692 [Eh]

	 ================> DF-SCS-MP2 Energies <==================
	-----------------------------------------------------------
	 SCS Same-Spin Scale       =       0.3333333333333333 [-]
	 SCS Opposite-Spin Scale   =       1.2000000000000000 [-]
	 SCS Same-Spin Energy      =      -0.1359756085438064 [Eh]
	 SCS Opposite-Spin Energy  =      -1.4972776329530721 [Eh]
	 SCS Correlation Energy    =      -1.6332532414968786 [Eh]
	 SCS Total Energy          =    -363.2227122278921456 [Eh]
	-----------------------------------------------------------

  Dipole Moment: [D]
     X:    -1.4824      Y:    -1.5382      Z:     0.0000     Total:     2.1363

*** Psi4 exiting successfully. Buy a developer a beer!
