                               Psi4 1.3.2 release

  ==> Input File <==

--------------------------------------------------------------------------
#psi4
#
memory 32 gb

molecule  {
0 1
  N       -1.5631460    -1.0786450     0.0000020
  C        0.9814170     1.4318910     0.0000000
  C        2.1554110     0.6922200     0.0000020
  C        2.1564419    -0.7625783    -0.0000049
  C        0.9343870    -1.4220840     0.0000000
  C       -0.2481830    -0.6706930     0.0000000
  C       -0.2522510     0.7528300     0.0000150
  C       -1.6207120     1.1681210    -0.0000080
  C       -2.3885810     0.0265560    -0.0000050
  H        1.0121500     2.5200250     0.0000050
  H        3.1140070     1.2059840    -0.0000050
  H        3.0718340    -1.2688090    -0.0000050
  H        0.9183210    -2.5105470    -0.0000040
  H       -1.9975130     2.1830700    -0.0000130
  H       -1.8769340    -2.0399470     0.0000180
  H       -3.4648550    -0.0903210     0.0000040
units angstrom
no_reorient  #important for SAPT in psi4, default
symmetry c1  #important for SAPT in psi4, default
}

set PROPERTIES_ORIGIN ["COM"]
properties('MP2/aug-cc-pvtz', properties = ['dipole'])
--------------------------------------------------------------------------

    Molecular point group: c1
  Charge       = 0
  Multiplicity = 1
  Basis Set: AUG-CC-PVTZ
    Blend: AUG-CC-PVTZ
  Basis Set: (AUG-CC-PVTZ AUX)
    Blend: AUG-CC-PVTZ-JKFIT

    Orbital Energies [Eh]
    ---------------------

    Doubly Occupied:

       1A    -15.606800     2A    -11.273154     3A    -11.266968
       4A    -11.234929     5A    -11.231533     6A    -11.231319
       7A    -11.227467     8A    -11.226488     9A    -11.218963
      10A     -1.296440    11A     -1.124470    12A     -1.056068
      13A     -0.993659    14A     -0.975283    15A     -0.839571
      16A     -0.809596    17A     -0.788856    18A     -0.726859
      19A     -0.666798    20A     -0.646491    21A     -0.601712
      22A     -0.592847    23A     -0.584053    24A     -0.572130
      25A     -0.556571    26A     -0.511590    27A     -0.478274
      28A     -0.461408    29A     -0.386240    30A     -0.299564
      31A     -0.283599

  @DF-RHF Final Energy:  -361.58610481366162

   => Energetics <=

    Nuclear Repulsion Energy =            399.2632499746625285
    One-Electron Energy =               -1280.1593110129047091
    Two-Electron Energy =                 519.3099562245805600
    Total Energy =                       -361.5861048136615636
  Basis Set: (AUG-CC-PVTZ AUX)
    Blend: AUG-CC-PVTZ-RI
    Molecular point group: c1

    Geometry (in Angstrom), charge = 0, multiplicity = 1:

       Center              X                  Y                   Z               Mass
    ------------   -----------------  -----------------  -----------------  -----------------
         N           -1.558954908222    -1.074290378524     0.000001853012    14.003074004430
         C            0.985608091778     1.436245621476    -0.000000146988    12.000000000000
         C            2.159602091778     0.696574621476     0.000001853012    12.000000000000
         C            2.160632991778    -0.758223678524    -0.000005046988    12.000000000000
         C            0.938578091778    -1.417729378524    -0.000000146988    12.000000000000
         C           -0.243991908222    -0.666338378524    -0.000000146988    12.000000000000
         C           -0.248059908222     0.757184621476     0.000014853012    12.000000000000
         C           -1.616520908222     1.172475621476    -0.000008146988    12.000000000000
         C           -2.384389908222     0.030910621476    -0.000005146988    12.000000000000
         H            1.016341091778     2.524379621476     0.000004853012     1.007825032230
         H            3.118198091778     1.210338621476    -0.000005146988     1.007825032230
         H            3.076025091778    -1.264454378524    -0.000005146988     1.007825032230
         H            0.922512091778    -2.506192378524    -0.000004146988     1.007825032230
         H           -1.993321908222     2.187424621476    -0.000013146988     1.007825032230
         H           -1.872742908222    -2.035592378524     0.000017853012     1.007825032230
         H           -3.460663908222    -0.085966378524     0.000003853012     1.007825032230

  Basis Set: AUG-CC-PVTZ
    Blend: AUG-CC-PVTZ
  Basis Set: (AUG-CC-PVTZ AUX)
    Blend: AUG-CC-PVTZ-JKFIT
	 Reference Energy          =    -361.5861048136616205 [Eh]
	 Singles Energy            =      -0.0000000000000000 [Eh]
	 Same-Spin Energy          =      -0.4078670018174962 [Eh]
	 Opposite-Spin Energy      =      -1.2482018171536553 [Eh]
	 Correlation Energy        =      -1.6560688189711517 [Eh]
	 Total Energy              =    -363.2421736326327846 [Eh]

	 ================> DF-SCS-MP2 Energies <==================
	-----------------------------------------------------------
	 SCS Same-Spin Scale       =       0.3333333333333333 [-]
	 SCS Opposite-Spin Scale   =       1.2000000000000000 [-]
	 SCS Same-Spin Energy      =      -0.1359556672724987 [Eh]
	 SCS Opposite-Spin Energy  =      -1.4978421805843862 [Eh]
	 SCS Correlation Energy    =      -1.6337978478568851 [Eh]
	 SCS Total Energy          =    -363.2199026615185176 [Eh]
	-----------------------------------------------------------

  Dipole Moment: [D]
     X:    -1.4869      Y:    -1.5527      Z:     0.0000     Total:     2.1498

*** Psi4 exiting successfully. Buy a developer a beer!
