                               Psi4 1.3.2 release

  ==> Input File <==

--------------------------------------------------------------------------
#psi4
#
memory 32 gb

molecule  {
0 1
  N       -1.5765823    -1.0325049     0.0000019
  C        0.9814170     1.4318910     0.0000000
  C        2.1554110     0.6922200     0.0000020
  C        2.1326810    -0.7203310    -0.0000050
  C        0.9343870    -1.4220840     0.0000000
  C       -0.2481830    -0.6706930     0.0000000
  C       -0.2522510     0.7528300     0.0000150
  C       -1.6207120     1.1681210    -0.0000080
  C       -2.3885810     0.0265560    -0.0000050
  H        1.0121500     2.5200250     0.0000050
  H        3.1140070     1.2059840    -0.0000050
  H        3.0718340    -1.2688090    -0.0000050
  H        0.9183210    -2.5105470    -0.0000040
  H       -1.9975130     2.1830700    -0.0000130
  H       -1.8769340    -2.0399470     0.0000180
  H       -3.4648550    -0.0903210     0.0000040
units angstrom
no_reorient  #important for SAPT in psi4, default
symmetry c1  #important for SAPT in psi4, default
}

set PROPERTIES_ORIGIN ["COM"]
properties('MP2/aug-cc-pvtz', properties = ['dipole'])
--------------------------------------------------------------------------

    Molecular point group: c1
  Charge       = 0
  Multiplicity = 1
  Basis Set: AUG-CC-PVTZ
    Blend: AUG-CC-PVTZ
  Basis Set: (AUG-CC-PVTZ AUX)
    Blend: AUG-CC-PVTZ-JKFIT

    Orbital Energies [Eh]
    ---------------------

    Doubly Occupied:

       1A    -15.610341     2A    -11.270042     3A    -11.265223
       4A    -11.235421     5A    -11.230496     6A    -11.230050
       7A    -11.225970     8A    -11.222647     9A    -11.213613
      10A     -1.307534    11A     -1.129296    12A     -1.052100
      13A     -0.998151    14A     -0.974815    15A     -0.844916
      16A     -0.800390    17A     -0.789997    18A     -0.726270
      19A     -0.663577    20A     -0.648000    21A     -0.603778
      22A     -0.592438    23A     -0.590642    24A     -0.571023
      25A     -0.550013    26A     -0.507944    27A     -0.480376
      28A     -0.467290    29A     -0.383396    30A     -0.303492
      31A     -0.279737

  @DF-RHF Final Energy:  -361.58485347943571

   => Energetics <=

    Nuclear Repulsion Energy =            400.7413033232226667
    One-Electron Energy =               -1283.1143580538455353
    Two-Electron Energy =                 520.7882012511871608
    Total Energy =                       -361.5848534794357647
  Basis Set: (AUG-CC-PVTZ AUX)
    Blend: AUG-CC-PVTZ-RI
    Molecular point group: c1

    Geometry (in Angstrom), charge = 0, multiplicity = 1:

       Center              X                  Y                   Z               Mass
    ------------   -----------------  -----------------  -----------------  -----------------
         N           -1.568348076503    -1.038000714377     0.000001775225    14.003074004430
         C            0.989651223497     1.426395185623    -0.000000124775    12.000000000000
         C            2.163645223497     0.686724185623     0.000001875225    12.000000000000
         C            2.140915223497    -0.725826814377    -0.000005124775    12.000000000000
         C            0.942621223497    -1.427579814377    -0.000000124775    12.000000000000
         C           -0.239948776503    -0.676188814377    -0.000000124775    12.000000000000
         C           -0.244016776503     0.747334185623     0.000014875225    12.000000000000
         C           -1.612477776503     1.162625185623    -0.000008124775    12.000000000000
         C           -2.380346776503     0.021060185623    -0.000005124775    12.000000000000
         H            1.020384223497     2.514529185623     0.000004875225     1.007825032230
         H            3.122241223497     1.200488185623    -0.000005124775     1.007825032230
         H            3.080068223497    -1.274304814377    -0.000005124775     1.007825032230
         H            0.926555223497    -2.516042814377    -0.000004124775     1.007825032230
         H           -1.989278776503     2.177574185623    -0.000013124775     1.007825032230
         H           -1.868699776503    -2.045442814377     0.000017875225     1.007825032230
         H           -3.456620776503    -0.095816814377     0.000003875225     1.007825032230

  Basis Set: AUG-CC-PVTZ
    Blend: AUG-CC-PVTZ
  Basis Set: (AUG-CC-PVTZ AUX)
    Blend: AUG-CC-PVTZ-JKFIT
	 Reference Energy          =    -361.5848534794357079 [Eh]
	 Singles Energy            =      -0.0000000000000000 [Eh]
	 Same-Spin Energy          =      -0.4086731036225702 [Eh]
	 Opposite-Spin Energy      =      -1.2482376139869442 [Eh]
	 Correlation Energy        =      -1.6569107176095144 [Eh]
	 Total Energy              =    -363.2417641970451996 [Eh]

	 ================> DF-SCS-MP2 Energies <==================
	-----------------------------------------------------------
	 SCS Same-Spin Scale       =       0.3333333333333333 [-]
	 SCS Opposite-Spin Scale   =       1.2000000000000000 [-]
	 SCS Same-Spin Energy      =      -0.1362243678741901 [Eh]
	 SCS Opposite-Spin Energy  =      -1.4978851367843331 [Eh]
	 SCS Correlation Energy    =      -1.6341095046585232 [Eh]
	 SCS Total Energy          =    -363.2189629840942189 [Eh]
	-----------------------------------------------------------

  Dipole Moment: [D]
     X:    -1.5060      Y:    -1.6761      Z:     0.0000     Total:     2.2533

*** Psi4 exiting successfully. Buy a developer a beer!
