                               Psi4 1.4a3.dev225

  ==> Input File <==

--------------------------------------------------------------------------
#psi4
#
memory 32 gb

molecule  {
0 1
  N       -1.5630850    -1.0784890    -0.0000040
  C        0.9811620     1.4317850    -0.0000050
  C        2.1553110     0.6923450     0.0000000
  C        2.1328040    -0.7200770     0.0000000
  C        0.9346070    -1.4219960     0.0000040
  C       -0.2479390    -0.6706250     0.0000000
  C       -0.2522910     0.7524290     0.0000030
  C       -1.6208000     1.1677860     0.0000050
  C       -2.3888340     0.0267020    -0.0000020
  H        1.0119332     2.5397423    -0.0000019
  H        3.1138040     1.2059540    -0.0000050
  H        3.0720020    -1.2682500     0.0000030
  H        0.9188940    -2.5102320     0.0000020
  H       -1.9966350     2.1828910     0.0000100
  H       -1.8770410    -2.0396260     0.0000000
  H       -3.4649170    -0.0911630    -0.0000050
units angstrom
no_reorient  #important for SAPT in psi4, default
symmetry c1  #important for SAPT in psi4, default
}

set PROPERTIES_ORIGIN ["COM"]
properties('MP2/aug-cc-pvtz', properties = ['dipole'])
--------------------------------------------------------------------------

    Molecular point group: c1
  Charge       = 0
  Multiplicity = 1
  Basis Set: AUG-CC-PVTZ
    Blend: AUG-CC-PVTZ
  Basis Set: (AUG-CC-PVTZ AUX)
    Blend: AUG-CC-PVTZ-JKFIT

    Orbital Energies [Eh]
    ---------------------

    Doubly Occupied:

       1A    -15.605695     2A    -11.273203     3A    -11.267243
       4A    -11.233977     5A    -11.233619     6A    -11.230522
       7A    -11.227428     8A    -11.222553     9A    -11.218822
      10A     -1.296284    11A     -1.128489    12A     -1.055996
      13A     -0.996268    14A     -0.974155    15A     -0.841691
      16A     -0.806292    17A     -0.788436    18A     -0.725879
      19A     -0.661300    20A     -0.647565    21A     -0.601712
      22A     -0.593219    23A     -0.584111    24A     -0.574408
      25A     -0.550025    26A     -0.507894    27A     -0.481670
      28A     -0.465051    29A     -0.386114    30A     -0.301645
      31A     -0.283140

  @DF-RHF Final Energy:  -361.58866027253526

   => Energetics <=

    Nuclear Repulsion Energy =            399.9225304371311154
    One-Electron Energy =               -1281.4935667398128771
    Two-Electron Energy =                 519.9823760301464972
    Total Energy =                       -361.5886602725352077
  Basis Set: (AUG-CC-PVTZ AUX)
    Blend: AUG-CC-PVTZ-RI
    Molecular point group: c1

    Geometry (in Angstrom), charge = 0, multiplicity = 1:

       Center              X                  Y                   Z               Mass
    ------------   -----------------  -----------------  -----------------  -----------------
         N           -1.556458989479    -1.078638448933    -0.000004060756    14.003074004430
         C            0.987788010521     1.431635551067    -0.000005060756    12.000000000000
         C            2.161937010521     0.692195551067    -0.000000060756    12.000000000000
         C            2.139430010521    -0.720226448933    -0.000000060756    12.000000000000
         C            0.941233010521    -1.422145448933     0.000003939244    12.000000000000
         C           -0.241312989479    -0.670774448933    -0.000000060756    12.000000000000
         C           -0.245664989479     0.752279551067     0.000002939244    12.000000000000
         C           -1.614173989479     1.167636551067     0.000004939244    12.000000000000
         C           -2.382207989479     0.026552551067    -0.000002060756    12.000000000000
         H            1.018559210521     2.539592851067    -0.000001960756     1.007825032230
         H            3.120430010521     1.205804551067    -0.000005060756     1.007825032230
         H            3.078628010521    -1.268399448933     0.000002939244     1.007825032230
         H            0.925520010521    -2.510381448933     0.000001939244     1.007825032230
         H           -1.990008989479     2.182741551067     0.000009939244     1.007825032230
         H           -1.870414989479    -2.039775448933    -0.000000060756     1.007825032230
         H           -3.458290989479    -0.091312448933    -0.000005060756     1.007825032230

  Basis Set: AUG-CC-PVTZ
    Blend: AUG-CC-PVTZ
  Basis Set: (AUG-CC-PVTZ AUX)
    Blend: AUG-CC-PVTZ-JKFIT
	 Reference Energy          =    -361.5886602725352645 [Eh]
	 Singles Energy            =      -0.0000000000000000 [Eh]
	 Same-Spin Energy          =      -0.4080056714390446 [Eh]
	 Opposite-Spin Energy      =      -1.2480102289126844 [Eh]
	 Correlation Energy        =      -1.6560159003517290 [Eh]
	 Total Energy              =    -363.2446761728870115 [Eh]

	 ================> DF-SCS-MP2 Energies <==================
	-----------------------------------------------------------
	 SCS Same-Spin Scale       =       0.3333333333333333 [-]
	 SCS Opposite-Spin Scale   =       1.2000000000000000 [-]
	 SCS Same-Spin Energy      =      -0.1360018904796815 [Eh]
	 SCS Opposite-Spin Energy  =      -1.4976122746952212 [Eh]
	 SCS Correlation Energy    =      -1.6336141651749028 [Eh]
	 SCS Total Energy          =    -363.2222744377101549 [Eh]
	-----------------------------------------------------------

  Dipole Moment: [D]
     X:    -1.4860      Y:    -1.5542      Z:     0.0000     Total:     2.1503

*** Psi4 exiting successfully. Buy a developer a beer!
