                               Psi4 1.3.2 release

  ==> Input File <==

--------------------------------------------------------------------------
#psi4
#
memory 32 gb

molecule  {
0 1
  N       -1.5631460    -1.0786450     0.0000020
  C        0.9814170     1.4318910     0.0000000
  C        2.1554110     0.6922200     0.0000020
  C        2.1326810    -0.7203310    -0.0000050
  C        0.8493670    -1.5415800    -0.0000018
  C       -0.2481830    -0.6706930     0.0000000
  C       -0.2522510     0.7528300     0.0000150
  C       -1.6207120     1.1681210    -0.0000080
  C       -2.3885810     0.0265560    -0.0000050
  H        1.0121500     2.5200250     0.0000050
  H        3.1140070     1.2059840    -0.0000050
  H        3.0718340    -1.2688090    -0.0000050
  H        0.9183210    -2.5105470    -0.0000040
  H       -1.9975130     2.1830700    -0.0000130
  H       -1.8769340    -2.0399470     0.0000180
  H       -3.4648550    -0.0903210     0.0000040
units angstrom
no_reorient  #important for SAPT in psi4, default
symmetry c1  #important for SAPT in psi4, default
}

set PROPERTIES_ORIGIN ["COM"]
properties('MP2/aug-cc-pvtz', properties = ['dipole'])
--------------------------------------------------------------------------

    Molecular point group: c1
  Charge       = 0
  Multiplicity = 1
  Basis Set: AUG-CC-PVTZ
    Blend: AUG-CC-PVTZ
  Basis Set: (AUG-CC-PVTZ AUX)
    Blend: AUG-CC-PVTZ-JKFIT

    Orbital Energies [Eh]
    ---------------------

    Doubly Occupied:

       1A    -15.600084     2A    -11.274073     3A    -11.272368
       4A    -11.244452     5A    -11.235730     6A    -11.234484
       7A    -11.231291     8A    -11.224412     9A    -11.219135
      10A     -1.296087    11A     -1.118707    12A     -1.054262
      13A     -0.999402    14A     -0.964837    15A     -0.850507
      16A     -0.801637    17A     -0.789988    18A     -0.732898
      19A     -0.673690    20A     -0.640097    21A     -0.614695
      22A     -0.598660    23A     -0.582786    24A     -0.572439
      25A     -0.541552    26A     -0.501439    27A     -0.488889
      28A     -0.457276    29A     -0.382896    30A     -0.305800
      31A     -0.273229

  @DF-RHF Final Energy:  -361.55907199758531

   => Energetics <=

    Nuclear Repulsion Energy =            398.3695616804777160
    One-Electron Energy =               -1278.3016626795104003
    Two-Electron Energy =                 518.3730290014473212
    Total Energy =                       -361.5590719975853062
  Basis Set: (AUG-CC-PVTZ AUX)
    Blend: AUG-CC-PVTZ-RI
    Molecular point group: c1

    Geometry (in Angstrom), charge = 0, multiplicity = 1:

       Center              X                  Y                   Z               Mass
    ------------   -----------------  -----------------  -----------------  -----------------
         N           -1.547803406562    -1.066371350402     0.000002047787    14.003074004430
         C            0.996759593438     1.444164649598     0.000000047787    12.000000000000
         C            2.170753593438     0.704493649598     0.000002047787    12.000000000000
         C            2.148023593438    -0.708057350402    -0.000004952213    12.000000000000
         C            0.864709593438    -1.529306350402    -0.000001752213    12.000000000000
         C           -0.232840406562    -0.658419350402     0.000000047787    12.000000000000
         C           -0.236908406562     0.765103649598     0.000015047787    12.000000000000
         C           -1.605369406562     1.180394649598    -0.000007952213    12.000000000000
         C           -2.373238406562     0.038829649598    -0.000004952213    12.000000000000
         H            1.027492593438     2.532298649598     0.000005047787     1.007825032230
         H            3.129349593438     1.218257649598    -0.000004952213     1.007825032230
         H            3.087176593438    -1.256535350402    -0.000004952213     1.007825032230
         H            0.933663593438    -2.498273350402    -0.000003952213     1.007825032230
         H           -1.982170406562     2.195343649598    -0.000012952213     1.007825032230
         H           -1.861591406562    -2.027673350402     0.000018047787     1.007825032230
         H           -3.449512406562    -0.078047350402     0.000004047787     1.007825032230

  Basis Set: AUG-CC-PVTZ
    Blend: AUG-CC-PVTZ
  Basis Set: (AUG-CC-PVTZ AUX)
    Blend: AUG-CC-PVTZ-JKFIT
	 Reference Energy          =    -361.5590719975853062 [Eh]
	 Singles Energy            =      -0.0000000000000000 [Eh]
	 Same-Spin Energy          =      -0.4086155944132674 [Eh]
	 Opposite-Spin Energy      =      -1.2504761525166530 [Eh]
	 Correlation Energy        =      -1.6590917469299205 [Eh]
	 Total Energy              =    -363.2181637445152091 [Eh]

	 ================> DF-SCS-MP2 Energies <==================
	-----------------------------------------------------------
	 SCS Same-Spin Scale       =       0.3333333333333333 [-]
	 SCS Opposite-Spin Scale   =       1.2000000000000000 [-]
	 SCS Same-Spin Energy      =      -0.1362051981377558 [Eh]
	 SCS Opposite-Spin Energy  =      -1.5005713830199836 [Eh]
	 SCS Correlation Energy    =      -1.6367765811577395 [Eh]
	 SCS Total Energy          =    -363.1958485787430391 [Eh]
	-----------------------------------------------------------

  Dipole Moment: [D]
     X:    -1.5206      Y:    -1.5006      Z:     0.0000     Total:     2.1364

*** Psi4 exiting successfully. Buy a developer a beer!
