                               Psi4 1.3.2 release

  ==> Input File <==

--------------------------------------------------------------------------
#psi4
#
memory 32 gb

molecule  {
0 1
  N       -1.5631460    -1.0786450     0.0000020
  C        0.9814170     1.4318910     0.0000000
  C        2.1554110     0.6922200     0.0000020
  C        2.1326810    -0.7203310    -0.0000050
  C        0.9343870    -1.4220840     0.0000000
  C       -0.2481830    -0.6706930     0.0000000
  C       -0.2522510     0.7528300     0.0000150
  C       -1.6207120     1.1681210    -0.0000080
  C       -2.3885810     0.0265560    -0.0000050
  H        1.0121500     2.5200250     0.0000050
  H        2.9377286     1.1115068    -0.0000037
  H        3.0718340    -1.2688090    -0.0000050
  H        0.9183210    -2.5105470    -0.0000040
  H       -1.9975130     2.1830700    -0.0000130
  H       -1.8769340    -2.0399470     0.0000180
  H       -3.4648550    -0.0903210     0.0000040
units angstrom
no_reorient  #important for SAPT in psi4, default
symmetry c1  #important for SAPT in psi4, default
}

set PROPERTIES_ORIGIN ["COM"]
properties('MP2/aug-cc-pvtz', properties = ['dipole'])
--------------------------------------------------------------------------

    Molecular point group: c1
  Charge       = 0
  Multiplicity = 1
  Basis Set: AUG-CC-PVTZ
    Blend: AUG-CC-PVTZ
  Basis Set: (AUG-CC-PVTZ AUX)
    Blend: AUG-CC-PVTZ-JKFIT

    Orbital Energies [Eh]
    ---------------------

    Doubly Occupied:

       1A    -15.605258     2A    -11.272604     3A    -11.266633
       4A    -11.232430     5A    -11.230441     6A    -11.228982
       7A    -11.226190     8A    -11.218226     9A    -11.198070
      10A     -1.295751    11A     -1.130020    12A     -1.055343
      13A     -1.005925    14A     -0.973547    15A     -0.851056
      16A     -0.810473    17A     -0.793605    18A     -0.726520
      19A     -0.681037    20A     -0.655553    21A     -0.600986
      22A     -0.596119    23A     -0.583441    24A     -0.575288
      25A     -0.549576    26A     -0.522290    27A     -0.482268
      28A     -0.463946    29A     -0.385297    30A     -0.301042
      31A     -0.282220

  @DF-RHF Final Energy:  -361.55471573499113

   => Energetics <=

    Nuclear Repulsion Energy =            401.1564181130622160
    One-Electron Energy =               -1283.8219962756356836
    Two-Electron Energy =                 521.1108624275822194
    Total Energy =                       -361.5547157349911913
  Basis Set: (AUG-CC-PVTZ AUX)
    Blend: AUG-CC-PVTZ-RI
    Molecular point group: c1

    Geometry (in Angstrom), charge = 0, multiplicity = 1:

       Center              X                  Y                   Z               Mass
    ------------   -----------------  -----------------  -----------------  -----------------
         N           -1.555001405000    -1.077807879620     0.000001852070    14.003074004430
         C            0.989561595000     1.432728120380    -0.000000147930    12.000000000000
         C            2.163555595000     0.693057120380     0.000001852070    12.000000000000
         C            2.140825595000    -0.719493879620    -0.000005147930    12.000000000000
         C            0.942531595000    -1.421246879620    -0.000000147930    12.000000000000
         C           -0.240038405000    -0.669855879620    -0.000000147930    12.000000000000
         C           -0.244106405000     0.753667120380     0.000014852070    12.000000000000
         C           -1.612567405000     1.168958120380    -0.000008147930    12.000000000000
         C           -2.380436405000     0.027393120380    -0.000005147930    12.000000000000
         H            1.020294595000     2.520862120380     0.000004852070     1.007825032230
         H            2.945873195000     1.112343920380    -0.000003847930     1.007825032230
         H            3.079978595000    -1.267971879620    -0.000005147930     1.007825032230
         H            0.926465595000    -2.509709879620    -0.000004147930     1.007825032230
         H           -1.989368405000     2.183907120380    -0.000013147930     1.007825032230
         H           -1.868789405000    -2.039109879620     0.000017852070     1.007825032230
         H           -3.456710405000    -0.089483879620     0.000003852070     1.007825032230

  Basis Set: AUG-CC-PVTZ
    Blend: AUG-CC-PVTZ
  Basis Set: (AUG-CC-PVTZ AUX)
    Blend: AUG-CC-PVTZ-JKFIT
	 Reference Energy          =    -361.5547157349911345 [Eh]
	 Singles Energy            =      -0.0000000000000000 [Eh]
	 Same-Spin Energy          =      -0.4078174489465059 [Eh]
	 Opposite-Spin Energy      =      -1.2473513257849664 [Eh]
	 Correlation Energy        =      -1.6551687747314723 [Eh]
	 Total Energy              =    -363.2098845097225990 [Eh]

	 ================> DF-SCS-MP2 Energies <==================
	-----------------------------------------------------------
	 SCS Same-Spin Scale       =       0.3333333333333333 [-]
	 SCS Opposite-Spin Scale   =       1.2000000000000000 [-]
	 SCS Same-Spin Energy      =      -0.1359391496488353 [Eh]
	 SCS Opposite-Spin Energy  =      -1.4968215909419598 [Eh]
	 SCS Correlation Energy    =      -1.6327607405907951 [Eh]
	 SCS Total Energy          =    -363.1874764755819456 [Eh]
	-----------------------------------------------------------

  Dipole Moment: [D]
     X:    -1.4319      Y:    -1.5170      Z:     0.0000     Total:     2.0860

*** Psi4 exiting successfully. Buy a developer a beer!
