                               Psi4 1.3.2 release

  ==> Input File <==

--------------------------------------------------------------------------
#psi4
#
memory 32 gb

molecule  {
0 1
  N       -1.5631460    -1.0786450     0.0000020
  C        1.0651649     1.5505548     0.0000010
  C        2.1554110     0.6922200     0.0000020
  C        2.1326810    -0.7203310    -0.0000050
  C        0.9343870    -1.4220840     0.0000000
  C       -0.2481830    -0.6706930     0.0000000
  C       -0.2522510     0.7528300     0.0000150
  C       -1.6207120     1.1681210    -0.0000080
  C       -2.3885810     0.0265560    -0.0000050
  H        1.0121500     2.5200250     0.0000050
  H        3.1140070     1.2059840    -0.0000050
  H        3.0718340    -1.2688090    -0.0000050
  H        0.9183210    -2.5105470    -0.0000040
  H       -1.9975130     2.1830700    -0.0000130
  H       -1.8769340    -2.0399470     0.0000180
  H       -3.4648550    -0.0903210     0.0000040
units angstrom
no_reorient  #important for SAPT in psi4, default
symmetry c1  #important for SAPT in psi4, default
}

set PROPERTIES_ORIGIN ["COM"]
properties('MP2/aug-cc-pvtz', properties = ['dipole'])
--------------------------------------------------------------------------

    Molecular point group: c1
  Charge       = 0
  Multiplicity = 1
  Basis Set: AUG-CC-PVTZ
    Blend: AUG-CC-PVTZ
  Basis Set: (AUG-CC-PVTZ AUX)
    Blend: AUG-CC-PVTZ-JKFIT

    Orbital Energies [Eh]
    ---------------------

    Doubly Occupied:

       1A    -15.606483     2A    -11.270532     3A    -11.264630
       4A    -11.239193     5A    -11.236335     6A    -11.234937
       7A    -11.231680     8A    -11.227508     9A    -11.216729
      10A     -1.294606    11A     -1.119799    12A     -1.051175
      13A     -1.001183    14A     -0.968721    15A     -0.846566
      16A     -0.801963    17A     -0.781549    18A     -0.739049
      19A     -0.671768    20A     -0.643135    21A     -0.613689
      22A     -0.596163    23A     -0.581374    24A     -0.573726
      25A     -0.547356    26A     -0.501215    27A     -0.478239
      28A     -0.460338    29A     -0.378403    30A     -0.307513
      31A     -0.276912

  @DF-RHF Final Energy:  -361.56141185580043

   => Energetics <=

    Nuclear Repulsion Energy =            397.5565493618639721
    One-Electron Energy =               -1276.7109864033998292
    Two-Electron Energy =                 517.5930251857354278
    Total Energy =                       -361.5614118558004293
  Basis Set: (AUG-CC-PVTZ AUX)
    Blend: AUG-CC-PVTZ-RI
    Molecular point group: c1

    Geometry (in Angstrom), charge = 0, multiplicity = 1:

       Center              X                  Y                   Z               Mass
    ------------   -----------------  -----------------  -----------------  -----------------
         N           -1.565104380511    -1.090785925066     0.000001760750    14.003074004430
         C            1.063206519489     1.538413874934     0.000000760750    12.000000000000
         C            2.153452619489     0.680079074934     0.000001760750    12.000000000000
         C            2.130722619489    -0.732471925066    -0.000005239250    12.000000000000
         C            0.932428619489    -1.434224925066    -0.000000239250    12.000000000000
         C           -0.250141380511    -0.682833925066    -0.000000239250    12.000000000000
         C           -0.254209380511     0.740689074934     0.000014760750    12.000000000000
         C           -1.622670380511     1.155980074934    -0.000008239250    12.000000000000
         C           -2.390539380511     0.014415074934    -0.000005239250    12.000000000000
         H            1.010191619489     2.507884074934     0.000004760750     1.007825032230
         H            3.112048619489     1.193843074934    -0.000005239250     1.007825032230
         H            3.069875619489    -1.280949925066    -0.000005239250     1.007825032230
         H            0.916362619489    -2.522687925066    -0.000004239250     1.007825032230
         H           -1.999471380511     2.170929074934    -0.000013239250     1.007825032230
         H           -1.878892380511    -2.052087925066     0.000017760750     1.007825032230
         H           -3.466813380511    -0.102461925066     0.000003760750     1.007825032230

  Basis Set: AUG-CC-PVTZ
    Blend: AUG-CC-PVTZ
  Basis Set: (AUG-CC-PVTZ AUX)
    Blend: AUG-CC-PVTZ-JKFIT
	 Reference Energy          =    -361.5614118558004293 [Eh]
	 Singles Energy            =      -0.0000000000000000 [Eh]
	 Same-Spin Energy          =      -0.4080289249707053 [Eh]
	 Opposite-Spin Energy      =      -1.2499585839335321 [Eh]
	 Correlation Energy        =      -1.6579875089042373 [Eh]
	 Total Energy              =    -363.2193993647046568 [Eh]

	 ================> DF-SCS-MP2 Energies <==================
	-----------------------------------------------------------
	 SCS Same-Spin Scale       =       0.3333333333333333 [-]
	 SCS Opposite-Spin Scale   =       1.2000000000000000 [-]
	 SCS Same-Spin Energy      =      -0.1360096416569018 [Eh]
	 SCS Opposite-Spin Energy  =      -1.4999503007202384 [Eh]
	 SCS Correlation Energy    =      -1.6359599423771400 [Eh]
	 SCS Total Energy          =    -363.1973717981775849 [Eh]
	-----------------------------------------------------------

  Dipole Moment: [D]
     X:    -1.4195      Y:    -1.5255      Z:     0.0000     Total:     2.0838

*** Psi4 exiting successfully. Buy a developer a beer!
