                               Psi4 1.3.2 release

  ==> Input File <==

--------------------------------------------------------------------------
#psi4
#
memory 32 gb

molecule  {
0 1
  N       -1.5631460    -1.0786450     0.0000020
  C        0.9814170     1.4318910     0.0000000
  C        2.1554110     0.6922200     0.0000020
  C        2.1326810    -0.7203310    -0.0000050
  C        0.9343870    -1.4220840     0.0000000
  C       -0.0994066    -0.6624696     0.0000031
  C       -0.2522510     0.7528300     0.0000150
  C       -1.6207120     1.1681210    -0.0000080
  C       -2.3885810     0.0265560    -0.0000050
  H        1.0121500     2.5200250     0.0000050
  H        3.1140070     1.2059840    -0.0000050
  H        3.0718340    -1.2688090    -0.0000050
  H        0.9183210    -2.5105470    -0.0000040
  H       -1.9975130     2.1830700    -0.0000130
  H       -1.8769340    -2.0399470     0.0000180
  H       -3.4648550    -0.0903210     0.0000040
units angstrom
no_reorient  #important for SAPT in psi4, default
symmetry c1  #important for SAPT in psi4, default
}

set PROPERTIES_ORIGIN ["COM"]
properties('MP2/aug-cc-pvtz', properties = ['dipole'])
--------------------------------------------------------------------------

    Molecular point group: c1
  Charge       = 0
  Multiplicity = 1
  Basis Set: AUG-CC-PVTZ
    Blend: AUG-CC-PVTZ
  Basis Set: (AUG-CC-PVTZ AUX)
    Blend: AUG-CC-PVTZ-JKFIT

    Orbital Energies [Eh]
    ---------------------

    Doubly Occupied:

       1A    -15.592306     2A    -11.279944     3A    -11.266282
       4A    -11.235656     5A    -11.230835     6A    -11.230223
       7A    -11.226034     8A    -11.225049     9A    -11.215061
      10A     -1.260950    11A     -1.144634    12A     -1.058607
      13A     -1.005371    14A     -0.970649    15A     -0.838709
      16A     -0.808376    17A     -0.785484    18A     -0.722097
      19A     -0.652687    20A     -0.640876    21A     -0.622024
      22A     -0.591312    23A     -0.573910    24A     -0.568953
      25A     -0.541894    26A     -0.510777    27A     -0.479105
      28A     -0.470794    29A     -0.388730    30A     -0.317857
      31A     -0.274407

  @DF-RHF Final Energy:  -361.55883916194978

   => Energetics <=

    Nuclear Repulsion Energy =            400.0607399893040110
    One-Electron Energy =               -1281.7799730669948985
    Two-Electron Energy =                 520.1603939157411105
    Total Energy =                       -361.5588391619497770
  Basis Set: (AUG-CC-PVTZ AUX)
    Blend: AUG-CC-PVTZ-RI
    Molecular point group: c1

    Geometry (in Angstrom), charge = 0, multiplicity = 1:

       Center              X                  Y                   Z               Mass
    ------------   -----------------  -----------------  -----------------  -----------------
         N           -1.571770674186    -1.079464302392     0.000001545471    14.003074004430
         C            0.972792325814     1.431071697608    -0.000000454529    12.000000000000
         C            2.146786325814     0.691400697608     0.000001545471    12.000000000000
         C            2.124056325814    -0.721150302392    -0.000005454529    12.000000000000
         C            0.925762325814    -1.422903302392    -0.000000454529    12.000000000000
         C           -0.108031274186    -0.663288902392     0.000002645471    12.000000000000
         C           -0.260875674186     0.752010697608     0.000014545471    12.000000000000
         C           -1.629336674186     1.167301697608    -0.000008454529    12.000000000000
         C           -2.397205674186     0.025736697608    -0.000005454529    12.000000000000
         H            1.003525325814     2.519205697608     0.000004545471     1.007825032230
         H            3.105382325814     1.205164697608    -0.000005454529     1.007825032230
         H            3.063209325814    -1.269628302392    -0.000005454529     1.007825032230
         H            0.909696325814    -2.511366302392    -0.000004454529     1.007825032230
         H           -2.006137674186     2.182250697608    -0.000013454529     1.007825032230
         H           -1.885558674186    -2.040766302392     0.000017545471     1.007825032230
         H           -3.473479674186    -0.091140302392     0.000003545471     1.007825032230

  Basis Set: AUG-CC-PVTZ
    Blend: AUG-CC-PVTZ
  Basis Set: (AUG-CC-PVTZ AUX)
    Blend: AUG-CC-PVTZ-JKFIT
	 Reference Energy          =    -361.5588391619497770 [Eh]
	 Singles Energy            =      -0.0000000000000000 [Eh]
	 Same-Spin Energy          =      -0.4082351759971876 [Eh]
	 Opposite-Spin Energy      =      -1.2490629410400955 [Eh]
	 Correlation Energy        =      -1.6572981170372831 [Eh]
	 Total Energy              =    -363.2161372789870484 [Eh]

	 ================> DF-SCS-MP2 Energies <==================
	-----------------------------------------------------------
	 SCS Same-Spin Scale       =       0.3333333333333333 [-]
	 SCS Opposite-Spin Scale   =       1.2000000000000000 [-]
	 SCS Same-Spin Energy      =      -0.1360783919990625 [Eh]
	 SCS Opposite-Spin Energy  =      -1.4988755292481146 [Eh]
	 SCS Correlation Energy    =      -1.6349539212471771 [Eh]
	 SCS Total Energy          =    -363.1937930831969652 [Eh]
	-----------------------------------------------------------

  Dipole Moment: [D]
     X:    -1.0993      Y:    -1.4426      Z:     0.0000     Total:     1.8137

*** Psi4 exiting successfully. Buy a developer a beer!
