                               Psi4 1.3.2 release

  ==> Input File <==

--------------------------------------------------------------------------
#psi4
#
memory 32 gb

molecule  {
0 1
  N       -1.5884001    -0.9859241     0.0000019
  C        0.9814170     1.4318910     0.0000000
  C        2.1554110     0.6922200     0.0000020
  C        2.1326810    -0.7203310    -0.0000050
  C        0.9343870    -1.4220840     0.0000000
  C       -0.2481830    -0.6706930     0.0000000
  C       -0.2522510     0.7528300     0.0000150
  C       -1.6207120     1.1681210    -0.0000080
  C       -2.3885810     0.0265560    -0.0000050
  H        1.0121500     2.5200250     0.0000050
  H        3.1140070     1.2059840    -0.0000050
  H        3.0718340    -1.2688090    -0.0000050
  H        0.9183210    -2.5105470    -0.0000040
  H       -1.9975130     2.1830700    -0.0000130
  H       -1.8769340    -2.0399470     0.0000180
  H       -3.4648550    -0.0903210     0.0000040
units angstrom
no_reorient  #important for SAPT in psi4, default
symmetry c1  #important for SAPT in psi4, default
}

set PROPERTIES_ORIGIN ["COM"]
properties('MP2/aug-cc-pvtz', properties = ['dipole'])
--------------------------------------------------------------------------

    Molecular point group: c1
  Charge       = 0
  Multiplicity = 1
  Basis Set: AUG-CC-PVTZ
    Blend: AUG-CC-PVTZ
  Basis Set: (AUG-CC-PVTZ AUX)
    Blend: AUG-CC-PVTZ-JKFIT

    Orbital Energies [Eh]
    ---------------------

    Doubly Occupied:

       1A    -15.614976     2A    -11.266908     3A    -11.263573
       4A    -11.237421     5A    -11.229659     6A    -11.229314
       7A    -11.224771     8A    -11.222952     9A    -11.208371
      10A     -1.320670    11A     -1.130523    12A     -1.048331
      13A     -1.001452    14A     -0.974499    15A     -0.848708
      16A     -0.796392    17A     -0.789346    18A     -0.726078
      19A     -0.666320    20A     -0.648569    21A     -0.605506
      22A     -0.598384    23A     -0.589500    24A     -0.565967
      25A     -0.548823    26A     -0.508071    27A     -0.477827
      28A     -0.469716    29A     -0.380903    30A     -0.305773
      31A     -0.276187

  @DF-RHF Final Energy:  -361.57279048067625

   => Energetics <=

    Nuclear Repulsion Energy =            401.5392023322172577
    One-Electron Energy =               -1284.6730072159512019
    Two-Electron Energy =                 521.5610144030576976
    Total Energy =                       -361.5727904806763036
  Basis Set: (AUG-CC-PVTZ AUX)
    Blend: AUG-CC-PVTZ-RI
    Molecular point group: c1

    Geometry (in Angstrom), charge = 0, multiplicity = 1:

       Center              X                  Y                   Z               Mass
    ------------   -----------------  -----------------  -----------------  -----------------
         N           -1.578752169271    -0.996992154033     0.000001775225    14.003074004430
         C            0.991064930729     1.420822945967    -0.000000124775    12.000000000000
         C            2.165058930729     0.681151945967     0.000001875225    12.000000000000
         C            2.142328930729    -0.731399054033    -0.000005124775    12.000000000000
         C            0.944034930729    -1.433152054033    -0.000000124775    12.000000000000
         C           -0.238535069271    -0.681761054033    -0.000000124775    12.000000000000
         C           -0.242603069271     0.741761945967     0.000014875225    12.000000000000
         C           -1.611064069271     1.157052945967    -0.000008124775    12.000000000000
         C           -2.378933069271     0.015487945967    -0.000005124775    12.000000000000
         H            1.021797930729     2.508956945967     0.000004875225     1.007825032230
         H            3.123654930729     1.194915945967    -0.000005124775     1.007825032230
         H            3.081481930729    -1.279877054033    -0.000005124775     1.007825032230
         H            0.927968930729    -2.521615054033    -0.000004124775     1.007825032230
         H           -1.987865069271     2.172001945967    -0.000013124775     1.007825032230
         H           -1.867286069271    -2.051015054033     0.000017875225     1.007825032230
         H           -3.455207069271    -0.101389054033     0.000003875225     1.007825032230

  Basis Set: AUG-CC-PVTZ
    Blend: AUG-CC-PVTZ
  Basis Set: (AUG-CC-PVTZ AUX)
    Blend: AUG-CC-PVTZ-JKFIT
	 Reference Energy          =    -361.5727904806762467 [Eh]
	 Singles Energy            =      -0.0000000000000000 [Eh]
	 Same-Spin Energy          =      -0.4094788714733025 [Eh]
	 Opposite-Spin Energy      =      -1.2489022935908038 [Eh]
	 Correlation Energy        =      -1.6583811650641063 [Eh]
	 Total Energy              =    -363.2311716457403463 [Eh]

	 ================> DF-SCS-MP2 Energies <==================
	-----------------------------------------------------------
	 SCS Same-Spin Scale       =       0.3333333333333333 [-]
	 SCS Opposite-Spin Scale   =       1.2000000000000000 [-]
	 SCS Same-Spin Energy      =      -0.1364929571577675 [Eh]
	 SCS Opposite-Spin Energy  =      -1.4986827523089645 [Eh]
	 SCS Correlation Energy    =      -1.6351757094667321 [Eh]
	 SCS Total Energy          =    -363.2079661901429972 [Eh]
	-----------------------------------------------------------

  Dipole Moment: [D]
     X:    -1.5296      Y:    -1.7950      Z:     0.0000     Total:     2.3584

*** Psi4 exiting successfully. Buy a developer a beer!
