                               Psi4 1.4a3.dev225

  ==> Input File <==

--------------------------------------------------------------------------
#psi4
#
memory 32 gb

molecule  {
0 1
  N       -1.5630850    -1.0784890    -0.0000040
  C        0.9811620     1.4317850    -0.0000050
  C        2.1553110     0.6923450     0.0000000
  C        2.1328040    -0.7200770     0.0000000
  C        0.9346070    -1.4219960     0.0000040
  C       -0.2479390    -0.6706250     0.0000000
  C       -0.2522910     0.7524290     0.0000030
  C       -1.6208000     1.1677860     0.0000050
  C       -2.3888340     0.0267020    -0.0000020
  H        1.0113780     2.5197500    -0.0000020
  H        3.1138040     1.2059540    -0.0000050
  H        3.0720020    -1.2682500     0.0000030
  H        0.9181721    -2.5602268     0.0000019
  H       -1.9966350     2.1828910     0.0000100
  H       -1.8770410    -2.0396260     0.0000000
  H       -3.4649170    -0.0911630    -0.0000050
units angstrom
no_reorient  #important for SAPT in psi4, default
symmetry c1  #important for SAPT in psi4, default
}

set PROPERTIES_ORIGIN ["COM"]
properties('MP2/aug-cc-pvtz', properties = ['dipole'])
--------------------------------------------------------------------------

    Molecular point group: c1
  Charge       = 0
  Multiplicity = 1
  Basis Set: AUG-CC-PVTZ
    Blend: AUG-CC-PVTZ
  Basis Set: (AUG-CC-PVTZ AUX)
    Blend: AUG-CC-PVTZ-JKFIT

    Orbital Energies [Eh]
    ---------------------

    Doubly Occupied:

       1A    -15.605716     2A    -11.273335     3A    -11.267630
       4A    -11.239258     5A    -11.231873     6A    -11.230939
       7A    -11.227594     8A    -11.222749     9A    -11.218943
      10A     -1.296331    11A     -1.128596    12A     -1.055628
      13A     -0.996059    14A     -0.974234    15A     -0.840724
      16A     -0.806452    17A     -0.787995    18A     -0.725277
      19A     -0.660432    20A     -0.645753    21A     -0.601737
      22A     -0.590393    23A     -0.584212    24A     -0.574604
      25A     -0.550339    26A     -0.508063    27A     -0.480603
      28A     -0.465227    29A     -0.386272    30A     -0.301828
      31A     -0.283270

  @DF-RHF Final Energy:  -361.58682414404370

   => Energetics <=

    Nuclear Repulsion Energy =            399.7754415211413175
    One-Electron Energy =               -1281.2003983718577729
    Two-Electron Energy =                 519.8381327066726953
    Total Energy =                       -361.5868241440437032
  Basis Set: (AUG-CC-PVTZ AUX)
    Blend: AUG-CC-PVTZ-RI
    Molecular point group: c1

    Geometry (in Angstrom), charge = 0, multiplicity = 1:

       Center              X                  Y                   Z               Mass
    ------------   -----------------  -----------------  -----------------  -----------------
         N           -1.556447994118    -1.078035885741    -0.000004059034    14.003074004430
         C            0.987799005882     1.432238114259    -0.000005059034    12.000000000000
         C            2.161948005882     0.692798114259    -0.000000059034    12.000000000000
         C            2.139441005882    -0.719623885741    -0.000000059034    12.000000000000
         C            0.941244005882    -1.421542885741     0.000003940966    12.000000000000
         C           -0.241301994118    -0.670171885741    -0.000000059034    12.000000000000
         C           -0.245653994118     0.752882114259     0.000002940966    12.000000000000
         C           -1.614162994118     1.168239114259     0.000004940966    12.000000000000
         C           -2.382196994118     0.027155114259    -0.000002059034    12.000000000000
         H            1.018015005882     2.520203114259    -0.000002059034     1.007825032230
         H            3.120441005882     1.206407114259    -0.000005059034     1.007825032230
         H            3.078639005882    -1.267796885741     0.000002940966     1.007825032230
         H            0.924809105882    -2.559773685741     0.000001840966     1.007825032230
         H           -1.989997994118     2.183344114259     0.000009940966     1.007825032230
         H           -1.870403994118    -2.039172885741    -0.000000059034     1.007825032230
         H           -3.458279994118    -0.090709885741    -0.000005059034     1.007825032230

  Basis Set: AUG-CC-PVTZ
    Blend: AUG-CC-PVTZ
  Basis Set: (AUG-CC-PVTZ AUX)
    Blend: AUG-CC-PVTZ-JKFIT
	 Reference Energy          =    -361.5868241440437032 [Eh]
	 Singles Energy            =      -0.0000000000000000 [Eh]
	 Same-Spin Energy          =      -0.4080771417932698 [Eh]
	 Opposite-Spin Energy      =      -1.2482765810629239 [Eh]
	 Correlation Energy        =      -1.6563537228561938 [Eh]
	 Total Energy              =    -363.2431778668998845 [Eh]

	 ================> DF-SCS-MP2 Energies <==================
	-----------------------------------------------------------
	 SCS Same-Spin Scale       =       0.3333333333333333 [-]
	 SCS Opposite-Spin Scale   =       1.2000000000000000 [-]
	 SCS Same-Spin Energy      =      -0.1360257139310899 [Eh]
	 SCS Opposite-Spin Energy  =      -1.4979318972755087 [Eh]
	 SCS Correlation Energy    =      -1.6339576112065985 [Eh]
	 SCS Total Energy          =    -363.2207817552503002 [Eh]
	-----------------------------------------------------------

  Dipole Moment: [D]
     X:    -1.4858      Y:    -1.5238      Z:     0.0000     Total:     2.1283

*** Psi4 exiting successfully. Buy a developer a beer!
