                               Psi4 1.3.2 release

  ==> Input File <==

--------------------------------------------------------------------------
#psi4
#
memory 32 gb

molecule  {
0 1
  N       -1.5631460    -1.0786450     0.0000020
  C        0.9814170     1.4318910     0.0000000
  C        2.0568211     0.6903647     0.0000027
  C        2.1326810    -0.7203310    -0.0000050
  C        0.9343870    -1.4220840     0.0000000
  C       -0.2481830    -0.6706930     0.0000000
  C       -0.2522510     0.7528300     0.0000150
  C       -1.6207120     1.1681210    -0.0000080
  C       -2.3885810     0.0265560    -0.0000050
  H        1.0121500     2.5200250     0.0000050
  H        3.1140070     1.2059840    -0.0000050
  H        3.0718340    -1.2688090    -0.0000050
  H        0.9183210    -2.5105470    -0.0000040
  H       -1.9975130     2.1830700    -0.0000130
  H       -1.8769340    -2.0399470     0.0000180
  H       -3.4648550    -0.0903210     0.0000040
units angstrom
no_reorient  #important for SAPT in psi4, default
symmetry c1  #important for SAPT in psi4, default
}

set PROPERTIES_ORIGIN ["COM"]
properties('MP2/aug-cc-pvtz', properties = ['dipole'])
--------------------------------------------------------------------------

    Molecular point group: c1
  Charge       = 0
  Multiplicity = 1
  Basis Set: AUG-CC-PVTZ
    Blend: AUG-CC-PVTZ
  Basis Set: (AUG-CC-PVTZ AUX)
    Blend: AUG-CC-PVTZ-JKFIT

    Orbital Energies [Eh]
    ---------------------

    Doubly Occupied:

       1A    -15.605983     2A    -11.271827     3A    -11.264263
       4A    -11.235251     5A    -11.230356     6A    -11.226032
       7A    -11.221905     8A    -11.219962     9A    -11.217693
      10A     -1.295494    11A     -1.138749    12A     -1.056215
      13A     -1.003651    14A     -0.975028    15A     -0.838511
      16A     -0.807929    17A     -0.786689    18A     -0.729761
      19A     -0.661367    20A     -0.637757    21A     -0.609550
      22A     -0.597206    23A     -0.584339    24A     -0.573693
      25A     -0.552693    26A     -0.499942    27A     -0.473162
      28A     -0.470635    29A     -0.386459    30A     -0.306943
      31A     -0.282923

  @DF-RHF Final Energy:  -361.57665968548275

   => Energetics <=

    Nuclear Repulsion Energy =            401.7523299165792423
    One-Electron Energy =               -1285.1340408624064366
    Two-Electron Energy =                 521.8050512603443849
    Total Energy =                       -361.5766596854828094
  Basis Set: (AUG-CC-PVTZ AUX)
    Blend: AUG-CC-PVTZ-RI
    Molecular point group: c1

    Geometry (in Angstrom), charge = 0, multiplicity = 1:

       Center              X                  Y                   Z               Mass
    ------------   -----------------  -----------------  -----------------  -----------------
         N           -1.546412309758    -1.078431100425     0.000001791504    14.003074004430
         C            0.998150690242     1.432104899575    -0.000000208496    12.000000000000
         C            2.073554790242     0.690578599575     0.000002491504    12.000000000000
         C            2.149414690242    -0.720117100425    -0.000005208496    12.000000000000
         C            0.951120690242    -1.421870100425    -0.000000208496    12.000000000000
         C           -0.231449309758    -0.670479100425    -0.000000208496    12.000000000000
         C           -0.235517309758     0.753043899575     0.000014791504    12.000000000000
         C           -1.603978309758     1.168334899575    -0.000008208496    12.000000000000
         C           -2.371847309758     0.026769899575    -0.000005208496    12.000000000000
         H            1.028883690242     2.520238899575     0.000004791504     1.007825032230
         H            3.130740690242     1.206197899575    -0.000005208496     1.007825032230
         H            3.088567690242    -1.268595100425    -0.000005208496     1.007825032230
         H            0.935054690242    -2.510333100425    -0.000004208496     1.007825032230
         H           -1.980779309758     2.183283899575    -0.000013208496     1.007825032230
         H           -1.860200309758    -2.039733100425     0.000017791504     1.007825032230
         H           -3.448121309758    -0.090107100425     0.000003791504     1.007825032230

  Basis Set: AUG-CC-PVTZ
    Blend: AUG-CC-PVTZ
  Basis Set: (AUG-CC-PVTZ AUX)
    Blend: AUG-CC-PVTZ-JKFIT
	 Reference Energy          =    -361.5766596854827526 [Eh]
	 Singles Energy            =      -0.0000000000000000 [Eh]
	 Same-Spin Energy          =      -0.4081771644727232 [Eh]
	 Opposite-Spin Energy      =      -1.2481890260669548 [Eh]
	 Correlation Energy        =      -1.6563661905396780 [Eh]
	 Total Energy              =    -363.2330258760224524 [Eh]

	 ================> DF-SCS-MP2 Energies <==================
	-----------------------------------------------------------
	 SCS Same-Spin Scale       =       0.3333333333333333 [-]
	 SCS Opposite-Spin Scale   =       1.2000000000000000 [-]
	 SCS Same-Spin Energy      =      -0.1360590548242411 [Eh]
	 SCS Opposite-Spin Energy  =      -1.4978268312803458 [Eh]
	 SCS Correlation Energy    =      -1.6338858861045868 [Eh]
	 SCS Total Energy          =    -363.2105455715873177 [Eh]
	-----------------------------------------------------------

  Dipole Moment: [D]
     X:    -1.4756      Y:    -1.5814      Z:     0.0000     Total:     2.1629

*** Psi4 exiting successfully. Buy a developer a beer!
