                               Psi4 1.4a3.dev225

  ==> Input File <==

--------------------------------------------------------------------------
#psi4
#
memory 32 gb

molecule  {
0 1
  N       -1.5630850    -1.0784890    -0.0000040
  C        0.9811620     1.4317850    -0.0000050
  C        2.1553110     0.6923450     0.0000000
  C        2.1328040    -0.7200770     0.0000000
  C        0.9346070    -1.4219960     0.0000040
  C       -0.2479390    -0.6706250     0.0000000
  C       -0.2522910     0.7524290     0.0000030
  C       -1.6208000     1.1677860     0.0000050
  C       -2.3888340     0.0267020    -0.0000020
  H        1.0113780     2.5197500    -0.0000020
  H        3.1138040     1.2059540    -0.0000050
  H        3.0720020    -1.2682500     0.0000030
  H        0.9188940    -2.5102320     0.0000020
  H       -1.9966350     2.1828910     0.0000100
  H       -1.8770410    -2.0396260     0.0000000
  H       -3.4450359    -0.0889854    -0.0000049
units angstrom
no_reorient  #important for SAPT in psi4, default
symmetry c1  #important for SAPT in psi4, default
}

set PROPERTIES_ORIGIN ["COM"]
properties('MP2/aug-cc-pvtz', properties = ['dipole'])
--------------------------------------------------------------------------

    Molecular point group: c1
  Charge       = 0
  Multiplicity = 1
  Basis Set: AUG-CC-PVTZ
    Blend: AUG-CC-PVTZ
  Basis Set: (AUG-CC-PVTZ AUX)
    Blend: AUG-CC-PVTZ-JKFIT

    Orbital Energies [Eh]
    ---------------------

    Doubly Occupied:

       1A    -15.605466     2A    -11.270889     3A    -11.267013
       4A    -11.233484     5A    -11.231623     6A    -11.230352
       7A    -11.227093     8A    -11.222321     9A    -11.218666
      10A     -1.296131    11A     -1.128490    12A     -1.055992
      13A     -0.996563    14A     -0.974910    15A     -0.843232
      16A     -0.806859    17A     -0.788628    18A     -0.727971
      19A     -0.662897    20A     -0.648566    21A     -0.601782
      22A     -0.595302    23A     -0.583914    24A     -0.574846
      25A     -0.551095    26A     -0.507782    27A     -0.482654
      28A     -0.464868    29A     -0.385962    30A     -0.301479
      31A     -0.283015

  @DF-RHF Final Energy:  -361.58944820461937

   => Energetics <=

    Nuclear Repulsion Energy =            400.1270026729986853
    One-Electron Energy =               -1281.8932086746333425
    Two-Electron Energy =                 520.1767577970151706
    Total Energy =                       -361.5894482046194298
  Basis Set: (AUG-CC-PVTZ AUX)
    Blend: AUG-CC-PVTZ-RI
    Molecular point group: c1

    Geometry (in Angstrom), charge = 0, multiplicity = 1:

       Center              X                  Y                   Z               Mass
    ------------   -----------------  -----------------  -----------------  -----------------
         N           -1.556625378371    -1.078485070918    -0.000004060756    14.003074004430
         C            0.987621621629     1.431788929082    -0.000005060756    12.000000000000
         C            2.161770621629     0.692348929082    -0.000000060756    12.000000000000
         C            2.139263621629    -0.720073070918    -0.000000060756    12.000000000000
         C            0.941066621629    -1.421992070918     0.000003939244    12.000000000000
         C           -0.241479378371    -0.670621070918    -0.000000060756    12.000000000000
         C           -0.245831378371     0.752432929082     0.000002939244    12.000000000000
         C           -1.614340378371     1.167789929082     0.000004939244    12.000000000000
         C           -2.382374378371     0.026705929082    -0.000002060756    12.000000000000
         H            1.017837621629     2.519753929082    -0.000002060756     1.007825032230
         H            3.120263621629     1.205957929082    -0.000005060756     1.007825032230
         H            3.078461621629    -1.268246070918     0.000002939244     1.007825032230
         H            0.925353621629    -2.510228070918     0.000001939244     1.007825032230
         H           -1.990175378371     2.182894929082     0.000009939244     1.007825032230
         H           -1.870581378371    -2.039622070918    -0.000000060756     1.007825032230
         H           -3.438576278371    -0.088981470918    -0.000004960756     1.007825032230

  Basis Set: AUG-CC-PVTZ
    Blend: AUG-CC-PVTZ
  Basis Set: (AUG-CC-PVTZ AUX)
    Blend: AUG-CC-PVTZ-JKFIT
	 Reference Energy          =    -361.5894482046193730 [Eh]
	 Singles Energy            =      -0.0000000000000000 [Eh]
	 Same-Spin Energy          =      -0.4079224004734913 [Eh]
	 Opposite-Spin Energy      =      -1.2477120350446496 [Eh]
	 Correlation Energy        =      -1.6556344355181407 [Eh]
	 Total Energy              =    -363.2450826401375252 [Eh]

	 ================> DF-SCS-MP2 Energies <==================
	-----------------------------------------------------------
	 SCS Same-Spin Scale       =       0.3333333333333333 [-]
	 SCS Opposite-Spin Scale   =       1.2000000000000000 [-]
	 SCS Same-Spin Energy      =      -0.1359741334911637 [Eh]
	 SCS Opposite-Spin Energy  =      -1.4972544420535794 [Eh]
	 SCS Correlation Energy    =      -1.6332285755447431 [Eh]
	 SCS Total Energy          =    -363.2226767801641358 [Eh]
	-----------------------------------------------------------

  Dipole Moment: [D]
     X:    -1.4860      Y:    -1.5459      Z:     0.0000     Total:     2.1443

*** Psi4 exiting successfully. Buy a developer a beer!
