                               Psi4 1.3.2 release

  ==> Input File <==

--------------------------------------------------------------------------
#psi4
#
memory 32 gb

molecule  {
0 1
  N       -1.5631460    -1.0786450     0.0000020
  C        0.9814170     1.4318910     0.0000000
  C        2.1554110     0.6922200     0.0000020
  C        2.1326810    -0.7203310    -0.0000050
  C        0.9343870    -1.4220840     0.0000000
  C       -0.2481830    -0.6706930     0.0000000
  C       -0.2522510     0.7528300     0.0000150
  C       -1.6207120     1.1681210    -0.0000080
  C       -2.3885810     0.0265560    -0.0000050
  H        1.0121500     2.5200250     0.0000050
  H        3.2021462     1.2532226    -0.0000056
  H        3.0718340    -1.2688090    -0.0000050
  H        0.9183210    -2.5105470    -0.0000040
  H       -1.9975130     2.1830700    -0.0000130
  H       -1.8769340    -2.0399470     0.0000180
  H       -3.4648550    -0.0903210     0.0000040
units angstrom
no_reorient  #important for SAPT in psi4, default
symmetry c1  #important for SAPT in psi4, default
}

set PROPERTIES_ORIGIN ["COM"]
properties('MP2/aug-cc-pvtz', properties = ['dipole'])
--------------------------------------------------------------------------

    Molecular point group: c1
  Charge       = 0
  Multiplicity = 1
  Basis Set: AUG-CC-PVTZ
    Blend: AUG-CC-PVTZ
  Basis Set: (AUG-CC-PVTZ AUX)
    Blend: AUG-CC-PVTZ-JKFIT

    Orbital Energies [Eh]
    ---------------------

    Doubly Occupied:

       1A    -15.606164     2A    -11.273653     3A    -11.267652
       4A    -11.234480     5A    -11.234267     6A    -11.232503
       7A    -11.231372     8A    -11.228089     9A    -11.219330
      10A     -1.296747    11A     -1.128614    12A     -1.056585
      13A     -0.994256    14A     -0.974896    15A     -0.840653
      16A     -0.805608    17A     -0.786199    18A     -0.727825
      19A     -0.660499    20A     -0.638098    21A     -0.602422
      22A     -0.594764    23A     -0.584565    24A     -0.573882
      25A     -0.550439    26A     -0.498076    27A     -0.482094
      28A     -0.465742    29A     -0.386663    30A     -0.302139
      31A     -0.283581

  @DF-RHF Final Energy:  -361.58189129944299

   => Energetics <=

    Nuclear Repulsion Energy =            399.5262815482833503
    One-Electron Energy =               -1280.6926320576708349
    Two-Electron Energy =                 519.5844592099444981
    Total Energy =                       -361.5818912994429866
  Basis Set: (AUG-CC-PVTZ AUX)
    Blend: AUG-CC-PVTZ-RI
    Molecular point group: c1

    Geometry (in Angstrom), charge = 0, multiplicity = 1:

       Center              X                  Y                   Z               Mass
    ------------   -----------------  -----------------  -----------------  -----------------
         N           -1.557277943292    -1.079028000540     0.000001868429    14.003074004430
         C            0.987285056708     1.431507999460    -0.000000131571    12.000000000000
         C            2.161279056708     0.691836999460     0.000001868429    12.000000000000
         C            2.138549056708    -0.720714000540    -0.000005131571    12.000000000000
         C            0.940255056708    -1.422467000540    -0.000000131571    12.000000000000
         C           -0.242314943292    -0.671076000540    -0.000000131571    12.000000000000
         C           -0.246382943292     0.752446999460     0.000014868429    12.000000000000
         C           -1.614843943292     1.167737999460    -0.000008131571    12.000000000000
         C           -2.382712943292     0.026172999460    -0.000005131571    12.000000000000
         H            1.018018056708     2.519641999460     0.000004868429     1.007825032230
         H            3.208014256708     1.252839599460    -0.000005731571     1.007825032230
         H            3.077702056708    -1.269192000540    -0.000005131571     1.007825032230
         H            0.924189056708    -2.510930000540    -0.000004131571     1.007825032230
         H           -1.991644943292     2.182686999460    -0.000013131571     1.007825032230
         H           -1.871065943292    -2.040330000540     0.000017868429     1.007825032230
         H           -3.458986943292    -0.090704000540     0.000003868429     1.007825032230

  Basis Set: AUG-CC-PVTZ
    Blend: AUG-CC-PVTZ
  Basis Set: (AUG-CC-PVTZ AUX)
    Blend: AUG-CC-PVTZ-JKFIT
	 Reference Energy          =    -361.5818912994429866 [Eh]
	 Singles Energy            =      -0.0000000000000000 [Eh]
	 Same-Spin Energy          =      -0.4081752924280836 [Eh]
	 Opposite-Spin Energy      =      -1.2488350454521080 [Eh]
	 Correlation Energy        =      -1.6570103378801915 [Eh]
	 Total Energy              =    -363.2389016373231811 [Eh]

	 ================> DF-SCS-MP2 Energies <==================
	-----------------------------------------------------------
	 SCS Same-Spin Scale       =       0.3333333333333333 [-]
	 SCS Opposite-Spin Scale   =       1.2000000000000000 [-]
	 SCS Same-Spin Energy      =      -0.1360584308093612 [Eh]
	 SCS Opposite-Spin Energy  =      -1.4986020545425296 [Eh]
	 SCS Correlation Energy    =      -1.6346604853518909 [Eh]
	 SCS Total Energy          =    -363.2165517847948877 [Eh]
	-----------------------------------------------------------

  Dipole Moment: [D]
     X:    -1.5395      Y:    -1.5743      Z:     0.0000     Total:     2.2019

*** Psi4 exiting successfully. Buy a developer a beer!
