                               Psi4 1.3.2 release

  ==> Input File <==

--------------------------------------------------------------------------
#psi4
#
memory 32 gb

molecule  {
0 1
  N       -1.5631460    -1.0786450     0.0000020
  C        0.9814170     1.4318910     0.0000000
  C        2.1554110     0.6922200     0.0000020
  C        2.1326810    -0.7203310    -0.0000050
  C        0.9343870    -1.4220840     0.0000000
  C       -0.3970040    -0.6633200    -0.0000029
  C       -0.2522510     0.7528300     0.0000150
  C       -1.6207120     1.1681210    -0.0000080
  C       -2.3885810     0.0265560    -0.0000050
  H        1.0121500     2.5200250     0.0000050
  H        3.1140070     1.2059840    -0.0000050
  H        3.0718340    -1.2688090    -0.0000050
  H        0.9183210    -2.5105470    -0.0000040
  H       -1.9975130     2.1830700    -0.0000130
  H       -1.8769340    -2.0399470     0.0000180
  H       -3.4648550    -0.0903210     0.0000040
units angstrom
no_reorient  #important for SAPT in psi4, default
symmetry c1  #important for SAPT in psi4, default
}

set PROPERTIES_ORIGIN ["COM"]
properties('MP2/aug-cc-pvtz', properties = ['dipole'])
--------------------------------------------------------------------------

    Molecular point group: c1
  Charge       = 0
  Multiplicity = 1
  Basis Set: AUG-CC-PVTZ
    Blend: AUG-CC-PVTZ
  Basis Set: (AUG-CC-PVTZ AUX)
    Blend: AUG-CC-PVTZ-JKFIT

    Orbital Energies [Eh]
    ---------------------

    Doubly Occupied:

       1A    -15.616352     2A    -11.269921     3A    -11.263840
       4A    -11.240159     5A    -11.233571     6A    -11.231276
       7A    -11.223297     8A    -11.219334     9A    -11.217576
      10A     -1.348610    11A     -1.119421    12A     -1.060909
      13A     -0.985872    14A     -0.976642    15A     -0.854597
      16A     -0.805567    17A     -0.789405    18A     -0.736846
      19A     -0.678294    20A     -0.645507    21A     -0.611690
      22A     -0.603806    23A     -0.585859    24A     -0.564678
      25A     -0.552834    26A     -0.507634    27A     -0.463920
      28A     -0.461227    29A     -0.386757    30A     -0.292153
      31A     -0.283535

  @DF-RHF Final Energy:  -361.55538983072034

   => Energetics <=

    Nuclear Repulsion Energy =            400.5837573628074324
    One-Electron Energy =               -1282.6161199020405093
    Two-Electron Energy =                 520.4769727085126760
    Total Energy =                       -361.5553898307204008
  Basis Set: (AUG-CC-PVTZ AUX)
    Blend: AUG-CC-PVTZ-RI
    Molecular point group: c1

    Geometry (in Angstrom), charge = 0, multiplicity = 1:

       Center              X                  Y                   Z               Mass
    ------------   -----------------  -----------------  -----------------  -----------------
         N           -1.541262948105    -1.079377124983     0.000002160552    14.003074004430
         C            1.003300051895     1.431158875017     0.000000160552    12.000000000000
         C            2.177294051895     0.691487875017     0.000002160552    12.000000000000
         C            2.154564051895    -0.721063124983    -0.000004839448    12.000000000000
         C            0.956270051895    -1.422816124983     0.000000160552    12.000000000000
         C           -0.375120948105    -0.664052124983    -0.000002739448    12.000000000000
         C           -0.230367948105     0.752097875017     0.000015160552    12.000000000000
         C           -1.598828948105     1.167388875017    -0.000007839448    12.000000000000
         C           -2.366697948105     0.025823875017    -0.000004839448    12.000000000000
         H            1.034033051895     2.519292875017     0.000005160552     1.007825032230
         H            3.135890051895     1.205251875017    -0.000004839448     1.007825032230
         H            3.093717051895    -1.269541124983    -0.000004839448     1.007825032230
         H            0.940204051895    -2.511279124983    -0.000003839448     1.007825032230
         H           -1.975629948105     2.182337875017    -0.000012839448     1.007825032230
         H           -1.855050948105    -2.040679124983     0.000018160552     1.007825032230
         H           -3.442971948105    -0.091053124983     0.000004160552     1.007825032230

  Basis Set: AUG-CC-PVTZ
    Blend: AUG-CC-PVTZ
  Basis Set: (AUG-CC-PVTZ AUX)
    Blend: AUG-CC-PVTZ-JKFIT
	 Reference Energy          =    -361.5553898307203440 [Eh]
	 Singles Energy            =      -0.0000000000000000 [Eh]
	 Same-Spin Energy          =      -0.4080785360510233 [Eh]
	 Opposite-Spin Energy      =      -1.2485716495821246 [Eh]
	 Correlation Energy        =      -1.6566501856331479 [Eh]
	 Total Energy              =    -363.2120400163535123 [Eh]

	 ================> DF-SCS-MP2 Energies <==================
	-----------------------------------------------------------
	 SCS Same-Spin Scale       =       0.3333333333333333 [-]
	 SCS Opposite-Spin Scale   =       1.2000000000000000 [-]
	 SCS Same-Spin Energy      =      -0.1360261786836744 [Eh]
	 SCS Opposite-Spin Energy  =      -1.4982859794985495 [Eh]
	 SCS Correlation Energy    =      -1.6343121581822240 [Eh]
	 SCS Total Energy          =    -363.1897019889025842 [Eh]
	-----------------------------------------------------------

  Dipole Moment: [D]
     X:    -1.7959      Y:    -1.7238      Z:     0.0000     Total:     2.4893

*** Psi4 exiting successfully. Buy a developer a beer!
