                               Psi4 1.3.2 release

  ==> Input File <==

--------------------------------------------------------------------------
#psi4
#
memory 32 gb

molecule  {
0 1
  N       -1.5631460    -1.0786450     0.0000020
  C        0.9814170     1.4318910     0.0000000
  C        2.1554110     0.6922200     0.0000020
  C        2.1326810    -0.7203310    -0.0000050
  C        0.9210933    -1.4426083    -0.0000003
  C       -0.2481830    -0.6706930     0.0000000
  C       -0.2522510     0.7528300     0.0000150
  C       -1.6207120     1.1681210    -0.0000080
  C       -2.3885810     0.0265560    -0.0000050
  H        1.0121500     2.5200250     0.0000050
  H        3.1140070     1.2059840    -0.0000050
  H        3.0718340    -1.2688090    -0.0000050
  H        0.9183210    -2.5105470    -0.0000040
  H       -1.9975130     2.1830700    -0.0000130
  H       -1.8769340    -2.0399470     0.0000180
  H       -3.4648550    -0.0903210     0.0000040
units angstrom
no_reorient  #important for SAPT in psi4, default
symmetry c1  #important for SAPT in psi4, default
}

set PROPERTIES_ORIGIN ["COM"]
properties('MP2/aug-cc-pvtz', properties = ['dipole'])
--------------------------------------------------------------------------

    Molecular point group: c1
  Charge       = 0
  Multiplicity = 1
  Basis Set: AUG-CC-PVTZ
    Blend: AUG-CC-PVTZ
  Basis Set: (AUG-CC-PVTZ AUX)
    Blend: AUG-CC-PVTZ-JKFIT

    Orbital Energies [Eh]
    ---------------------

    Doubly Occupied:

       1A    -15.604760     2A    -11.273291     3A    -11.267761
       4A    -11.234085     5A    -11.232739     6A    -11.232093
       7A    -11.227873     8A    -11.222681     9A    -11.218850
      10A     -1.296182    11A     -1.126362    12A     -1.055563
      13A     -0.996924    14A     -0.972490    15A     -0.843268
      16A     -0.805259    17A     -0.788835    18A     -0.727499
      19A     -0.663235    20A     -0.646169    21A     -0.602221
      22A     -0.598187    23A     -0.583750    24A     -0.573860
      25A     -0.548342    26A     -0.505922    27A     -0.486230
      28A     -0.463303    29A     -0.385407    30A     -0.302121
      31A     -0.281322

  @DF-RHF Final Energy:  -361.58813538994434

   => Energetics <=

    Nuclear Repulsion Energy =            399.7039927863746129
    One-Electron Energy =               -1281.0510846497513739
    Two-Electron Energy =                 519.7589564734324767
    Total Energy =                       -361.5881353899443411
  Basis Set: (AUG-CC-PVTZ AUX)
    Blend: AUG-CC-PVTZ-RI
    Molecular point group: c1

    Geometry (in Angstrom), charge = 0, multiplicity = 1:

       Center              X                  Y                   Z               Mass
    ------------   -----------------  -----------------  -----------------  -----------------
         N           -1.555156314596    -1.076517277461     0.000001894017    14.003074004430
         C            0.989406685404     1.434018722539    -0.000000105983    12.000000000000
         C            2.163400685404     0.694347722539     0.000001894017    12.000000000000
         C            2.140670685404    -0.718203277461    -0.000005105983    12.000000000000
         C            0.929082985404    -1.440480577461    -0.000000405983    12.000000000000
         C           -0.240193314596    -0.668565277461    -0.000000105983    12.000000000000
         C           -0.244261314596     0.754957722539     0.000014894017    12.000000000000
         C           -1.612722314596     1.170248722539    -0.000008105983    12.000000000000
         C           -2.380591314596     0.028683722539    -0.000005105983    12.000000000000
         H            1.020139685404     2.522152722539     0.000004894017     1.007825032230
         H            3.121996685404     1.208111722539    -0.000005105983     1.007825032230
         H            3.079823685404    -1.266681277461    -0.000005105983     1.007825032230
         H            0.926310685404    -2.508419277461    -0.000004105983     1.007825032230
         H           -1.989523314596     2.185197722539    -0.000013105983     1.007825032230
         H           -1.868944314596    -2.037819277461     0.000017894017     1.007825032230
         H           -3.456865314596    -0.088193277461     0.000003894017     1.007825032230

  Basis Set: AUG-CC-PVTZ
    Blend: AUG-CC-PVTZ
  Basis Set: (AUG-CC-PVTZ AUX)
    Blend: AUG-CC-PVTZ-JKFIT
	 Reference Energy          =    -361.5881353899443411 [Eh]
	 Singles Energy            =      -0.0000000000000000 [Eh]
	 Same-Spin Energy          =      -0.4080268707459999 [Eh]
	 Opposite-Spin Energy      =      -1.2480987942549493 [Eh]
	 Correlation Energy        =      -1.6561256650009493 [Eh]
	 Total Energy              =    -363.2442610549452979 [Eh]

	 ================> DF-SCS-MP2 Energies <==================
	-----------------------------------------------------------
	 SCS Same-Spin Scale       =       0.3333333333333333 [-]
	 SCS Opposite-Spin Scale   =       1.2000000000000000 [-]
	 SCS Same-Spin Energy      =      -0.1360089569153333 [Eh]
	 SCS Opposite-Spin Energy  =      -1.4977185531059392 [Eh]
	 SCS Correlation Energy    =      -1.6337275100212725 [Eh]
	 SCS Total Energy          =    -363.2218628999656289 [Eh]
	-----------------------------------------------------------

  Dipole Moment: [D]
     X:    -1.4910      Y:    -1.5461      Z:     0.0000     Total:     2.1479

*** Psi4 exiting successfully. Buy a developer a beer!
