                               Psi4 1.4a3.dev225

  ==> Input File <==

--------------------------------------------------------------------------
#psi4
#
memory 32 gb

molecule  {
0 1
  N       -1.5630850    -1.0784890    -0.0000040
  C        0.9811620     1.4317850    -0.0000050
  C        2.1553110     0.6923450     0.0000000
  C        2.1328040    -0.7200770     0.0000000
  C        0.9346070    -1.4219960     0.0000040
  C       -0.2479390    -0.6706250     0.0000000
  C       -0.2522910     0.7524290     0.0000030
  C       -1.6208000     1.1677860     0.0000050
  C       -2.3888340     0.0267020    -0.0000020
  H        1.0113780     2.5197500    -0.0000020
  H        3.1138040     1.2059540    -0.0000050
  H        3.0720020    -1.2682500     0.0000030
  H        0.9188940    -2.5102320     0.0000020
  H       -2.0035792     2.2016468     0.0000101
  H       -1.8770410    -2.0396260     0.0000000
  H       -3.4649170    -0.0911630    -0.0000050
units angstrom
no_reorient  #important for SAPT in psi4, default
symmetry c1  #important for SAPT in psi4, default
}

set PROPERTIES_ORIGIN ["COM"]
properties('MP2/aug-cc-pvtz', properties = ['dipole'])
--------------------------------------------------------------------------

    Molecular point group: c1
  Charge       = 0
  Multiplicity = 1
  Basis Set: AUG-CC-PVTZ
    Blend: AUG-CC-PVTZ
  Basis Set: (AUG-CC-PVTZ AUX)
    Blend: AUG-CC-PVTZ-JKFIT

    Orbital Energies [Eh]
    ---------------------

    Doubly Occupied:

       1A    -15.605710     2A    -11.273276     3A    -11.267214
       4A    -11.233607     5A    -11.231722     6A    -11.230441
       7A    -11.227384     8A    -11.222409     9A    -11.221033
      10A     -1.296309    11A     -1.128569    12A     -1.055723
      13A     -0.996539    14A     -0.974189    15A     -0.842337
      16A     -0.805982    17A     -0.786705    18A     -0.727061
      19A     -0.661690    20A     -0.647281    21A     -0.601085
      22A     -0.595235    23A     -0.584130    24A     -0.572395
      25A     -0.549511    26A     -0.507864    27A     -0.482487
      28A     -0.464985    29A     -0.386119    30A     -0.301614
      31A     -0.283115

  @DF-RHF Final Energy:  -361.58866439421092

   => Energetics <=

    Nuclear Repulsion Energy =            399.9223957586851839
    One-Electron Energy =               -1281.4946803116183673
    Two-Electron Energy =                 519.9836201587222604
    Total Energy =                       -361.5886643942109231
  Basis Set: (AUG-CC-PVTZ AUX)
    Blend: AUG-CC-PVTZ-RI
    Molecular point group: c1

    Geometry (in Angstrom), charge = 0, multiplicity = 1:

       Center              X                  Y                   Z               Mass
    ------------   -----------------  -----------------  -----------------  -----------------
         N           -1.556394422403    -1.078627803123    -0.000004060756    14.003074004430
         C            0.987852577597     1.431646196877    -0.000005060756    12.000000000000
         C            2.162001577597     0.692206196877    -0.000000060756    12.000000000000
         C            2.139494577597    -0.720215803123    -0.000000060756    12.000000000000
         C            0.941297577597    -1.422134803123     0.000003939244    12.000000000000
         C           -0.241248422403    -0.670763803123    -0.000000060756    12.000000000000
         C           -0.245600422403     0.752290196877     0.000002939244    12.000000000000
         C           -1.614109422403     1.167647196877     0.000004939244    12.000000000000
         C           -2.382143422403     0.026563196877    -0.000002060756    12.000000000000
         H            1.018068577597     2.519611196877    -0.000002060756     1.007825032230
         H            3.120494577597     1.205815196877    -0.000005060756     1.007825032230
         H            3.078692577597    -1.268388803123     0.000002939244     1.007825032230
         H            0.925584577597    -2.510370803123     0.000001939244     1.007825032230
         H           -1.996888622403     2.201507996877     0.000010039244     1.007825032230
         H           -1.870350422403    -2.039764803123    -0.000000060756     1.007825032230
         H           -3.458226422403    -0.091301803123    -0.000005060756     1.007825032230

  Basis Set: AUG-CC-PVTZ
    Blend: AUG-CC-PVTZ
  Basis Set: (AUG-CC-PVTZ AUX)
    Blend: AUG-CC-PVTZ-JKFIT
	 Reference Energy          =    -361.5886643942109231 [Eh]
	 Singles Energy            =      -0.0000000000000000 [Eh]
	 Same-Spin Energy          =      -0.4080013762265229 [Eh]
	 Opposite-Spin Energy      =      -1.2480236234957514 [Eh]
	 Correlation Energy        =      -1.6560249997222742 [Eh]
	 Total Energy              =    -363.2446893939331858 [Eh]

	 ================> DF-SCS-MP2 Energies <==================
	-----------------------------------------------------------
	 SCS Same-Spin Scale       =       0.3333333333333333 [-]
	 SCS Opposite-Spin Scale   =       1.2000000000000000 [-]
	 SCS Same-Spin Energy      =      -0.1360004587421743 [Eh]
	 SCS Opposite-Spin Energy  =      -1.4976283481949015 [Eh]
	 SCS Correlation Energy    =      -1.6336288069370759 [Eh]
	 SCS Total Energy          =    -363.2222932011479770 [Eh]
	-----------------------------------------------------------

  Dipole Moment: [D]
     X:    -1.4798      Y:    -1.5481      Z:     0.0000     Total:     2.1416

*** Psi4 exiting successfully. Buy a developer a beer!
