                               Psi4 1.3.2 release

  ==> Input File <==

--------------------------------------------------------------------------
#psi4
#
memory 32 gb

molecule  {
0 1
  N       -1.5631460    -1.0786450     0.0000020
  C        0.9814170     1.4318910     0.0000000
  C        2.1554110     0.6922200     0.0000020
  C        2.1326810    -0.7203310    -0.0000050
  C        0.9343870    -1.4220840     0.0000000
  C       -0.2481830    -0.6706930     0.0000000
  C       -0.2522510     0.7528300     0.0000150
  C       -1.6207120     1.1681210    -0.0000080
  C       -2.3885810     0.0265560    -0.0000050
  H        1.0121500     2.5200250     0.0000050
  H        3.1140070     1.2059840    -0.0000050
  H        3.1581863    -1.3192399    -0.0000050
  H        0.9183210    -2.5105470    -0.0000040
  H       -1.9975130     2.1830700    -0.0000130
  H       -1.8769340    -2.0399470     0.0000180
  H       -3.4648550    -0.0903210     0.0000040
units angstrom
no_reorient  #important for SAPT in psi4, default
symmetry c1  #important for SAPT in psi4, default
}

set PROPERTIES_ORIGIN ["COM"]
properties('MP2/aug-cc-pvtz', properties = ['dipole'])
--------------------------------------------------------------------------

    Molecular point group: c1
  Charge       = 0
  Multiplicity = 1
  Basis Set: AUG-CC-PVTZ
    Blend: AUG-CC-PVTZ
  Basis Set: (AUG-CC-PVTZ AUX)
    Blend: AUG-CC-PVTZ-JKFIT

    Orbital Energies [Eh]
    ---------------------

    Doubly Occupied:

       1A    -15.606231     2A    -11.273586     3A    -11.267906
       4A    -11.242034     5A    -11.234473     6A    -11.232479
       7A    -11.227780     8A    -11.223549     9A    -11.219220
      10A     -1.296771    11A     -1.128581    12A     -1.055967
      13A     -0.997110    14A     -0.972244    15A     -0.841758
      16A     -0.802905    17A     -0.788055    18A     -0.726292
      19A     -0.658182    20A     -0.643479    21A     -0.601522
      22A     -0.595853    23A     -0.584586    24A     -0.574917
      25A     -0.543021    26A     -0.504103    27A     -0.480437
      28A     -0.465708    29A     -0.386632    30A     -0.302166
      31A     -0.283516

  @DF-RHF Final Energy:  -361.58188680756098

   => Energetics <=

    Nuclear Repulsion Energy =            399.5259351947260598
    One-Electron Energy =               -1280.6935194265488462
    Two-Electron Energy =                 519.5856974242617525
    Total Energy =                       -361.5818868075609771
  Basis Set: (AUG-CC-PVTZ AUX)
    Blend: AUG-CC-PVTZ-RI
    Molecular point group: c1

    Geometry (in Angstrom), charge = 0, multiplicity = 1:

       Center              X                  Y                   Z               Mass
    ------------   -----------------  -----------------  -----------------  -----------------
         N           -1.557262558741    -1.078187102064     0.000001863263    14.003074004430
         C            0.987300441259     1.432348897936    -0.000000136737    12.000000000000
         C            2.161294441259     0.692677897936     0.000001863263    12.000000000000
         C            2.138564441259    -0.719873102064    -0.000005136737    12.000000000000
         C            0.940270441259    -1.421626102064    -0.000000136737    12.000000000000
         C           -0.242299558741    -0.670235102064    -0.000000136737    12.000000000000
         C           -0.246367558741     0.753287897936     0.000014863263    12.000000000000
         C           -1.614828558741     1.168578897936    -0.000008136737    12.000000000000
         C           -2.382697558741     0.027013897936    -0.000005136737    12.000000000000
         H            1.018033441259     2.520482897936     0.000004863263     1.007825032230
         H            3.119890441259     1.206441897936    -0.000005136737     1.007825032230
         H            3.164069741259    -1.318782002064    -0.000005136737     1.007825032230
         H            0.924204441259    -2.510089102064    -0.000004136737     1.007825032230
         H           -1.991629558741     2.183527897936    -0.000013136737     1.007825032230
         H           -1.871050558741    -2.039489102064     0.000017863263     1.007825032230
         H           -3.458971558741    -0.089863102064     0.000003863263     1.007825032230

  Basis Set: AUG-CC-PVTZ
    Blend: AUG-CC-PVTZ
  Basis Set: (AUG-CC-PVTZ AUX)
    Blend: AUG-CC-PVTZ-JKFIT
	 Reference Energy          =    -361.5818868075609771 [Eh]
	 Singles Energy            =      -0.0000000000000000 [Eh]
	 Same-Spin Energy          =      -0.4081804117130592 [Eh]
	 Opposite-Spin Energy      =      -1.2488289396522805 [Eh]
	 Correlation Energy        =      -1.6570093513653397 [Eh]
	 Total Energy              =    -363.2388961589263090 [Eh]

	 ================> DF-SCS-MP2 Energies <==================
	-----------------------------------------------------------
	 SCS Same-Spin Scale       =       0.3333333333333333 [-]
	 SCS Opposite-Spin Scale   =       1.2000000000000000 [-]
	 SCS Same-Spin Energy      =      -0.1360601372376864 [Eh]
	 SCS Opposite-Spin Energy  =      -1.4985947275827365 [Eh]
	 SCS Correlation Energy    =      -1.6346548648204229 [Eh]
	 SCS Total Energy          =    -363.2165416723814246 [Eh]
	-----------------------------------------------------------

  Dipole Moment: [D]
     X:    -1.5341      Y:    -1.5169      Z:     0.0000     Total:     2.1574

*** Psi4 exiting successfully. Buy a developer a beer!
