                               Psi4 1.3.2 release

  ==> Input File <==

--------------------------------------------------------------------------
#psi4
#
memory 32 gb

molecule  {
0 1
  N       -1.5631460    -1.0786450     0.0000020
  C        0.9814170     1.4318910     0.0000000
  C        2.1554110     0.6922200     0.0000020
  C        2.1326810    -0.7203310    -0.0000050
  C        0.9343870    -1.4220840     0.0000000
  C       -0.2481830    -0.6706930     0.0000000
  C       -0.2528225     0.9528292     0.0000171
  C       -1.6207120     1.1681210    -0.0000080
  C       -2.3885810     0.0265560    -0.0000050
  H        1.0121500     2.5200250     0.0000050
  H        3.1140070     1.2059840    -0.0000050
  H        3.0718340    -1.2688090    -0.0000050
  H        0.9183210    -2.5105470    -0.0000040
  H       -1.9975130     2.1830700    -0.0000130
  H       -1.8769340    -2.0399470     0.0000180
  H       -3.4648550    -0.0903210     0.0000040
units angstrom
no_reorient  #important for SAPT in psi4, default
symmetry c1  #important for SAPT in psi4, default
}

set PROPERTIES_ORIGIN ["COM"]
properties('MP2/aug-cc-pvtz', properties = ['dipole'])
--------------------------------------------------------------------------

    Molecular point group: c1
  Charge       = 0
  Multiplicity = 1
  Basis Set: AUG-CC-PVTZ
    Blend: AUG-CC-PVTZ
  Basis Set: (AUG-CC-PVTZ AUX)
    Blend: AUG-CC-PVTZ-JKFIT

    Orbital Energies [Eh]
    ---------------------

    Doubly Occupied:

       1A    -15.614534     2A    -11.282307     3A    -11.280129
       4A    -11.238325     5A    -11.231345     6A    -11.228856
       7A    -11.223540     8A    -11.223276     9A    -11.220924
      10A     -1.293323    11A     -1.127137    12A     -1.066794
      13A     -0.994528    14A     -0.975345    15A     -0.845487
      16A     -0.819777    17A     -0.784229    18A     -0.719497
      19A     -0.676705    20A     -0.649994    21A     -0.604148
      22A     -0.591728    23A     -0.581319    24A     -0.580159
      25A     -0.543423    26A     -0.522674    27A     -0.467882
      28A     -0.435709    29A     -0.406467    30A     -0.292850
      31A     -0.278538

  @DF-RHF Final Energy:  -361.54570867094964

   => Energetics <=

    Nuclear Repulsion Energy =            397.9660982536744314
    One-Electron Energy =               -1277.4217179082843359
    Two-Electron Energy =                 517.9099109836603247
    Total Energy =                       -361.5457086709495798
  Basis Set: (AUG-CC-PVTZ AUX)
    Blend: AUG-CC-PVTZ-RI
    Molecular point group: c1

    Geometry (in Angstrom), charge = 0, multiplicity = 1:

       Center              X                  Y                   Z               Mass
    ------------   -----------------  -----------------  -----------------  -----------------
         N           -1.556460510778    -1.099123894765     0.000001647985    14.003074004430
         C            0.988102489222     1.411412105235    -0.000000352015    12.000000000000
         C            2.162096489222     0.671741105235     0.000001647985    12.000000000000
         C            2.139366489222    -0.740809894765    -0.000005352015    12.000000000000
         C            0.941072489222    -1.442562894765    -0.000000352015    12.000000000000
         C           -0.241497510778    -0.691171894765    -0.000000352015    12.000000000000
         C           -0.246137010778     0.932350305235     0.000016747985    12.000000000000
         C           -1.614026510778     1.147642105235    -0.000008352015    12.000000000000
         C           -2.381895510778     0.006077105235    -0.000005352015    12.000000000000
         H            1.018835489222     2.499546105235     0.000004647985     1.007825032230
         H            3.120692489222     1.185505105235    -0.000005352015     1.007825032230
         H            3.078519489222    -1.289287894765    -0.000005352015     1.007825032230
         H            0.925006489222    -2.531025894765    -0.000004352015     1.007825032230
         H           -1.990827510778     2.162591105235    -0.000013352015     1.007825032230
         H           -1.870248510778    -2.060425894765     0.000017647985     1.007825032230
         H           -3.458169510778    -0.110799894765     0.000003647985     1.007825032230

  Basis Set: AUG-CC-PVTZ
    Blend: AUG-CC-PVTZ
  Basis Set: (AUG-CC-PVTZ AUX)
    Blend: AUG-CC-PVTZ-JKFIT
	 Reference Energy          =    -361.5457086709496366 [Eh]
	 Singles Energy            =      -0.0000000000000000 [Eh]
	 Same-Spin Energy          =      -0.4110554361471837 [Eh]
	 Opposite-Spin Energy      =      -1.2523383109260964 [Eh]
	 Correlation Energy        =      -1.6633937470732800 [Eh]
	 Total Energy              =    -363.2091024180228942 [Eh]

	 ================> DF-SCS-MP2 Energies <==================
	-----------------------------------------------------------
	 SCS Same-Spin Scale       =       0.3333333333333333 [-]
	 SCS Opposite-Spin Scale   =       1.2000000000000000 [-]
	 SCS Same-Spin Energy      =      -0.1370184787157279 [Eh]
	 SCS Opposite-Spin Energy  =      -1.5028059731113157 [Eh]
	 SCS Correlation Energy    =      -1.6398244518270435 [Eh]
	 SCS Total Energy          =    -363.1855331227766897 [Eh]
	-----------------------------------------------------------

  Dipole Moment: [D]
     X:    -1.7241      Y:    -1.7321      Z:     0.0000     Total:     2.4439

*** Psi4 exiting successfully. Buy a developer a beer!
