                               Psi4 1.3.2 release

  ==> Input File <==

--------------------------------------------------------------------------
#psi4
#
memory 32 gb

molecule  {
0 1
  N       -1.5631460    -1.0786450     0.0000020
  C        0.9814170     1.4318910     0.0000000
  C        2.1554110     0.6922200     0.0000020
  C        2.1326810    -0.7203310    -0.0000050
  C        0.9343870    -1.4220840     0.0000000
  C       -0.2481830    -0.6706930     0.0000000
  C       -0.2522510     0.7528300     0.0000150
  C       -1.6207120     1.1681210    -0.0000080
  C       -2.3885810     0.0265560    -0.0000050
  H        1.0121500     2.5200250     0.0000050
  H        3.1140070     1.2059840    -0.0000050
  H        2.8991294    -1.1679472    -0.0000050
  H        0.9183210    -2.5105470    -0.0000040
  H       -1.9975130     2.1830700    -0.0000130
  H       -1.8769340    -2.0399470     0.0000180
  H       -3.4648550    -0.0903210     0.0000040
units angstrom
no_reorient  #important for SAPT in psi4, default
symmetry c1  #important for SAPT in psi4, default
}

set PROPERTIES_ORIGIN ["COM"]
properties('MP2/aug-cc-pvtz', properties = ['dipole'])
--------------------------------------------------------------------------

    Molecular point group: c1
  Charge       = 0
  Multiplicity = 1
  Basis Set: AUG-CC-PVTZ
    Blend: AUG-CC-PVTZ
  Basis Set: (AUG-CC-PVTZ AUX)
    Blend: AUG-CC-PVTZ-JKFIT

    Orbital Energies [Eh]
    ---------------------

    Doubly Occupied:

       1A    -15.605142     2A    -11.272825     3A    -11.266091
       4A    -11.232242     5A    -11.230553     6A    -11.226790
       7A    -11.221059     8A    -11.218379     9A    -11.206140
      10A     -1.295711    11A     -1.130088    12A     -1.057635
      13A     -0.996219    14A     -0.982346    15A     -0.847391
      16A     -0.817819    17A     -0.789346    18A     -0.731147
      19A     -0.678391    20A     -0.650087    21A     -0.602709
      22A     -0.594676    23A     -0.583412    24A     -0.573691
      25A     -0.562821    26A     -0.512124    27A     -0.483942
      28A     -0.463977    29A     -0.385409    30A     -0.300670
      31A     -0.282550

  @DF-RHF Final Energy:  -361.55467929884094

   => Energetics <=

    Nuclear Repulsion Energy =            401.1571184278649298
    One-Electron Energy =               -1283.8208348014438798
    Two-Electron Energy =                 521.1090370747380121
    Total Energy =                       -361.5546792988409379
  Basis Set: (AUG-CC-PVTZ AUX)
    Blend: AUG-CC-PVTZ-RI
    Molecular point group: c1

    Geometry (in Angstrom), charge = 0, multiplicity = 1:

       Center              X                  Y                   Z               Mass
    ------------   -----------------  -----------------  -----------------  -----------------
         N           -1.555032174103    -1.079489676571     0.000001863263    14.003074004430
         C            0.989530825897     1.431046323429    -0.000000136737    12.000000000000
         C            2.163524825897     0.691375323429     0.000001863263    12.000000000000
         C            2.140794825897    -0.721175676571    -0.000005136737    12.000000000000
         C            0.942500825897    -1.422928676571    -0.000000136737    12.000000000000
         C           -0.240069174103    -0.671537676571    -0.000000136737    12.000000000000
         C           -0.244137174103     0.751985323429     0.000014863263    12.000000000000
         C           -1.612598174103     1.167276323429    -0.000008136737    12.000000000000
         C           -2.380467174103     0.025711323429    -0.000005136737    12.000000000000
         H            1.020263825897     2.519180323429     0.000004863263     1.007825032230
         H            3.122120825897     1.205139323429    -0.000005136737     1.007825032230
         H            2.907243225897    -1.168791876571    -0.000005136737     1.007825032230
         H            0.926434825897    -2.511391676571    -0.000004136737     1.007825032230
         H           -1.989399174103     2.182225323429    -0.000013136737     1.007825032230
         H           -1.868820174103    -2.040791676571     0.000017863263     1.007825032230
         H           -3.456741174103    -0.091165676571     0.000003863263     1.007825032230

  Basis Set: AUG-CC-PVTZ
    Blend: AUG-CC-PVTZ
  Basis Set: (AUG-CC-PVTZ AUX)
    Blend: AUG-CC-PVTZ-JKFIT
	 Reference Energy          =    -361.5546792988409379 [Eh]
	 Singles Energy            =      -0.0000000000000000 [Eh]
	 Same-Spin Energy          =      -0.4078280950504470 [Eh]
	 Opposite-Spin Energy      =      -1.2473942296565694 [Eh]
	 Correlation Energy        =      -1.6552223247070166 [Eh]
	 Total Energy              =    -363.2099016235479780 [Eh]

	 ================> DF-SCS-MP2 Energies <==================
	-----------------------------------------------------------
	 SCS Same-Spin Scale       =       0.3333333333333333 [-]
	 SCS Opposite-Spin Scale   =       1.2000000000000000 [-]
	 SCS Same-Spin Energy      =      -0.1359426983501490 [Eh]
	 SCS Opposite-Spin Energy  =      -1.4968730755878832 [Eh]
	 SCS Correlation Energy    =      -1.6328157739380322 [Eh]
	 SCS Total Energy          =    -363.1874950727789724 [Eh]
	-----------------------------------------------------------

  Dipole Moment: [D]
     X:    -1.4394      Y:    -1.5795      Z:     0.0000     Total:     2.1370

*** Psi4 exiting successfully. Buy a developer a beer!
