                               Psi4 1.3.2 release

  ==> Input File <==

--------------------------------------------------------------------------
#psi4
#
memory 32 gb

molecule  {
0 1
  N       -1.5631460    -1.0786450     0.0000020
  C        0.9814170     1.4318910     0.0000000
  C        2.1554110     0.6922200     0.0000020
  C        2.1326810    -0.7203310    -0.0000050
  C        0.9343870    -1.4220840     0.0000000
  C       -0.2481830    -0.6706930     0.0000000
  C       -0.2519652     0.6528304     0.0000139
  C       -1.6207120     1.1681210    -0.0000080
  C       -2.3885810     0.0265560    -0.0000050
  H        1.0121500     2.5200250     0.0000050
  H        3.1140070     1.2059840    -0.0000050
  H        3.0718340    -1.2688090    -0.0000050
  H        0.9183210    -2.5105470    -0.0000040
  H       -1.9975130     2.1830700    -0.0000130
  H       -1.8769340    -2.0399470     0.0000180
  H       -3.4648550    -0.0903210     0.0000040
units angstrom
no_reorient  #important for SAPT in psi4, default
symmetry c1  #important for SAPT in psi4, default
}

set PROPERTIES_ORIGIN ["COM"]
properties('MP2/aug-cc-pvtz', properties = ['dipole'])
--------------------------------------------------------------------------

    Molecular point group: c1
  Charge       = 0
  Multiplicity = 1
  Basis Set: AUG-CC-PVTZ
    Blend: AUG-CC-PVTZ
  Basis Set: (AUG-CC-PVTZ AUX)
    Blend: AUG-CC-PVTZ-JKFIT

    Orbital Energies [Eh]
    ---------------------

    Doubly Occupied:

       1A    -15.599738     2A    -11.270230     3A    -11.254448
       4A    -11.236845     5A    -11.235659     6A    -11.231203
       7A    -11.223478     8A    -11.221683     9A    -11.217660
      10A     -1.298991    11A     -1.130830    12A     -1.049226
      13A     -1.003812    14A     -0.972015    15A     -0.844236
      16A     -0.798565    17A     -0.789393    18A     -0.730627
      19A     -0.655662    20A     -0.646822    21A     -0.602712
      22A     -0.595379    23A     -0.587451    24A     -0.578488
      25A     -0.546694    26A     -0.498427    27A     -0.490928
      28A     -0.464502    29A     -0.374486    30A     -0.311685
      31A     -0.284514

  @DF-RHF Final Energy:  -361.57948405491879

   => Energetics <=

    Nuclear Repulsion Energy =            401.1119755883602807
    One-Electron Energy =               -1283.8901379837930108
    Two-Electron Energy =                 521.1986783405138794
    Total Energy =                       -361.5794840549187938
  Basis Set: (AUG-CC-PVTZ AUX)
    Blend: AUG-CC-PVTZ-RI
    Molecular point group: c1

    Geometry (in Angstrom), charge = 0, multiplicity = 1:

       Center              X                  Y                   Z               Mass
    ------------   -----------------  -----------------  -----------------  -----------------
         N           -1.556548395529    -1.068369992967     0.000001976028    14.003074004430
         C            0.988014604471     1.442166007033    -0.000000023972    12.000000000000
         C            2.162008604471     0.702495007033     0.000001976028    12.000000000000
         C            2.139278604471    -0.710055992967    -0.000005023972    12.000000000000
         C            0.940984604471    -1.411808992967    -0.000000023972    12.000000000000
         C           -0.241585395529    -0.660417992967    -0.000000023972    12.000000000000
         C           -0.245367595529     0.663105407033     0.000013876028    12.000000000000
         C           -1.614114395529     1.178396007033    -0.000008023972    12.000000000000
         C           -2.381983395529     0.036831007033    -0.000005023972    12.000000000000
         H            1.018747604471     2.530300007033     0.000004976028     1.007825032230
         H            3.120604604471     1.216259007033    -0.000005023972     1.007825032230
         H            3.078431604471    -1.258533992967    -0.000005023972     1.007825032230
         H            0.924918604471    -2.500271992967    -0.000004023972     1.007825032230
         H           -1.990915395529     2.193345007033    -0.000013023972     1.007825032230
         H           -1.870336395529    -2.029671992967     0.000017976028     1.007825032230
         H           -3.458257395529    -0.080045992967     0.000003976028     1.007825032230

  Basis Set: AUG-CC-PVTZ
    Blend: AUG-CC-PVTZ
  Basis Set: (AUG-CC-PVTZ AUX)
    Blend: AUG-CC-PVTZ-JKFIT
	 Reference Energy          =    -361.5794840549187938 [Eh]
	 Singles Energy            =      -0.0000000000000000 [Eh]
	 Same-Spin Energy          =      -0.4066315649494334 [Eh]
	 Opposite-Spin Energy      =      -1.2472174705427785 [Eh]
	 Correlation Energy        =      -1.6538490354922120 [Eh]
	 Total Energy              =    -363.2333330904110085 [Eh]

	 ================> DF-SCS-MP2 Energies <==================
	-----------------------------------------------------------
	 SCS Same-Spin Scale       =       0.3333333333333333 [-]
	 SCS Opposite-Spin Scale   =       1.2000000000000000 [-]
	 SCS Same-Spin Energy      =      -0.1355438549831445 [Eh]
	 SCS Opposite-Spin Energy  =      -1.4966609646513342 [Eh]
	 SCS Correlation Energy    =      -1.6322048196344787 [Eh]
	 SCS Total Energy          =    -363.2116888745532606 [Eh]
	-----------------------------------------------------------

  Dipole Moment: [D]
     X:    -1.2955      Y:    -1.4490      Z:     0.0000     Total:     1.9436

*** Psi4 exiting successfully. Buy a developer a beer!
