                               Psi4 1.3.2 release

  ==> Input File <==

--------------------------------------------------------------------------
#psi4
#
memory 32 gb

molecule  {
0 1
  N       -1.5631460    -1.0786450     0.0000020
  C        0.9814170     1.4318910     0.0000000
  C        2.1800600     0.6916082     0.0000018
  C        2.1326810    -0.7203310    -0.0000050
  C        0.9343870    -1.4220840     0.0000000
  C       -0.2481830    -0.6706930     0.0000000
  C       -0.2522510     0.7528300     0.0000150
  C       -1.6207120     1.1681210    -0.0000080
  C       -2.3885810     0.0265560    -0.0000050
  H        1.0121500     2.5200250     0.0000050
  H        3.1140070     1.2059840    -0.0000050
  H        3.0718340    -1.2688090    -0.0000050
  H        0.9183210    -2.5105470    -0.0000040
  H       -1.9975130     2.1830700    -0.0000130
  H       -1.8769340    -2.0399470     0.0000180
  H       -3.4648550    -0.0903210     0.0000040
units angstrom
no_reorient  #important for SAPT in psi4, default
symmetry c1  #important for SAPT in psi4, default
}

set PROPERTIES_ORIGIN ["COM"]
properties('MP2/aug-cc-pvtz', properties = ['dipole'])
--------------------------------------------------------------------------

    Molecular point group: c1
  Charge       = 0
  Multiplicity = 1
  Basis Set: AUG-CC-PVTZ
    Blend: AUG-CC-PVTZ
  Basis Set: (AUG-CC-PVTZ AUX)
    Blend: AUG-CC-PVTZ-JKFIT

    Orbital Energies [Eh]
    ---------------------

    Doubly Occupied:

       1A    -15.605732     2A    -11.273601     3A    -11.267948
       4A    -11.234297     5A    -11.233228     6A    -11.230627
       7A    -11.227747     8A    -11.222858     9A    -11.219165
      10A     -1.296562    11A     -1.126345    12A     -1.056109
      13A     -0.995270    14A     -0.973812    15A     -0.843428
      16A     -0.805841    17A     -0.789034    18A     -0.726724
      19A     -0.663437    20A     -0.648803    21A     -0.600587
      22A     -0.594601    23A     -0.584094    24A     -0.574708
      25A     -0.549698    26A     -0.511486    27A     -0.481578
      28A     -0.463206    29A     -0.386114    30A     -0.300577
      31A     -0.282775

  @DF-RHF Final Energy:  -361.58825406312178

   => Energetics <=

    Nuclear Repulsion Energy =            399.5881408683967493
    One-Electron Energy =               -1280.8128018498146048
    Two-Electron Energy =                 519.6364069182960748
    Total Energy =                       -361.5882540631217807
  Basis Set: (AUG-CC-PVTZ AUX)
    Blend: AUG-CC-PVTZ-RI
    Molecular point group: c1

    Geometry (in Angstrom), charge = 0, multiplicity = 1:

       Center              X                  Y                   Z               Mass
    ------------   -----------------  -----------------  -----------------  -----------------
         N           -1.559045950387    -1.078558575858     0.000001883766    14.003074004430
         C            0.985517049613     1.431977424142    -0.000000116234    12.000000000000
         C            2.184160049613     0.691694624142     0.000001683766    12.000000000000
         C            2.136781049613    -0.720244575858    -0.000005116234    12.000000000000
         C            0.938487049613    -1.421997575858    -0.000000116234    12.000000000000
         C           -0.244082950387    -0.670606575858    -0.000000116234    12.000000000000
         C           -0.248150950387     0.752916424142     0.000014883766    12.000000000000
         C           -1.616611950387     1.168207424142    -0.000008116234    12.000000000000
         C           -2.384480950387     0.026642424142    -0.000005116234    12.000000000000
         H            1.016250049613     2.520111424142     0.000004883766     1.007825032230
         H            3.118107049613     1.206070424142    -0.000005116234     1.007825032230
         H            3.075934049613    -1.268722575858    -0.000005116234     1.007825032230
         H            0.922421049613    -2.510460575858    -0.000004116234     1.007825032230
         H           -1.993412950387     2.183156424142    -0.000013116234     1.007825032230
         H           -1.872833950387    -2.039860575858     0.000017883766     1.007825032230
         H           -3.460754950387    -0.090234575858     0.000003883766     1.007825032230

  Basis Set: AUG-CC-PVTZ
    Blend: AUG-CC-PVTZ
  Basis Set: (AUG-CC-PVTZ AUX)
    Blend: AUG-CC-PVTZ-JKFIT
	 Reference Energy          =    -361.5882540631217807 [Eh]
	 Singles Energy            =      -0.0000000000000000 [Eh]
	 Same-Spin Energy          =      -0.4079690992668575 [Eh]
	 Opposite-Spin Energy      =      -1.2480096125519047 [Eh]
	 Correlation Energy        =      -1.6559787118187623 [Eh]
	 Total Energy              =    -363.2442327749405422 [Eh]

	 ================> DF-SCS-MP2 Energies <==================
	-----------------------------------------------------------
	 SCS Same-Spin Scale       =       0.3333333333333333 [-]
	 SCS Opposite-Spin Scale   =       1.2000000000000000 [-]
	 SCS Same-Spin Energy      =      -0.1359896997556192 [Eh]
	 SCS Opposite-Spin Energy  =      -1.4976115350622856 [Eh]
	 SCS Correlation Energy    =      -1.6336012348179048 [Eh]
	 SCS Total Energy          =    -363.2218552979396691 [Eh]
	-----------------------------------------------------------

  Dipole Moment: [D]
     X:    -1.4965      Y:    -1.5422      Z:     0.0000     Total:     2.1490

*** Psi4 exiting successfully. Buy a developer a beer!
