                               Psi4 1.3.2 release

  ==> Input File <==

--------------------------------------------------------------------------
#psi4
#
memory 32 gb

molecule  {
0 1
  N       -1.5631460    -1.0786450     0.0000020
  C        0.9814170     1.4318910     0.0000000
  C        2.1554110     0.6922200     0.0000020
  C        2.1326810    -0.7203310    -0.0000050
  C        0.9343870    -1.4220840     0.0000000
  C       -0.2481830    -0.6706930     0.0000000
  C       -0.2522510     0.7528300     0.0000150
  C       -1.6207120     1.1681210    -0.0000080
  C       -2.3885810     0.0265560    -0.0000050
  H        1.0121500     2.5200250     0.0000050
  H        3.1140070     1.2059840    -0.0000050
  H        3.0718340    -1.2688090    -0.0000050
  H        0.9183210    -2.5105470    -0.0000040
  H       -1.9627090     2.0893220    -0.0000125
  H       -1.8769340    -2.0399470     0.0000180
  H       -3.4648550    -0.0903210     0.0000040
units angstrom
no_reorient  #important for SAPT in psi4, default
symmetry c1  #important for SAPT in psi4, default
}

set PROPERTIES_ORIGIN ["COM"]
properties('MP2/aug-cc-pvtz', properties = ['dipole'])
--------------------------------------------------------------------------

    Molecular point group: c1
  Charge       = 0
  Multiplicity = 1
  Basis Set: AUG-CC-PVTZ
    Blend: AUG-CC-PVTZ
  Basis Set: (AUG-CC-PVTZ AUX)
    Blend: AUG-CC-PVTZ-JKFIT

    Orbital Energies [Eh]
    ---------------------

    Doubly Occupied:

       1A    -15.605388     2A    -11.272757     3A    -11.266574
       4A    -11.233284     5A    -11.231433     6A    -11.230135
       7A    -11.226481     8A    -11.222209     9A    -11.207123
      10A     -1.295831    11A     -1.128187    12A     -1.058050
      13A     -0.996292    14A     -0.975415    15A     -0.842133
      16A     -0.809940    17A     -0.797118    18A     -0.728261
      19A     -0.662653    20A     -0.648838    21A     -0.607425
      22A     -0.595628    23A     -0.583590    24A     -0.582422
      25A     -0.551265    26A     -0.507373    27A     -0.483338
      28A     -0.464649    29A     -0.385754    30A     -0.301183
      31A     -0.282778

  @DF-RHF Final Energy:  -361.58318307754934

   => Energetics <=

    Nuclear Repulsion Energy =            400.5449273347389294
    One-Electron Energy =               -1282.6892088648146455
    Two-Electron Energy =                 520.5610984525263802
    Total Energy =                       -361.5831830775492790
  Basis Set: (AUG-CC-PVTZ AUX)
    Blend: AUG-CC-PVTZ-RI
    Molecular point group: c1

    Geometry (in Angstrom), charge = 0, multiplicity = 1:

       Center              X                  Y                   Z               Mass
    ------------   -----------------  -----------------  -----------------  -----------------
         N           -1.556818746835    -1.077814157763     0.000001858958    14.003074004430
         C            0.987744253165     1.432721842237    -0.000000141042    12.000000000000
         C            2.161738253165     0.693050842237     0.000001858958    12.000000000000
         C            2.139008253165    -0.719500157763    -0.000005141042    12.000000000000
         C            0.940714253165    -1.421253157763    -0.000000141042    12.000000000000
         C           -0.241855746835    -0.669862157763    -0.000000141042    12.000000000000
         C           -0.245923746835     0.753660842237     0.000014858958    12.000000000000
         C           -1.614384746835     1.168951842237    -0.000008141042    12.000000000000
         C           -2.382253746835     0.027386842237    -0.000005141042    12.000000000000
         H            1.018477253165     2.520855842237     0.000004858958     1.007825032230
         H            3.120334253165     1.206814842237    -0.000005141042     1.007825032230
         H            3.078161253165    -1.267978157763    -0.000005141042     1.007825032230
         H            0.924648253165    -2.509716157763    -0.000004141042     1.007825032230
         H           -1.956381746835     2.090152842237    -0.000012641042     1.007825032230
         H           -1.870606746835    -2.039116157763     0.000017858958     1.007825032230
         H           -3.458527746835    -0.089490157763     0.000003858958     1.007825032230

  Basis Set: AUG-CC-PVTZ
    Blend: AUG-CC-PVTZ
  Basis Set: (AUG-CC-PVTZ AUX)
    Blend: AUG-CC-PVTZ-JKFIT
	 Reference Energy          =    -361.5831830775493358 [Eh]
	 Singles Energy            =      -0.0000000000000000 [Eh]
	 Same-Spin Energy          =      -0.4078365265620227 [Eh]
	 Opposite-Spin Energy      =      -1.2473311182830118 [Eh]
	 Correlation Energy        =      -1.6551676448450345 [Eh]
	 Total Energy              =    -363.2383507223943866 [Eh]

	 ================> DF-SCS-MP2 Energies <==================
	-----------------------------------------------------------
	 SCS Same-Spin Scale       =       0.3333333333333333 [-]
	 SCS Opposite-Spin Scale   =       1.2000000000000000 [-]
	 SCS Same-Spin Energy      =      -0.1359455088540076 [Eh]
	 SCS Opposite-Spin Energy  =      -1.4967973419396141 [Eh]
	 SCS Correlation Energy    =      -1.6327428507936217 [Eh]
	 SCS Total Energy          =    -363.2159259283429833 [Eh]
	-----------------------------------------------------------

  Dipole Moment: [D]
     X:    -1.5033      Y:    -1.5417      Z:     0.0000     Total:     2.1533

*** Psi4 exiting successfully. Buy a developer a beer!
