                               Psi4 1.3.2 release

  ==> Input File <==

--------------------------------------------------------------------------
#psi4
#
memory 32 gb

molecule  {
0 1
  N       -1.5631460    -1.0786450     0.0000020
  C        0.9814170     1.4318910     0.0000000
  C        2.1554110     0.6922200     0.0000020
  C        2.1326810    -0.7203310    -0.0000050
  C        0.9343870    -1.4220840     0.0000000
  C       -0.2481830    -0.6706930     0.0000000
  C       -0.2522510     0.7528300     0.0000150
  C       -1.6207120     1.1681210    -0.0000080
  C       -2.3885810     0.0265560    -0.0000050
  H        1.0177965     2.7199453     0.0000059
  H        3.1140070     1.2059840    -0.0000050
  H        3.0718340    -1.2688090    -0.0000050
  H        0.9183210    -2.5105470    -0.0000040
  H       -1.9975130     2.1830700    -0.0000130
  H       -1.8769340    -2.0399470     0.0000180
  H       -3.4648550    -0.0903210     0.0000040
units angstrom
no_reorient  #important for SAPT in psi4, default
symmetry c1  #important for SAPT in psi4, default
}

set PROPERTIES_ORIGIN ["COM"]
properties('MP2/aug-cc-pvtz', properties = ['dipole'])
--------------------------------------------------------------------------

    Molecular point group: c1
  Charge       = 0
  Multiplicity = 1
  Basis Set: AUG-CC-PVTZ
    Blend: AUG-CC-PVTZ
  Basis Set: (AUG-CC-PVTZ AUX)
    Blend: AUG-CC-PVTZ-JKFIT

    Orbital Energies [Eh]
    ---------------------

    Doubly Occupied:

       1A    -15.606695     2A    -11.273868     3A    -11.269029
       4A    -11.253383     5A    -11.234750     6A    -11.232144
       7A    -11.229941     8A    -11.224757     9A    -11.219496
      10A     -1.297368    11A     -1.129131    12A     -1.056404
      13A     -0.995730    14A     -0.973273    15A     -0.838549
      16A     -0.807362    17A     -0.788682    18A     -0.717513
      19A     -0.658597    20A     -0.648463    21A     -0.602471
      22A     -0.585230    23A     -0.578508    24A     -0.570424
      25A     -0.549338    26A     -0.509370    27A     -0.468968
      28A     -0.466572    29A     -0.387134    30A     -0.302932
      31A     -0.284179

  @DF-RHF Final Energy:  -361.56706260691811

   => Energetics <=

    Nuclear Repulsion Energy =            399.0898603079770623
    One-Electron Energy =               -1279.7933199384315230
    Two-Electron Energy =                 519.1363970235363468
    Total Energy =                       -361.5670626069181708
  Basis Set: (AUG-CC-PVTZ AUX)
    Blend: AUG-CC-PVTZ-RI
    Molecular point group: c1

    Geometry (in Angstrom), charge = 0, multiplicity = 1:

       Center              X                  Y                   Z               Mass
    ------------   -----------------  -----------------  -----------------  -----------------
         N           -1.556567711483    -1.080342533826     0.000001855514    14.003074004430
         C            0.987995288517     1.430193466174    -0.000000144486    12.000000000000
         C            2.161989288517     0.690522466174     0.000001855514    12.000000000000
         C            2.139259288517    -0.722028533826    -0.000005144486    12.000000000000
         C            0.940965288517    -1.423781533826    -0.000000144486    12.000000000000
         C           -0.241604711483    -0.672390533826    -0.000000144486    12.000000000000
         C           -0.245672711483     0.751132466174     0.000014855514    12.000000000000
         C           -1.614133711483     1.166423466174    -0.000008144486    12.000000000000
         C           -2.382002711483     0.024858466174    -0.000005144486    12.000000000000
         H            1.024374788517     2.718247766174     0.000005755514     1.007825032230
         H            3.120585288517     1.204286466174    -0.000005144486     1.007825032230
         H            3.078412288517    -1.270506533826    -0.000005144486     1.007825032230
         H            0.924899288517    -2.512244533826    -0.000004144486     1.007825032230
         H           -1.990934711483     2.181372466174    -0.000013144486     1.007825032230
         H           -1.870355711483    -2.041644533826     0.000017855514     1.007825032230
         H           -3.458276711483    -0.092018533826     0.000003855514     1.007825032230

  Basis Set: AUG-CC-PVTZ
    Blend: AUG-CC-PVTZ
  Basis Set: (AUG-CC-PVTZ AUX)
    Blend: AUG-CC-PVTZ-JKFIT
	 Reference Energy          =    -361.5670626069181139 [Eh]
	 Singles Energy            =      -0.0000000000000000 [Eh]
	 Same-Spin Energy          =      -0.4084897196898054 [Eh]
	 Opposite-Spin Energy      =      -1.2500297324540035 [Eh]
	 Correlation Energy        =      -1.6585194521438089 [Eh]
	 Total Energy              =    -363.2255820590619351 [Eh]

	 ================> DF-SCS-MP2 Energies <==================
	-----------------------------------------------------------
	 SCS Same-Spin Scale       =       0.3333333333333333 [-]
	 SCS Opposite-Spin Scale   =       1.2000000000000000 [-]
	 SCS Same-Spin Energy      =      -0.1361632398966018 [Eh]
	 SCS Opposite-Spin Energy  =      -1.5000356789448042 [Eh]
	 SCS Correlation Energy    =      -1.6361989188414059 [Eh]
	 SCS Total Energy          =    -363.2032615257595012 [Eh]
	-----------------------------------------------------------

  Dipole Moment: [D]
     X:    -1.5079      Y:    -1.6618      Z:     0.0000     Total:     2.2439

*** Psi4 exiting successfully. Buy a developer a beer!
