                               Psi4 1.3.2 release

  ==> Input File <==

--------------------------------------------------------------------------
#psi4
#
memory 32 gb

molecule  {
0 1
  N       -1.5631460    -1.0786450     0.0000020
  C        0.9814170     1.4318910     0.0000000
  C        2.1554110     0.6922200     0.0000020
  C        2.1326810    -0.7203310    -0.0000050
  C        0.9343870    -1.4220840     0.0000000
  C       -0.2481830    -0.6706930     0.0000000
  C       -0.2522510     0.7528300     0.0000150
  C       -1.6207120     1.1681210    -0.0000080
  C       -2.3885810     0.0265560    -0.0000050
  H        1.0121500     2.5200250     0.0000050
  H        3.1140070     1.2059840    -0.0000050
  H        3.0718340    -1.2688090    -0.0000050
  H        0.9197969    -2.4105579    -0.0000036
  H       -1.9975130     2.1830700    -0.0000130
  H       -1.8769340    -2.0399470     0.0000180
  H       -3.4648550    -0.0903210     0.0000040
units angstrom
no_reorient  #important for SAPT in psi4, default
symmetry c1  #important for SAPT in psi4, default
}

set PROPERTIES_ORIGIN ["COM"]
properties('MP2/aug-cc-pvtz', properties = ['dipole'])
--------------------------------------------------------------------------

    Molecular point group: c1
  Charge       = 0
  Multiplicity = 1
  Basis Set: AUG-CC-PVTZ
    Blend: AUG-CC-PVTZ
  Basis Set: (AUG-CC-PVTZ AUX)
    Blend: AUG-CC-PVTZ-JKFIT

    Orbital Energies [Eh]
    ---------------------

    Doubly Occupied:

       1A    -15.605597     2A    -11.272894     3A    -11.266257
       4A    -11.231408     5A    -11.229838     6A    -11.226601
       7A    -11.221762     8A    -11.221283     9A    -11.218555
      10A     -1.296101    11A     -1.128619    12A     -1.057300
      13A     -0.997992    14A     -0.974734    15A     -0.846827
      16A     -0.805817    17A     -0.789840    18A     -0.732614
      19A     -0.666850    20A     -0.650164    21A     -0.604682
      22A     -0.600348    23A     -0.583750    24A     -0.574036
      25A     -0.549492    26A     -0.507309    27A     -0.485910
      28A     -0.464431    29A     -0.385718    30A     -0.301067
      31A     -0.282664

  @DF-RHF Final Energy:  -361.58358114446730

   => Energetics <=

    Nuclear Repulsion Energy =            400.5440952257578715
    One-Electron Energy =               -1282.6944330939293195
    Two-Electron Energy =                 520.5667567237040885
    Total Energy =                       -361.5835811444673027
  Basis Set: (AUG-CC-PVTZ AUX)
    Blend: AUG-CC-PVTZ-RI
    Molecular point group: c1

    Geometry (in Angstrom), charge = 0, multiplicity = 1:

       Center              X                  Y                   Z               Mass
    ------------   -----------------  -----------------  -----------------  -----------------
         N           -1.556531804151    -1.079482162945     0.000001859819    14.003074004430
         C            0.988031195849     1.431053837055    -0.000000140181    12.000000000000
         C            2.162025195849     0.691382837055     0.000001859819    12.000000000000
         C            2.139295195849    -0.721168162945    -0.000005140181    12.000000000000
         C            0.941001195849    -1.422921162945    -0.000000140181    12.000000000000
         C           -0.241568804151    -0.671530162945    -0.000000140181    12.000000000000
         C           -0.245636804151     0.751992837055     0.000014859819    12.000000000000
         C           -1.614097804151     1.167283837055    -0.000008140181    12.000000000000
         C           -2.381966804151     0.025718837055    -0.000005140181    12.000000000000
         H            1.018764195849     2.519187837055     0.000004859819     1.007825032230
         H            3.120621195849     1.205146837055    -0.000005140181     1.007825032230
         H            3.078448195849    -1.269646162945    -0.000005140181     1.007825032230
         H            0.926411095849    -2.411395062945    -0.000003740181     1.007825032230
         H           -1.990898804151     2.182232837055    -0.000013140181     1.007825032230
         H           -1.870319804151    -2.040784162945     0.000017859819     1.007825032230
         H           -3.458240804151    -0.091158162945     0.000003859819     1.007825032230

  Basis Set: AUG-CC-PVTZ
    Blend: AUG-CC-PVTZ
  Basis Set: (AUG-CC-PVTZ AUX)
    Blend: AUG-CC-PVTZ-JKFIT
	 Reference Energy          =    -361.5835811444673027 [Eh]
	 Singles Energy            =      -0.0000000000000000 [Eh]
	 Same-Spin Energy          =      -0.4078109986360638 [Eh]
	 Opposite-Spin Energy      =      -1.2473751717430130 [Eh]
	 Correlation Energy        =      -1.6551861703790769 [Eh]
	 Total Energy              =    -363.2387673148463705 [Eh]

	 ================> DF-SCS-MP2 Energies <==================
	-----------------------------------------------------------
	 SCS Same-Spin Scale       =       0.3333333333333333 [-]
	 SCS Opposite-Spin Scale   =       1.2000000000000000 [-]
	 SCS Same-Spin Energy      =      -0.1359369995453546 [Eh]
	 SCS Opposite-Spin Energy  =      -1.4968502060916156 [Eh]
	 SCS Correlation Energy    =      -1.6327872056369701 [Eh]
	 SCS Total Energy          =    -363.2163683501042897 [Eh]
	-----------------------------------------------------------

  Dipole Moment: [D]
     X:    -1.4836      Y:    -1.5783      Z:     0.0000     Total:     2.1661

*** Psi4 exiting successfully. Buy a developer a beer!
