                               Psi4 1.3.2 release

  ==> Input File <==

--------------------------------------------------------------------------
#psi4
#
memory 32 gb

molecule  {
0 1
  N       -1.5631460    -1.0786450     0.0000020
  C        0.9814170     1.4318910     0.0000000
  C        2.1554110     0.6922200     0.0000020
  C        2.1326810    -0.7203310    -0.0000050
  C        0.9343870    -1.4220840     0.0000000
  C       -0.2481830    -0.6706930     0.0000000
  C       -0.3031573     0.6120619     0.0000160
  C       -1.6207120     1.1681210    -0.0000080
  C       -2.3885810     0.0265560    -0.0000050
  H        1.0121500     2.5200250     0.0000050
  H        3.1140070     1.2059840    -0.0000050
  H        3.0718340    -1.2688090    -0.0000050
  H        0.9183210    -2.5105470    -0.0000040
  H       -1.9975130     2.1830700    -0.0000130
  H       -1.8769340    -2.0399470     0.0000180
  H       -3.4648550    -0.0903210     0.0000040
units angstrom
no_reorient  #important for SAPT in psi4, default
symmetry c1  #important for SAPT in psi4, default
}

set PROPERTIES_ORIGIN ["COM"]
properties('MP2/aug-cc-pvtz', properties = ['dipole'])
--------------------------------------------------------------------------

    Molecular point group: c1
  Charge       = 0
  Multiplicity = 1
  Basis Set: AUG-CC-PVTZ
    Blend: AUG-CC-PVTZ
  Basis Set: (AUG-CC-PVTZ AUX)
    Blend: AUG-CC-PVTZ-JKFIT

    Orbital Energies [Eh]
    ---------------------

    Doubly Occupied:

       1A    -15.598391     2A    -11.269221     3A    -11.247080
       4A    -11.240901     5A    -11.236904     6A    -11.231764
       7A    -11.223845     8A    -11.218677     9A    -11.214832
      10A     -1.304026    11A     -1.127679    12A     -1.052501
      13A     -1.006706    14A     -0.969440    15A     -0.844922
      16A     -0.800306    17A     -0.785206    18A     -0.730698
      19A     -0.656957    20A     -0.646538    21A     -0.602600
      22A     -0.591055    23A     -0.590173    24A     -0.582790
      25A     -0.546336    26A     -0.502840    27A     -0.482179
      28A     -0.461803    29A     -0.372269    30A     -0.318007
      31A     -0.282158

  @DF-RHF Final Energy:  -361.56139929008560

   => Energetics <=

    Nuclear Repulsion Energy =            401.6319747433238945
    One-Electron Energy =               -1284.9091396531446208
    Two-Electron Energy =                 521.7157656197350661
    Total Energy =                       -361.5613992900856601
  Basis Set: (AUG-CC-PVTZ AUX)
    Blend: AUG-CC-PVTZ-RI
    Molecular point group: c1

    Geometry (in Angstrom), charge = 0, multiplicity = 1:

       Center              X                  Y                   Z               Mass
    ------------   -----------------  -----------------  -----------------  -----------------
         N           -1.551300518483    -1.064190674764     0.000001760750    14.003074004430
         C            0.993262481517     1.446345325236    -0.000000239250    12.000000000000
         C            2.167256481517     0.706674325236     0.000001760750    12.000000000000
         C            2.144526481517    -0.705876674764    -0.000005239250    12.000000000000
         C            0.946232481517    -1.407629674764    -0.000000239250    12.000000000000
         C           -0.236337518483    -0.656238674764    -0.000000239250    12.000000000000
         C           -0.291311818483     0.626516225236     0.000015760750    12.000000000000
         C           -1.608866518483     1.182575325236    -0.000008239250    12.000000000000
         C           -2.376735518483     0.041010325236    -0.000005239250    12.000000000000
         H            1.023995481517     2.534479325236     0.000004760750     1.007825032230
         H            3.125852481517     1.220438325236    -0.000005239250     1.007825032230
         H            3.083679481517    -1.254354674764    -0.000005239250     1.007825032230
         H            0.930166481517    -2.496092674764    -0.000004239250     1.007825032230
         H           -1.985667518483     2.197524325236    -0.000013239250     1.007825032230
         H           -1.865088518483    -2.025492674764     0.000017760750     1.007825032230
         H           -3.453009518483    -0.075866674764     0.000003760750     1.007825032230

  Basis Set: AUG-CC-PVTZ
    Blend: AUG-CC-PVTZ
  Basis Set: (AUG-CC-PVTZ AUX)
    Blend: AUG-CC-PVTZ-JKFIT
	 Reference Energy          =    -361.5613992900856033 [Eh]
	 Singles Energy            =      -0.0000000000000000 [Eh]
	 Same-Spin Energy          =      -0.4065375880195825 [Eh]
	 Opposite-Spin Energy      =      -1.2480060307705823 [Eh]
	 Correlation Energy        =      -1.6545436187901648 [Eh]
	 Total Energy              =    -363.2159429088757747 [Eh]

	 ================> DF-SCS-MP2 Energies <==================
	-----------------------------------------------------------
	 SCS Same-Spin Scale       =       0.3333333333333333 [-]
	 SCS Opposite-Spin Scale   =       1.2000000000000000 [-]
	 SCS Same-Spin Energy      =      -0.1355125293398608 [Eh]
	 SCS Opposite-Spin Energy  =      -1.4976072369246987 [Eh]
	 SCS Correlation Energy    =      -1.6331197662645596 [Eh]
	 SCS Total Energy          =    -363.1945190563501455 [Eh]
	-----------------------------------------------------------

  Dipole Moment: [D]
     X:    -1.2623      Y:    -1.4139      Z:     0.0000     Total:     1.8954

*** Psi4 exiting successfully. Buy a developer a beer!
