                               Psi4 1.3.2 release

  ==> Input File <==

--------------------------------------------------------------------------
#psi4
#
memory 32 gb

molecule  {
0 1
  N       -1.5631460    -1.0786450     0.0000020
  C        0.9814170     1.4318910     0.0000000
  C        2.1554110     0.6922200     0.0000020
  C        2.1326810    -0.7203310    -0.0000050
  C        0.9343870    -1.4220840     0.0000000
  C       -0.2347467    -0.7168331     0.0000003
  C       -0.2522510     0.7528300     0.0000150
  C       -1.6207120     1.1681210    -0.0000080
  C       -2.3885810     0.0265560    -0.0000050
  H        1.0121500     2.5200250     0.0000050
  H        3.1140070     1.2059840    -0.0000050
  H        3.0718340    -1.2688090    -0.0000050
  H        0.9183210    -2.5105470    -0.0000040
  H       -1.9975130     2.1830700    -0.0000130
  H       -1.8769340    -2.0399470     0.0000180
  H       -3.4648550    -0.0903210     0.0000040
units angstrom
no_reorient  #important for SAPT in psi4, default
symmetry c1  #important for SAPT in psi4, default
}

set PROPERTIES_ORIGIN ["COM"]
properties('MP2/aug-cc-pvtz', properties = ['dipole'])
--------------------------------------------------------------------------

    Molecular point group: c1
  Charge       = 0
  Multiplicity = 1
  Basis Set: AUG-CC-PVTZ
    Blend: AUG-CC-PVTZ
  Basis Set: (AUG-CC-PVTZ AUX)
    Blend: AUG-CC-PVTZ-JKFIT

    Orbital Energies [Eh]
    ---------------------

    Doubly Occupied:

       1A    -15.607051     2A    -11.275749     3A    -11.268388
       4A    -11.232410     5A    -11.230421     6A    -11.230136
       7A    -11.228988     8A    -11.222101     9A    -11.220192
      10A     -1.294796    11A     -1.128008    12A     -1.057398
      13A     -0.998024    14A     -0.973791    15A     -0.841815
      16A     -0.808400    17A     -0.788378    18A     -0.725087
      19A     -0.663659    20A     -0.647753    21A     -0.602790
      22A     -0.594669    23A     -0.583285    24A     -0.575438
      25A     -0.549276    26A     -0.509528    27A     -0.475575
      28A     -0.464975    29A     -0.390349    30A     -0.301189
      31A     -0.280256

  @DF-RHF Final Energy:  -361.58523492403492

   => Energetics <=

    Nuclear Repulsion Energy =            399.6076345870631030
    One-Electron Energy =               -1280.8459872509124580
    Two-Electron Energy =                 519.6531177398144337
    Total Energy =                       -361.5852349240349213
  Basis Set: (AUG-CC-PVTZ AUX)
    Blend: AUG-CC-PVTZ-RI
    Molecular point group: c1

    Geometry (in Angstrom), charge = 0, multiplicity = 1:

       Center              X                  Y                   Z               Mass
    ------------   -----------------  -----------------  -----------------  -----------------
         N           -1.557896498207    -1.073891314298     0.000001832509    14.003074004430
         C            0.986666501793     1.436644685702    -0.000000167491    12.000000000000
         C            2.160660501793     0.696973685702     0.000001832509    12.000000000000
         C            2.137930501793    -0.715577314298    -0.000005167491    12.000000000000
         C            0.939636501793    -1.417330314298    -0.000000167491    12.000000000000
         C           -0.229497198207    -0.712079414298     0.000000132509    12.000000000000
         C           -0.247001498207     0.757583685702     0.000014832509    12.000000000000
         C           -1.615462498207     1.172874685702    -0.000008167491    12.000000000000
         C           -2.383331498207     0.031309685702    -0.000005167491    12.000000000000
         H            1.017399501793     2.524778685702     0.000004832509     1.007825032230
         H            3.119256501793     1.210737685702    -0.000005167491     1.007825032230
         H            3.077083501793    -1.264055314298    -0.000005167491     1.007825032230
         H            0.923570501793    -2.505793314298    -0.000004167491     1.007825032230
         H           -1.992263498207     2.187823685702    -0.000013167491     1.007825032230
         H           -1.871684498207    -2.035193314298     0.000017832509     1.007825032230
         H           -3.459605498207    -0.085567314298     0.000003832509     1.007825032230

  Basis Set: AUG-CC-PVTZ
    Blend: AUG-CC-PVTZ
  Basis Set: (AUG-CC-PVTZ AUX)
    Blend: AUG-CC-PVTZ-JKFIT
	 Reference Energy          =    -361.5852349240349213 [Eh]
	 Singles Energy            =      -0.0000000000000000 [Eh]
	 Same-Spin Energy          =      -0.4085573136211615 [Eh]
	 Opposite-Spin Energy      =      -1.2484306808098837 [Eh]
	 Correlation Energy        =      -1.6569879944310453 [Eh]
	 Total Energy              =    -363.2422229184659841 [Eh]

	 ================> DF-SCS-MP2 Energies <==================
	-----------------------------------------------------------
	 SCS Same-Spin Scale       =       0.3333333333333333 [-]
	 SCS Opposite-Spin Scale   =       1.2000000000000000 [-]
	 SCS Same-Spin Energy      =      -0.1361857712070538 [Eh]
	 SCS Opposite-Spin Energy  =      -1.4981168169718604 [Eh]
	 SCS Correlation Energy    =      -1.6343025881789142 [Eh]
	 SCS Total Energy          =    -363.2195375122138330 [Eh]
	-----------------------------------------------------------

  Dipole Moment: [D]
     X:    -1.5564      Y:    -1.5177      Z:     0.0000     Total:     2.1739

*** Psi4 exiting successfully. Buy a developer a beer!
