                               Psi4 1.3.2 release

  ==> Input File <==

--------------------------------------------------------------------------
#psi4
#
memory 32 gb

molecule  {
0 1
  N       -1.5631460    -1.0786450     0.0000020
  C        0.9814170     1.4318910     0.0000000
  C        2.1554110     0.6922200     0.0000020
  C        2.1326810    -0.7203310    -0.0000050
  C        0.9343870    -1.4220840     0.0000000
  C       -0.2481830    -0.6706930     0.0000000
  C       -0.2675781     0.7053244     0.0000153
  C       -1.6207120     1.1681210    -0.0000080
  C       -2.3885810     0.0265560    -0.0000050
  H        1.0121500     2.5200250     0.0000050
  H        3.1140070     1.2059840    -0.0000050
  H        3.0718340    -1.2688090    -0.0000050
  H        0.9183210    -2.5105470    -0.0000040
  H       -1.9975130     2.1830700    -0.0000130
  H       -1.8769340    -2.0399470     0.0000180
  H       -3.4648550    -0.0903210     0.0000040
units angstrom
no_reorient  #important for SAPT in psi4, default
symmetry c1  #important for SAPT in psi4, default
}

set PROPERTIES_ORIGIN ["COM"]
properties('MP2/aug-cc-pvtz', properties = ['dipole'])
--------------------------------------------------------------------------

    Molecular point group: c1
  Charge       = 0
  Multiplicity = 1
  Basis Set: AUG-CC-PVTZ
    Blend: AUG-CC-PVTZ
  Basis Set: (AUG-CC-PVTZ AUX)
    Blend: AUG-CC-PVTZ-JKFIT

    Orbital Energies [Eh]
    ---------------------

    Doubly Occupied:

       1A    -15.603439     2A    -11.271609     3A    -11.260940
       4A    -11.235049     5A    -11.234774     6A    -11.230677
       7A    -11.224589     8A    -11.222941     9A    -11.217302
      10A     -1.298212    11A     -1.128017    12A     -1.054656
      13A     -0.999319    14A     -0.972537    15A     -0.842497
      16A     -0.803381    17A     -0.788863    18A     -0.728426
      19A     -0.659555    20A     -0.647023    21A     -0.601954
      22A     -0.593890    23A     -0.585878    24A     -0.576193
      25A     -0.549459    26A     -0.501217    27A     -0.490604
      28A     -0.463739    29A     -0.381326    30A     -0.306454
      31A     -0.282494

  @DF-RHF Final Energy:  -361.58712940973271

   => Energetics <=

    Nuclear Repulsion Energy =            400.5179381118017545
    One-Electron Energy =               -1282.6961113687957550
    Two-Electron Energy =                 520.5910438472612896
    Total Energy =                       -361.5871294097327109
  Basis Set: (AUG-CC-PVTZ AUX)
    Blend: AUG-CC-PVTZ-RI
    Molecular point group: c1

    Geometry (in Angstrom), charge = 0, multiplicity = 1:

       Center              X                  Y                   Z               Mass
    ------------   -----------------  -----------------  -----------------  -----------------
         N           -1.554947863816    -1.073751332229     0.000001832509    14.003074004430
         C            0.989615136184     1.436784667771    -0.000000167491    12.000000000000
         C            2.163609136184     0.697113667771     0.000001832509    12.000000000000
         C            2.140879136184    -0.715437332229    -0.000005167491    12.000000000000
         C            0.942585136184    -1.417190332229    -0.000000167491    12.000000000000
         C           -0.239984863816    -0.665799332229    -0.000000167491    12.000000000000
         C           -0.259379963816     0.710218067771     0.000015132509    12.000000000000
         C           -1.612513863816     1.173014667771    -0.000008167491    12.000000000000
         C           -2.380382863816     0.031449667771    -0.000005167491    12.000000000000
         H            1.020348136184     2.524918667771     0.000004832509     1.007825032230
         H            3.122205136184     1.210877667771    -0.000005167491     1.007825032230
         H            3.080032136184    -1.263915332229    -0.000005167491     1.007825032230
         H            0.926519136184    -2.505653332229    -0.000004167491     1.007825032230
         H           -1.989314863816     2.187963667771    -0.000013167491     1.007825032230
         H           -1.868735863816    -2.035053332229     0.000017832509     1.007825032230
         H           -3.456656863816    -0.085427332229     0.000003832509     1.007825032230

  Basis Set: AUG-CC-PVTZ
    Blend: AUG-CC-PVTZ
  Basis Set: (AUG-CC-PVTZ AUX)
    Blend: AUG-CC-PVTZ-JKFIT
	 Reference Energy          =    -361.5871294097327109 [Eh]
	 Singles Energy            =      -0.0000000000000000 [Eh]
	 Same-Spin Energy          =      -0.4074785606243981 [Eh]
	 Opposite-Spin Energy      =      -1.2476689623261734 [Eh]
	 Correlation Energy        =      -1.6551475229505717 [Eh]
	 Total Energy              =    -363.2422769326832963 [Eh]

	 ================> DF-SCS-MP2 Energies <==================
	-----------------------------------------------------------
	 SCS Same-Spin Scale       =       0.3333333333333333 [-]
	 SCS Opposite-Spin Scale   =       1.2000000000000000 [-]
	 SCS Same-Spin Energy      =      -0.1358261868747994 [Eh]
	 SCS Opposite-Spin Energy  =      -1.4972027547914080 [Eh]
	 SCS Correlation Energy    =      -1.6330289416662074 [Eh]
	 SCS Total Energy          =    -363.2201583513989362 [Eh]
	-----------------------------------------------------------

  Dipole Moment: [D]
     X:    -1.4186      Y:    -1.5013      Z:     0.0000     Total:     2.0655

*** Psi4 exiting successfully. Buy a developer a beer!
