                               Psi4 1.3.2 release

  ==> Input File <==

--------------------------------------------------------------------------
#psi4
#
memory 32 gb

molecule  {
0 1
  N       -1.5631460    -1.0786450     0.0000020
  C        0.9814170     1.4318910     0.0000000
  C        2.1554110     0.6922200     0.0000020
  C        2.1326810    -0.7203310    -0.0000050
  C        0.9343870    -1.4220840     0.0000000
  C       -0.2481830    -0.6706930     0.0000000
  C       -0.2452116     0.7767762     0.0000148
  C       -1.6207120     1.1681210    -0.0000080
  C       -2.3885810     0.0265560    -0.0000050
  H        1.0121500     2.5200250     0.0000050
  H        3.1140070     1.2059840    -0.0000050
  H        3.0718340    -1.2688090    -0.0000050
  H        0.9183210    -2.5105470    -0.0000040
  H       -1.9975130     2.1830700    -0.0000130
  H       -1.8769340    -2.0399470     0.0000180
  H       -3.4648550    -0.0903210     0.0000040
units angstrom
no_reorient  #important for SAPT in psi4, default
symmetry c1  #important for SAPT in psi4, default
}

set PROPERTIES_ORIGIN ["COM"]
properties('MP2/aug-cc-pvtz', properties = ['dipole'])
--------------------------------------------------------------------------

    Molecular point group: c1
  Charge       = 0
  Multiplicity = 1
  Basis Set: AUG-CC-PVTZ
    Blend: AUG-CC-PVTZ
  Basis Set: (AUG-CC-PVTZ AUX)
    Blend: AUG-CC-PVTZ-JKFIT

    Orbital Energies [Eh]
    ---------------------

    Doubly Occupied:

       1A    -15.606783     2A    -11.274050     3A    -11.269964
       4A    -11.232959     5A    -11.230332     6A    -11.230089
       7A    -11.228388     8A    -11.222116     9A    -11.219651
      10A     -1.295485    11A     -1.128744    12A     -1.056724
      13A     -0.995317    14A     -0.975112    15A     -0.842352
      16A     -0.807678    17A     -0.787979    18A     -0.726602
      19A     -0.663141    20A     -0.647637    21A     -0.601708
      22A     -0.595802    23A     -0.583274    24A     -0.574096
      25A     -0.549794    26A     -0.510481    27A     -0.477979
      28A     -0.465559    29A     -0.388433    30A     -0.299293
      31A     -0.283300

  @DF-RHF Final Energy:  -361.58795944741894

   => Energetics <=

    Nuclear Repulsion Energy =            399.7535501739886286
    One-Electron Energy =               -1281.1413745530815049
    Two-Electron Energy =                 519.7998649316739375
    Total Energy =                       -361.5879594474189389
  Basis Set: (AUG-CC-PVTZ AUX)
    Blend: AUG-CC-PVTZ-RI
    Molecular point group: c1

    Geometry (in Angstrom), charge = 0, multiplicity = 1:

       Center              X                  Y                   Z               Mass
    ------------   -----------------  -----------------  -----------------  -----------------
         N           -1.557240730136    -1.081076100330     0.000001883766    14.003074004430
         C            0.987322269864     1.429459899670    -0.000000116234    12.000000000000
         C            2.161316269864     0.689788899670     0.000001883766    12.000000000000
         C            2.138586269864    -0.722762100330    -0.000005116234    12.000000000000
         C            0.940292269864    -1.424515100330    -0.000000116234    12.000000000000
         C           -0.242277730136    -0.673124100330    -0.000000116234    12.000000000000
         C           -0.239306330136     0.774345099670     0.000014683766    12.000000000000
         C           -1.614806730136     1.165689899670    -0.000008116234    12.000000000000
         C           -2.382675730136     0.024124899670    -0.000005116234    12.000000000000
         H            1.018055269864     2.517593899670     0.000004883766     1.007825032230
         H            3.119912269864     1.203552899670    -0.000005116234     1.007825032230
         H            3.077739269864    -1.271240100330    -0.000005116234     1.007825032230
         H            0.924226269864    -2.512978100330    -0.000004116234     1.007825032230
         H           -1.991607730136     2.180638899670    -0.000013116234     1.007825032230
         H           -1.871028730136    -2.042378100330     0.000017883766     1.007825032230
         H           -3.458949730136    -0.092752100330     0.000003883766     1.007825032230

  Basis Set: AUG-CC-PVTZ
    Blend: AUG-CC-PVTZ
  Basis Set: (AUG-CC-PVTZ AUX)
    Blend: AUG-CC-PVTZ-JKFIT
	 Reference Energy          =    -361.5879594474189389 [Eh]
	 Singles Energy            =      -0.0000000000000000 [Eh]
	 Same-Spin Energy          =      -0.4082197074992612 [Eh]
	 Opposite-Spin Energy      =      -1.2480861492825217 [Eh]
	 Correlation Energy        =      -1.6563058567817830 [Eh]
	 Total Energy              =    -363.2442653042007237 [Eh]

	 ================> DF-SCS-MP2 Energies <==================
	-----------------------------------------------------------
	 SCS Same-Spin Scale       =       0.3333333333333333 [-]
	 SCS Opposite-Spin Scale   =       1.2000000000000000 [-]
	 SCS Same-Spin Energy      =      -0.1360732358330871 [Eh]
	 SCS Opposite-Spin Energy  =      -1.4977033791390260 [Eh]
	 SCS Correlation Energy    =      -1.6337766149721129 [Eh]
	 SCS Total Energy          =    -363.2217360623910736 [Eh]
	-----------------------------------------------------------

  Dipole Moment: [D]
     X:    -1.5155      Y:    -1.5695      Z:     0.0000     Total:     2.1818

*** Psi4 exiting successfully. Buy a developer a beer!
