                               Psi4 1.3.2 release

  ==> Input File <==

--------------------------------------------------------------------------
#psi4
#
memory 32 gb

molecule  {
0 1
  N       -1.5631460    -1.0786450     0.0000020
  C        0.9814170     1.4318910     0.0000000
  C        2.1554110     0.6922200     0.0000020
  C        2.1326810    -0.7203310    -0.0000050
  C        0.9343870    -1.4220840     0.0000000
  C       -0.2481830    -0.6706930     0.0000000
  C       -0.2522510     0.7528300     0.0000150
  C       -1.6207120     1.1681210    -0.0000080
  C       -2.3885810     0.0265560    -0.0000050
  H        1.0121500     2.5200250     0.0000050
  H        3.1140070     1.2059840    -0.0000050
  H        2.9854817    -1.2183781    -0.0000050
  H        0.9183210    -2.5105470    -0.0000040
  H       -1.9975130     2.1830700    -0.0000130
  H       -1.8769340    -2.0399470     0.0000180
  H       -3.4648550    -0.0903210     0.0000040
units angstrom
no_reorient  #important for SAPT in psi4, default
symmetry c1  #important for SAPT in psi4, default
}

set PROPERTIES_ORIGIN ["COM"]
properties('MP2/aug-cc-pvtz', properties = ['dipole'])
--------------------------------------------------------------------------

    Molecular point group: c1
  Charge       = 0
  Multiplicity = 1
  Basis Set: AUG-CC-PVTZ
    Blend: AUG-CC-PVTZ
  Basis Set: (AUG-CC-PVTZ AUX)
    Blend: AUG-CC-PVTZ-JKFIT

    Orbital Energies [Eh]
    ---------------------

    Doubly Occupied:

       1A    -15.605367     2A    -11.272934     3A    -11.266529
       4A    -11.232695     5A    -11.231042     6A    -11.226948
       7A    -11.221677     8A    -11.218546     9A    -11.218207
      10A     -1.295925    11A     -1.128889    12A     -1.056499
      13A     -0.996099    14A     -0.977575    15A     -0.843771
      16A     -0.811341    17A     -0.788920    18A     -0.728841
      19A     -0.669221    20A     -0.649400    21A     -0.602169
      22A     -0.594911    23A     -0.583660    24A     -0.573912
      25A     -0.556957    26A     -0.510366    27A     -0.483507
      28A     -0.464335    29A     -0.385652    30A     -0.301019
      31A     -0.282672

  @DF-RHF Final Energy:  -361.58344600724121

   => Energetics <=

    Nuclear Repulsion Energy =            400.5405202207789443
    One-Electron Energy =               -1282.6887606398786374
    Two-Electron Energy =                 520.5647944118584292
    Total Energy =                       -361.5834460072412639
  Basis Set: (AUG-CC-PVTZ AUX)
    Blend: AUG-CC-PVTZ-RI
    Molecular point group: c1

    Geometry (in Angstrom), charge = 0, multiplicity = 1:

       Center              X                  Y                   Z               Mass
    ------------   -----------------  -----------------  -----------------  -----------------
         N           -1.555775635649    -1.079055485069     0.000001863263    14.003074004430
         C            0.988787364351     1.431480514931    -0.000000136737    12.000000000000
         C            2.162781364351     0.691809514931     0.000001863263    12.000000000000
         C            2.140051364351    -0.720741485069    -0.000005136737    12.000000000000
         C            0.941757364351    -1.422494485069    -0.000000136737    12.000000000000
         C           -0.240812635649    -0.671103485069    -0.000000136737    12.000000000000
         C           -0.244880635649     0.752419514931     0.000014863263    12.000000000000
         C           -1.613341635649     1.167710514931    -0.000008136737    12.000000000000
         C           -2.381210635649     0.026145514931    -0.000005136737    12.000000000000
         H            1.019520364351     2.519614514931     0.000004863263     1.007825032230
         H            3.121377364351     1.205573514931    -0.000005136737     1.007825032230
         H            2.992852064351    -1.218788585069    -0.000005136737     1.007825032230
         H            0.925691364351    -2.510957485069    -0.000004136737     1.007825032230
         H           -1.990142635649     2.182659514931    -0.000013136737     1.007825032230
         H           -1.869563635649    -2.040357485069     0.000017863263     1.007825032230
         H           -3.457484635649    -0.090731485069     0.000003863263     1.007825032230

  Basis Set: AUG-CC-PVTZ
    Blend: AUG-CC-PVTZ
  Basis Set: (AUG-CC-PVTZ AUX)
    Blend: AUG-CC-PVTZ-JKFIT
	 Reference Energy          =    -361.5834460072412071 [Eh]
	 Singles Energy            =      -0.0000000000000000 [Eh]
	 Same-Spin Energy          =      -0.4078469934731261 [Eh]
	 Opposite-Spin Energy      =      -1.2473882361243391 [Eh]
	 Correlation Energy        =      -1.6552352295974653 [Eh]
	 Total Energy              =    -363.2386812368386586 [Eh]

	 ================> DF-SCS-MP2 Energies <==================
	-----------------------------------------------------------
	 SCS Same-Spin Scale       =       0.3333333333333333 [-]
	 SCS Opposite-Spin Scale   =       1.2000000000000000 [-]
	 SCS Same-Spin Energy      =      -0.1359489978243754 [Eh]
	 SCS Opposite-Spin Energy  =      -1.4968658833492070 [Eh]
	 SCS Correlation Energy    =      -1.6328148811735823 [Eh]
	 SCS Total Energy          =    -363.2162608884148085 [Eh]
	-----------------------------------------------------------

  Dipole Moment: [D]
     X:    -1.4541      Y:    -1.5677      Z:     0.0000     Total:     2.1382

*** Psi4 exiting successfully. Buy a developer a beer!
