                               Psi4 1.3.2 release

  ==> Input File <==

--------------------------------------------------------------------------
#psi4
#
memory 32 gb

molecule  {
0 1
  N       -1.5631460    -1.0786450     0.0000020
  C        0.9814170     1.4318910     0.0000000
  C        2.1307551     0.6924016     0.0000022
  C        2.1326810    -0.7203310    -0.0000050
  C        0.9343870    -1.4220840     0.0000000
  C       -0.2481830    -0.6706930     0.0000000
  C       -0.2522510     0.7528300     0.0000150
  C       -1.6207120     1.1681210    -0.0000080
  C       -2.3885810     0.0265560    -0.0000050
  H        1.0121500     2.5200250     0.0000050
  H        3.1140070     1.2059840    -0.0000050
  H        3.0718340    -1.2688090    -0.0000050
  H        0.9183210    -2.5105470    -0.0000040
  H       -1.9975130     2.1830700    -0.0000130
  H       -1.8769340    -2.0399470     0.0000180
  H       -3.4648550    -0.0903210     0.0000040
units angstrom
no_reorient  #important for SAPT in psi4, default
symmetry c1  #important for SAPT in psi4, default
}

set PROPERTIES_ORIGIN ["COM"]
properties('MP2/aug-cc-pvtz', properties = ['dipole'])
--------------------------------------------------------------------------

    Molecular point group: c1
  Charge       = 0
  Multiplicity = 1
  Basis Set: AUG-CC-PVTZ
    Blend: AUG-CC-PVTZ
  Basis Set: (AUG-CC-PVTZ AUX)
    Blend: AUG-CC-PVTZ-JKFIT

    Orbital Energies [Eh]
    ---------------------

    Doubly Occupied:

       1A    -15.605749     2A    -11.272796     3A    -11.266350
       4A    -11.233949     5A    -11.230262     6A    -11.229093
       7A    -11.226790     8A    -11.221962     9A    -11.218502
      10A     -1.296023    11A     -1.130739    12A     -1.055945
      13A     -0.997925    14A     -0.974624    15A     -0.841126
      16A     -0.806618    17A     -0.787953    18A     -0.727790
      19A     -0.661006    20A     -0.645398    21A     -0.603291
      22A     -0.595877    23A     -0.584047    24A     -0.574028
      25A     -0.550514    26A     -0.504272    27A     -0.482407
      28A     -0.466754    29A     -0.386060    30A     -0.302655
      31A     -0.283085

  @DF-RHF Final Energy:  -361.58861700668143

   => Energetics <=

    Nuclear Repulsion Energy =            400.4264097942594844
    One-Electron Energy =               -1282.5028795696787256
    Two-Electron Energy =                 520.4878527687378664
    Total Energy =                       -361.5886170066813747
  Basis Set: (AUG-CC-PVTZ AUX)
    Blend: AUG-CC-PVTZ-RI
    Molecular point group: c1

    Geometry (in Angstrom), charge = 0, multiplicity = 1:

       Center              X                  Y                   Z               Mass
    ------------   -----------------  -----------------  -----------------  -----------------
         N           -1.553991536660    -1.078639910003     0.000001842760    14.003074004430
         C            0.990571463340     1.431896089997    -0.000000157240    12.000000000000
         C            2.139909563340     0.692406689997     0.000002042760    12.000000000000
         C            2.141835463340    -0.720325910003    -0.000005157240    12.000000000000
         C            0.943541463340    -1.422078910003    -0.000000157240    12.000000000000
         C           -0.239028536660    -0.670687910003    -0.000000157240    12.000000000000
         C           -0.243096536660     0.752835089997     0.000014842760    12.000000000000
         C           -1.611557536660     1.168126089997    -0.000008157240    12.000000000000
         C           -2.379426536660     0.026561089997    -0.000005157240    12.000000000000
         H            1.021304463340     2.520030089997     0.000004842760     1.007825032230
         H            3.123161463340     1.205989089997    -0.000005157240     1.007825032230
         H            3.080988463340    -1.268803910003    -0.000005157240     1.007825032230
         H            0.927475463340    -2.510541910003    -0.000004157240     1.007825032230
         H           -1.988358536660     2.183075089997    -0.000013157240     1.007825032230
         H           -1.867779536660    -2.039941910003     0.000017842760     1.007825032230
         H           -3.455700536660    -0.090315910003     0.000003842760     1.007825032230

  Basis Set: AUG-CC-PVTZ
    Blend: AUG-CC-PVTZ
  Basis Set: (AUG-CC-PVTZ AUX)
    Blend: AUG-CC-PVTZ-JKFIT
	 Reference Energy          =    -361.5886170066814316 [Eh]
	 Singles Energy            =      -0.0000000000000000 [Eh]
	 Same-Spin Energy          =      -0.4079991633073973 [Eh]
	 Opposite-Spin Energy      =      -1.2478441560283784 [Eh]
	 Correlation Energy        =      -1.6558433193357756 [Eh]
	 Total Energy              =    -363.2444603260171903 [Eh]

	 ================> DF-SCS-MP2 Energies <==================
	-----------------------------------------------------------
	 SCS Same-Spin Scale       =       0.3333333333333333 [-]
	 SCS Opposite-Spin Scale   =       1.2000000000000000 [-]
	 SCS Same-Spin Energy      =      -0.1359997211024657 [Eh]
	 SCS Opposite-Spin Energy  =      -1.4974129872340540 [Eh]
	 SCS Correlation Energy    =      -1.6334127083365197 [Eh]
	 SCS Total Energy          =    -363.2220297150179249 [Eh]
	-----------------------------------------------------------

  Dipole Moment: [D]
     X:    -1.4777      Y:    -1.5530      Z:     0.0000     Total:     2.1437

*** Psi4 exiting successfully. Buy a developer a beer!
