                               Psi4 1.3.2 release

  ==> Input File <==

--------------------------------------------------------------------------
#psi4
#
memory 32 gb

molecule  {
0 1
  N       -1.6422516    -1.1335322     0.0000020
  C        0.9814170     1.4318910     0.0000000
  C        2.1554110     0.6922200     0.0000020
  C        2.1326810    -0.7203310    -0.0000050
  C        0.9343870    -1.4220840     0.0000000
  C       -0.2481830    -0.6706930     0.0000000
  C       -0.2522510     0.7528300     0.0000150
  C       -1.6207120     1.1681210    -0.0000080
  C       -2.3885810     0.0265560    -0.0000050
  H        1.0121500     2.5200250     0.0000050
  H        3.1140070     1.2059840    -0.0000050
  H        3.0718340    -1.2688090    -0.0000050
  H        0.9183210    -2.5105470    -0.0000040
  H       -1.9975130     2.1830700    -0.0000130
  H       -1.8769340    -2.0399470     0.0000180
  H       -3.4648550    -0.0903210     0.0000040
units angstrom
no_reorient  #important for SAPT in psi4, default
symmetry c1  #important for SAPT in psi4, default
}

set PROPERTIES_ORIGIN ["COM"]
properties('MP2/aug-cc-pvtz', properties = ['dipole'])
--------------------------------------------------------------------------

    Molecular point group: c1
  Charge       = 0
  Multiplicity = 1
  Basis Set: AUG-CC-PVTZ
    Blend: AUG-CC-PVTZ
  Basis Set: (AUG-CC-PVTZ AUX)
    Blend: AUG-CC-PVTZ-JKFIT

    Orbital Energies [Eh]
    ---------------------

    Doubly Occupied:

       1A    -15.598800     2A    -11.278515     3A    -11.273479
       4A    -11.237013     5A    -11.233867     6A    -11.232234
       7A    -11.230562     8A    -11.226710     9A    -11.219108
      10A     -1.278748    11A     -1.133043    12A     -1.059056
      13A     -1.001110    14A     -0.971318    15A     -0.835971
      16A     -0.821533    17A     -0.788420    18A     -0.729293
      19A     -0.649972    20A     -0.647854    21A     -0.617652
      22A     -0.594767    23A     -0.575243    24A     -0.572079
      25A     -0.541259    26A     -0.509178    27A     -0.484546
      28A     -0.467963    29A     -0.384481    30A     -0.310538
      31A     -0.280815

  @DF-RHF Final Energy:  -361.57701411333159

   => Energetics <=

    Nuclear Repulsion Energy =            397.9671211763355245
    One-Electron Energy =               -1277.5180189780699038
    Two-Electron Energy =                 517.9738836884029070
    Total Energy =                       -361.5770141133315292
  Basis Set: (AUG-CC-PVTZ AUX)
    Blend: AUG-CC-PVTZ-RI
    Molecular point group: c1

    Geometry (in Angstrom), charge = 0, multiplicity = 1:

       Center              X                  Y                   Z               Mass
    ------------   -----------------  -----------------  -----------------  -----------------
         N           -1.626161670339    -1.126942598767     0.000001863263    14.003074004430
         C            0.997506929661     1.438480601233    -0.000000136737    12.000000000000
         C            2.171500929661     0.698809601233     0.000001863263    12.000000000000
         C            2.148770929661    -0.713741398767    -0.000005136737    12.000000000000
         C            0.950476929661    -1.415494398767    -0.000000136737    12.000000000000
         C           -0.232093070339    -0.664103398767    -0.000000136737    12.000000000000
         C           -0.236161070339     0.759419601233     0.000014863263    12.000000000000
         C           -1.604622070339     1.174710601233    -0.000008136737    12.000000000000
         C           -2.372491070339     0.033145601233    -0.000005136737    12.000000000000
         H            1.028239929661     2.526614601233     0.000004863263     1.007825032230
         H            3.130096929661     1.212573601233    -0.000005136737     1.007825032230
         H            3.087923929661    -1.262219398767    -0.000005136737     1.007825032230
         H            0.934410929661    -2.503957398767    -0.000004136737     1.007825032230
         H           -1.981423070339     2.189659601233    -0.000013136737     1.007825032230
         H           -1.860844070339    -2.033357398767     0.000017863263     1.007825032230
         H           -3.448765070339    -0.083731398767     0.000003863263     1.007825032230

  Basis Set: AUG-CC-PVTZ
    Blend: AUG-CC-PVTZ
  Basis Set: (AUG-CC-PVTZ AUX)
    Blend: AUG-CC-PVTZ-JKFIT
	 Reference Energy          =    -361.5770141133315860 [Eh]
	 Singles Energy            =      -0.0000000000000000 [Eh]
	 Same-Spin Energy          =      -0.4070238178647827 [Eh]
	 Opposite-Spin Energy      =      -1.2477114337191419 [Eh]
	 Correlation Energy        =      -1.6547352515839246 [Eh]
	 Total Energy              =    -363.2317493649155153 [Eh]

	 ================> DF-SCS-MP2 Energies <==================
	-----------------------------------------------------------
	 SCS Same-Spin Scale       =       0.3333333333333333 [-]
	 SCS Opposite-Spin Scale   =       1.2000000000000000 [-]
	 SCS Same-Spin Energy      =      -0.1356746059549276 [Eh]
	 SCS Opposite-Spin Energy  =      -1.4972537204629703 [Eh]
	 SCS Correlation Energy    =      -1.6329283264178980 [Eh]
	 SCS Total Energy          =    -363.2099424397495113 [Eh]
	-----------------------------------------------------------

  Dipole Moment: [D]
     X:    -1.1955      Y:    -1.3811      Z:     0.0000     Total:     1.8266

*** Psi4 exiting successfully. Buy a developer a beer!
