                               Psi4 1.3.2 release

  ==> Input File <==

--------------------------------------------------------------------------
#psi4
#
memory 32 gb

molecule  {
0 1
  N       -1.5631460    -1.0786450     0.0000020
  C        0.9814170     1.4318910     0.0000000
  C        2.1554110     0.6922200     0.0000020
  C        2.1326810    -0.7203310    -0.0000050
  C        0.9839207    -1.3377617     0.0000012
  C       -0.2481830    -0.6706930     0.0000000
  C       -0.2522510     0.7528300     0.0000150
  C       -1.6207120     1.1681210    -0.0000080
  C       -2.3885810     0.0265560    -0.0000050
  H        1.0121500     2.5200250     0.0000050
  H        3.1140070     1.2059840    -0.0000050
  H        3.0718340    -1.2688090    -0.0000050
  H        0.9183210    -2.5105470    -0.0000040
  H       -1.9975130     2.1830700    -0.0000130
  H       -1.8769340    -2.0399470     0.0000180
  H       -3.4648550    -0.0903210     0.0000040
units angstrom
no_reorient  #important for SAPT in psi4, default
symmetry c1  #important for SAPT in psi4, default
}

set PROPERTIES_ORIGIN ["COM"]
properties('MP2/aug-cc-pvtz', properties = ['dipole'])
--------------------------------------------------------------------------

    Molecular point group: c1
  Charge       = 0
  Multiplicity = 1
  Basis Set: AUG-CC-PVTZ
    Blend: AUG-CC-PVTZ
  Basis Set: (AUG-CC-PVTZ AUX)
    Blend: AUG-CC-PVTZ-JKFIT

    Orbital Energies [Eh]
    ---------------------

    Doubly Occupied:

       1A    -15.609673     2A    -11.273019     3A    -11.265617
       4A    -11.232449     5A    -11.230314     6A    -11.225294
       7A    -11.221937     8A    -11.219851     9A    -11.218859
      10A     -1.296917    11A     -1.139070    12A     -1.058355
      13A     -0.994808    14A     -0.981980    15A     -0.839345
      16A     -0.810574    17A     -0.786721    18A     -0.728041
      19A     -0.661205    20A     -0.650386    21A     -0.602989
      22A     -0.585671    23A     -0.580382    24A     -0.576862
      25A     -0.555876    26A     -0.512456    27A     -0.473037
      28A     -0.464300    29A     -0.389103    30A     -0.299792
      31A     -0.289541

  @DF-RHF Final Energy:  -361.57711757311199

   => Energetics <=

    Nuclear Repulsion Energy =            401.3021442550285656
    One-Electron Energy =               -1284.2096728291485306
    Two-Electron Energy =                 521.3304110010079739
    Total Energy =                       -361.5771175731119911
  Basis Set: (AUG-CC-PVTZ AUX)
    Blend: AUG-CC-PVTZ-RI
    Molecular point group: c1

    Geometry (in Angstrom), charge = 0, multiplicity = 1:

       Center              X                  Y                   Z               Mass
    ------------   -----------------  -----------------  -----------------  -----------------
         N           -1.561596965991    -1.087265460588     0.000001740247    14.003074004430
         C            0.982966034009     1.423270539412    -0.000000259753    12.000000000000
         C            2.156960034009     0.683599539412     0.000001740247    12.000000000000
         C            2.134230034009    -0.728951460588    -0.000005259753    12.000000000000
         C            0.985469734009    -1.346382160588     0.000000940247    12.000000000000
         C           -0.246633965991    -0.679313460588    -0.000000259753    12.000000000000
         C           -0.250701965991     0.744209539412     0.000014740247    12.000000000000
         C           -1.619162965991     1.159500539412    -0.000008259753    12.000000000000
         C           -2.387031965991     0.017935539412    -0.000005259753    12.000000000000
         H            1.013699034009     2.511404539412     0.000004740247     1.007825032230
         H            3.115556034009     1.197363539412    -0.000005259753     1.007825032230
         H            3.073383034009    -1.277429460588    -0.000005259753     1.007825032230
         H            0.919870034009    -2.519167460588    -0.000004259753     1.007825032230
         H           -1.995963965991     2.174449539412    -0.000013259753     1.007825032230
         H           -1.875384965991    -2.048567460588     0.000017740247     1.007825032230
         H           -3.463305965991    -0.098941460588     0.000003740247     1.007825032230

  Basis Set: AUG-CC-PVTZ
    Blend: AUG-CC-PVTZ
  Basis Set: (AUG-CC-PVTZ AUX)
    Blend: AUG-CC-PVTZ-JKFIT
	 Reference Energy          =    -361.5771175731119911 [Eh]
	 Singles Energy            =      -0.0000000000000000 [Eh]
	 Same-Spin Energy          =      -0.4080047377264355 [Eh]
	 Opposite-Spin Energy      =      -1.2478468597648624 [Eh]
	 Correlation Energy        =      -1.6558515974912980 [Eh]
	 Total Energy              =    -363.2329691706032690 [Eh]

	 ================> DF-SCS-MP2 Energies <==================
	-----------------------------------------------------------
	 SCS Same-Spin Scale       =       0.3333333333333333 [-]
	 SCS Opposite-Spin Scale   =       1.2000000000000000 [-]
	 SCS Same-Spin Energy      =      -0.1360015792421451 [Eh]
	 SCS Opposite-Spin Energy  =      -1.4974162317178348 [Eh]
	 SCS Correlation Energy    =      -1.6334178109599800 [Eh]
	 SCS Total Energy          =    -363.2105353840719886 [Eh]
	-----------------------------------------------------------

  Dipole Moment: [D]
     X:    -1.4644      Y:    -1.5113      Z:     0.0000     Total:     2.1044

*** Psi4 exiting successfully. Buy a developer a beer!
