                               Psi4 1.4a3.dev225

  ==> Input File <==

--------------------------------------------------------------------------
#psi4
#
memory 32 gb

molecule  {
0 1
  N       -1.5630850    -1.0784890    -0.0000040
  C        0.9811620     1.4317850    -0.0000050
  C        2.1553110     0.6923450     0.0000000
  C        2.1328040    -0.7200770     0.0000000
  C        0.9346070    -1.4219960     0.0000040
  C       -0.2479390    -0.6706250     0.0000000
  C       -0.2522910     0.7524290     0.0000030
  C       -1.6208000     1.1677860     0.0000050
  C       -2.3888340     0.0267020    -0.0000020
  H        1.0099899     2.4697693    -0.0000021
  H        3.1138040     1.2059540    -0.0000050
  H        3.0720020    -1.2682500     0.0000030
  H        0.9188940    -2.5102320     0.0000020
  H       -1.9966350     2.1828910     0.0000100
  H       -1.8770410    -2.0396260     0.0000000
  H       -3.4649170    -0.0911630    -0.0000050
units angstrom
no_reorient  #important for SAPT in psi4, default
symmetry c1  #important for SAPT in psi4, default
}

set PROPERTIES_ORIGIN ["COM"]
properties('MP2/aug-cc-pvtz', properties = ['dipole'])
--------------------------------------------------------------------------

    Molecular point group: c1
  Charge       = 0
  Multiplicity = 1
  Basis Set: AUG-CC-PVTZ
    Blend: AUG-CC-PVTZ
  Basis Set: (AUG-CC-PVTZ AUX)
    Blend: AUG-CC-PVTZ-JKFIT

    Orbital Energies [Eh]
    ---------------------

    Doubly Occupied:

       1A    -15.605452     2A    -11.273054     3A    -11.266723
       4A    -11.233368     5A    -11.230050     6A    -11.227009
       7A    -11.225446     8A    -11.221890     9A    -11.218657
      10A     -1.296007    11A     -1.128631    12A     -1.056095
      13A     -0.997222    14A     -0.974897    15A     -0.844086
      16A     -0.806009    17A     -0.788595    18A     -0.731132
      19A     -0.663157    20A     -0.647309    21A     -0.602718
      22A     -0.599582    23A     -0.583807    24A     -0.574466
      25A     -0.550026    26A     -0.507514    27A     -0.484928
      28A     -0.464631    29A     -0.385862    30A     -0.301284
      31A     -0.282864

  @DF-RHF Final Energy:  -361.58857501774349

   => Energetics <=

    Nuclear Repulsion Energy =            400.2848361762324316
    One-Electron Energy =               -1282.2018774079367631
    Two-Electron Energy =                 520.3284662139609509
    Total Energy =                       -361.5885750177434375
  Basis Set: (AUG-CC-PVTZ AUX)
    Blend: AUG-CC-PVTZ-RI
    Molecular point group: c1

    Geometry (in Angstrom), charge = 0, multiplicity = 1:

       Center              X                  Y                   Z               Mass
    ------------   -----------------  -----------------  -----------------  -----------------
         N           -1.556442258381    -1.078036007137    -0.000004059034    14.003074004430
         C            0.987804741619     1.432237992863    -0.000005059034    12.000000000000
         C            2.161953741619     0.692797992863    -0.000000059034    12.000000000000
         C            2.139446741619    -0.719624007137    -0.000000059034    12.000000000000
         C            0.941249741619    -1.421543007137     0.000003940966    12.000000000000
         C           -0.241296258381    -0.670172007137    -0.000000059034    12.000000000000
         C           -0.245648258381     0.752881992863     0.000002940966    12.000000000000
         C           -1.614157258381     1.168238992863     0.000004940966    12.000000000000
         C           -2.382191258381     0.027154992863    -0.000002059034    12.000000000000
         H            1.016632641619     2.470222292863    -0.000002159034     1.007825032230
         H            3.120446741619     1.206406992863    -0.000005059034     1.007825032230
         H            3.078644741619    -1.267797007137     0.000002940966     1.007825032230
         H            0.925536741619    -2.509779007137     0.000001940966     1.007825032230
         H           -1.989992258381     2.183343992863     0.000009940966     1.007825032230
         H           -1.870398258381    -2.039173007137    -0.000000059034     1.007825032230
         H           -3.458274258381    -0.090710007137    -0.000005059034     1.007825032230

  Basis Set: AUG-CC-PVTZ
    Blend: AUG-CC-PVTZ
  Basis Set: (AUG-CC-PVTZ AUX)
    Blend: AUG-CC-PVTZ-JKFIT
	 Reference Energy          =    -361.5885750177434943 [Eh]
	 Singles Energy            =      -0.0000000000000000 [Eh]
	 Same-Spin Energy          =      -0.4078767542490887 [Eh]
	 Opposite-Spin Energy      =      -1.2475681666663438 [Eh]
	 Correlation Energy        =      -1.6554449209154325 [Eh]
	 Total Energy              =    -363.2440199386589370 [Eh]

	 ================> DF-SCS-MP2 Energies <==================
	-----------------------------------------------------------
	 SCS Same-Spin Scale       =       0.3333333333333333 [-]
	 SCS Opposite-Spin Scale   =       1.2000000000000000 [-]
	 SCS Same-Spin Energy      =      -0.1359589180830296 [Eh]
	 SCS Opposite-Spin Energy  =      -1.4970817999996127 [Eh]
	 SCS Correlation Energy    =      -1.6330407180826423 [Eh]
	 SCS Total Energy          =    -363.2216157358261626 [Eh]
	-----------------------------------------------------------

  Dipole Moment: [D]
     X:    -1.4800      Y:    -1.5280      Z:     0.0000     Total:     2.1272

*** Psi4 exiting successfully. Buy a developer a beer!
