                               Psi4 1.3.2 release

  ==> Input File <==

--------------------------------------------------------------------------
#psi4
#
memory 32 gb

molecule  {
0 1
  N       -1.4880618    -1.0183734     0.0000019
  C        0.9814170     1.4318910     0.0000000
  C        2.1554110     0.6922200     0.0000020
  C        2.1326810    -0.7203310    -0.0000050
  C        0.9343870    -1.4220840     0.0000000
  C       -0.2481830    -0.6706930     0.0000000
  C       -0.2522510     0.7528300     0.0000150
  C       -1.6207120     1.1681210    -0.0000080
  C       -2.3885810     0.0265560    -0.0000050
  H        1.0121500     2.5200250     0.0000050
  H        3.1140070     1.2059840    -0.0000050
  H        3.0718340    -1.2688090    -0.0000050
  H        0.9183210    -2.5105470    -0.0000040
  H       -1.9975130     2.1830700    -0.0000130
  H       -1.8769340    -2.0399470     0.0000180
  H       -3.4648550    -0.0903210     0.0000040
units angstrom
no_reorient  #important for SAPT in psi4, default
symmetry c1  #important for SAPT in psi4, default
}

set PROPERTIES_ORIGIN ["COM"]
properties('MP2/aug-cc-pvtz', properties = ['dipole'])
--------------------------------------------------------------------------

    Molecular point group: c1
  Charge       = 0
  Multiplicity = 1
  Basis Set: AUG-CC-PVTZ
    Blend: AUG-CC-PVTZ
  Basis Set: (AUG-CC-PVTZ AUX)
    Blend: AUG-CC-PVTZ-JKFIT

    Orbital Energies [Eh]
    ---------------------

    Doubly Occupied:

       1A    -15.612894     2A    -11.268873     3A    -11.260346
       4A    -11.231382     5A    -11.231354     6A    -11.229662
       7A    -11.221205     8A    -11.219447     9A    -11.217747
      10A     -1.320729    11A     -1.124542    12A     -1.056785
      13A     -0.992634    14A     -0.978270    15A     -0.849224
      16A     -0.797156    17A     -0.787369    18A     -0.722437
      19A     -0.675653    20A     -0.646187    21A     -0.599953
      22A     -0.597868    23A     -0.582942    24A     -0.570998
      25A     -0.554661    26A     -0.505709    27A     -0.479412
      28A     -0.462135    29A     -0.388669    30A     -0.292189
      31A     -0.285956

  @DF-RHF Final Energy:  -361.57261034872943

   => Energetics <=

    Nuclear Repulsion Energy =            402.2316369855739708
    One-Electron Energy =               -1286.0797161319403585
    Two-Electron Energy =                 522.2754687976370178
    Total Energy =                       -361.5726103487294267
  Basis Set: (AUG-CC-PVTZ AUX)
    Blend: AUG-CC-PVTZ-RI
    Molecular point group: c1

    Geometry (in Angstrom), charge = 0, multiplicity = 1:

       Center              X                  Y                   Z               Mass
    ------------   -----------------  -----------------  -----------------  -----------------
         N           -1.490416863087    -1.025559698540     0.000001775225    14.003074004430
         C            0.979061936913     1.424704701460    -0.000000124775    12.000000000000
         C            2.153055936913     0.685033701460     0.000001875225    12.000000000000
         C            2.130325936913    -0.727517298540    -0.000005124775    12.000000000000
         C            0.932031936913    -1.429270298540    -0.000000124775    12.000000000000
         C           -0.250538063087    -0.677879298540    -0.000000124775    12.000000000000
         C           -0.254606063087     0.745643701460     0.000014875225    12.000000000000
         C           -1.623067063087     1.160934701460    -0.000008124775    12.000000000000
         C           -2.390936063087     0.019369701460    -0.000005124775    12.000000000000
         H            1.009794936913     2.512838701460     0.000004875225     1.007825032230
         H            3.111651936913     1.198797701460    -0.000005124775     1.007825032230
         H            3.069478936913    -1.275995298540    -0.000005124775     1.007825032230
         H            0.915965936913    -2.517733298540    -0.000004124775     1.007825032230
         H           -1.999868063087     2.175883701460    -0.000013124775     1.007825032230
         H           -1.879289063087    -2.047133298540     0.000017875225     1.007825032230
         H           -3.467210063087    -0.097507298540     0.000003875225     1.007825032230

  Basis Set: AUG-CC-PVTZ
    Blend: AUG-CC-PVTZ
  Basis Set: (AUG-CC-PVTZ AUX)
    Blend: AUG-CC-PVTZ-JKFIT
	 Reference Energy          =    -361.5726103487294267 [Eh]
	 Singles Energy            =      -0.0000000000000000 [Eh]
	 Same-Spin Energy          =      -0.4094275502231819 [Eh]
	 Opposite-Spin Energy      =      -1.2494844862255485 [Eh]
	 Correlation Energy        =      -1.6589120364487304 [Eh]
	 Total Energy              =    -363.2315223851781525 [Eh]

	 ================> DF-SCS-MP2 Energies <==================
	-----------------------------------------------------------
	 SCS Same-Spin Scale       =       0.3333333333333333 [-]
	 SCS Opposite-Spin Scale   =       1.2000000000000000 [-]
	 SCS Same-Spin Energy      =      -0.1364758500743939 [Eh]
	 SCS Opposite-Spin Energy  =      -1.4993813834706582 [Eh]
	 SCS Correlation Energy    =      -1.6358572335450521 [Eh]
	 SCS Total Energy          =    -363.2084675822744657 [Eh]
	-----------------------------------------------------------

  Dipole Moment: [D]
     X:    -1.7508      Y:    -1.6812      Z:     0.0000     Total:     2.4272

*** Psi4 exiting successfully. Buy a developer a beer!
