                               Psi4 1.3.2 release

  ==> Input File <==

--------------------------------------------------------------------------
#psi4
#
memory 32 gb

molecule  {
0 1
  N       -1.5481076    -1.1242880     0.0000021
  C        0.9814170     1.4318910     0.0000000
  C        2.1554110     0.6922200     0.0000020
  C        2.1326810    -0.7203310    -0.0000050
  C        0.9343870    -1.4220840     0.0000000
  C       -0.2481830    -0.6706930     0.0000000
  C       -0.2522510     0.7528300     0.0000150
  C       -1.6207120     1.1681210    -0.0000080
  C       -2.3885810     0.0265560    -0.0000050
  H        1.0121500     2.5200250     0.0000050
  H        3.1140070     1.2059840    -0.0000050
  H        3.0718340    -1.2688090    -0.0000050
  H        0.9183210    -2.5105470    -0.0000040
  H       -1.9975130     2.1830700    -0.0000130
  H       -1.8769340    -2.0399470     0.0000180
  H       -3.4648550    -0.0903210     0.0000040
units angstrom
no_reorient  #important for SAPT in psi4, default
symmetry c1  #important for SAPT in psi4, default
}

set PROPERTIES_ORIGIN ["COM"]
properties('MP2/aug-cc-pvtz', properties = ['dipole'])
--------------------------------------------------------------------------

    Molecular point group: c1
  Charge       = 0
  Multiplicity = 1
  Basis Set: AUG-CC-PVTZ
    Blend: AUG-CC-PVTZ
  Basis Set: (AUG-CC-PVTZ AUX)
    Blend: AUG-CC-PVTZ-JKFIT

    Orbital Energies [Eh]
    ---------------------

    Doubly Occupied:

       1A    -15.601173     2A    -11.276255     3A    -11.269294
       4A    -11.232866     5A    -11.232023     6A    -11.230553
       7A    -11.228667     8A    -11.223888     9A    -11.222211
      10A     -1.286823    11A     -1.128033    12A     -1.059910
      13A     -0.996209    14A     -0.973120    15A     -0.840986
      16A     -0.812045    17A     -0.786240    18A     -0.728757
      19A     -0.661502    20A     -0.646820    21A     -0.601326
      22A     -0.595285    23A     -0.578496    24A     -0.576395
      25A     -0.548755    26A     -0.507460    27A     -0.484587
      28A     -0.462611    29A     -0.388845    30A     -0.299958
      31A     -0.285790

  @DF-RHF Final Energy:  -361.58641239688967

   => Energetics <=

    Nuclear Repulsion Energy =            399.3215435579536461
    One-Electron Energy =               -1280.2821495564548968
    Two-Electron Energy =                 519.3741936016116370
    Total Energy =                       -361.5864123968896138
  Basis Set: (AUG-CC-PVTZ AUX)
    Blend: AUG-CC-PVTZ-RI
    Molecular point group: c1

    Geometry (in Angstrom), charge = 0, multiplicity = 1:

       Center              X                  Y                   Z               Mass
    ------------   -----------------  -----------------  -----------------  -----------------
         N           -1.543279669493    -1.118804238465     0.000001951300    14.003074004430
         C            0.986244930507     1.437374761535    -0.000000148700    12.000000000000
         C            2.160238930507     0.697703761535     0.000001851300    12.000000000000
         C            2.137508930507    -0.714847238465    -0.000005148700    12.000000000000
         C            0.939214930507    -1.416600238465    -0.000000148700    12.000000000000
         C           -0.243355069493    -0.665209238465    -0.000000148700    12.000000000000
         C           -0.247423069493     0.758313761535     0.000014851300    12.000000000000
         C           -1.615884069493     1.173604761535    -0.000008148700    12.000000000000
         C           -2.383753069493     0.032039761535    -0.000005148700    12.000000000000
         H            1.016977930507     2.525508761535     0.000004851300     1.007825032230
         H            3.118834930507     1.211467761535    -0.000005148700     1.007825032230
         H            3.076661930507    -1.263325238465    -0.000005148700     1.007825032230
         H            0.923148930507    -2.505063238465    -0.000004148700     1.007825032230
         H           -1.992685069493     2.188553761535    -0.000013148700     1.007825032230
         H           -1.872106069493    -2.034463238465     0.000017851300     1.007825032230
         H           -3.460027069493    -0.084837238465     0.000003851300     1.007825032230

  Basis Set: AUG-CC-PVTZ
    Blend: AUG-CC-PVTZ
  Basis Set: (AUG-CC-PVTZ AUX)
    Blend: AUG-CC-PVTZ-JKFIT
	 Reference Energy          =    -361.5864123968896706 [Eh]
	 Singles Energy            =      -0.0000000000000000 [Eh]
	 Same-Spin Energy          =      -0.4074082150024749 [Eh]
	 Opposite-Spin Energy      =      -1.2478622469406297 [Eh]
	 Correlation Energy        =      -1.6552704619431047 [Eh]
	 Total Energy              =    -363.2416828588328030 [Eh]

	 ================> DF-SCS-MP2 Energies <==================
	-----------------------------------------------------------
	 SCS Same-Spin Scale       =       0.3333333333333333 [-]
	 SCS Opposite-Spin Scale   =       1.2000000000000000 [-]
	 SCS Same-Spin Energy      =      -0.1358027383341583 [Eh]
	 SCS Opposite-Spin Energy  =      -1.4974346963287557 [Eh]
	 SCS Correlation Energy    =      -1.6332374346629139 [Eh]
	 SCS Total Energy          =    -363.2196498315526014 [Eh]
	-----------------------------------------------------------

  Dipole Moment: [D]
     X:    -1.4680      Y:    -1.4110      Z:     0.0000     Total:     2.0362

*** Psi4 exiting successfully. Buy a developer a beer!
