                               Psi4 1.4a3.dev225

  ==> Input File <==

--------------------------------------------------------------------------
#psi4
#
memory 32 gb

molecule  {
0 1
  N       -1.5630850    -1.0784890    -0.0000040
  C        0.9811620     1.4317850    -0.0000050
  C        2.1553110     0.6923450     0.0000000
  C        2.1328040    -0.7200770     0.0000000
  C        0.9346070    -1.4219960     0.0000040
  C       -0.2479390    -0.6706250     0.0000000
  C       -0.2521381     0.7024292     0.0000029
  C       -1.6208000     1.1677860     0.0000050
  C       -2.3888340     0.0267020    -0.0000020
  H        1.0113780     2.5197500    -0.0000020
  H        3.1138040     1.2059540    -0.0000050
  H        3.0720020    -1.2682500     0.0000030
  H        0.9188940    -2.5102320     0.0000020
  H       -1.9966350     2.1828910     0.0000100
  H       -1.8770410    -2.0396260     0.0000000
  H       -3.4649170    -0.0911630    -0.0000050
units angstrom
no_reorient  #important for SAPT in psi4, default
symmetry c1  #important for SAPT in psi4, default
}

set PROPERTIES_ORIGIN ["COM"]
properties('MP2/aug-cc-pvtz', properties = ['dipole'])
--------------------------------------------------------------------------

    Molecular point group: c1
  Charge       = 0
  Multiplicity = 1
  Basis Set: AUG-CC-PVTZ
    Blend: AUG-CC-PVTZ
  Basis Set: (AUG-CC-PVTZ AUX)
    Blend: AUG-CC-PVTZ-JKFIT

    Orbital Energies [Eh]
    ---------------------

    Doubly Occupied:

       1A    -15.602723     2A    -11.271606     3A    -11.261110
       4A    -11.234579     5A    -11.234208     6A    -11.230696
       7A    -11.224508     8A    -11.222867     9A    -11.218136
      10A     -1.297383    11A     -1.129522    12A     -1.052695
      13A     -0.999654    14A     -0.973285    15A     -0.842989
      16A     -0.802293    17A     -0.789279    18A     -0.728991
      19A     -0.658508    20A     -0.647090    21A     -0.601879
      22A     -0.595491    23A     -0.585521    24A     -0.576446
      25A     -0.548635    26A     -0.501329    27A     -0.490125
      28A     -0.464642    29A     -0.380296    30A     -0.306111
      31A     -0.283840

  @DF-RHF Final Energy:  -361.58780107890436

   => Energetics <=

    Nuclear Repulsion Energy =            400.5650869572219790
    One-Electron Energy =               -1282.7929027955310630
    Two-Electron Energy =                 520.6400147594047212
    Total Energy =                       -361.5878010789043628
  Basis Set: (AUG-CC-PVTZ AUX)
    Blend: AUG-CC-PVTZ-RI
    Molecular point group: c1

    Geometry (in Angstrom), charge = 0, multiplicity = 1:

       Center              X                  Y                   Z               Mass
    ------------   -----------------  -----------------  -----------------  -----------------
         N           -1.556469883712    -1.073340672283    -0.000004049644    14.003074004430
         C            0.987777116288     1.436933327717    -0.000005049644    12.000000000000
         C            2.161926116288     0.697493327717    -0.000000049644    12.000000000000
         C            2.139419116288    -0.714928672283    -0.000000049644    12.000000000000
         C            0.941222116288    -1.416847672283     0.000003950356    12.000000000000
         C           -0.241323883712    -0.665476672283    -0.000000049644    12.000000000000
         C           -0.245522983712     0.707577527717     0.000002850356    12.000000000000
         C           -1.614184883712     1.172934327717     0.000004950356    12.000000000000
         C           -2.382218883712     0.031850327717    -0.000002049644    12.000000000000
         H            1.017993116288     2.524898327717    -0.000002049644     1.007825032230
         H            3.120419116288     1.211102327717    -0.000005049644     1.007825032230
         H            3.078617116288    -1.263101672283     0.000002950356     1.007825032230
         H            0.925509116288    -2.505083672283     0.000001950356     1.007825032230
         H           -1.990019883712     2.188039327717     0.000009950356     1.007825032230
         H           -1.870425883712    -2.034477672283    -0.000000049644     1.007825032230
         H           -3.458301883712    -0.086014672283    -0.000005049644     1.007825032230

  Basis Set: AUG-CC-PVTZ
    Blend: AUG-CC-PVTZ
  Basis Set: (AUG-CC-PVTZ AUX)
    Blend: AUG-CC-PVTZ-JKFIT
	 Reference Energy          =    -361.5878010789043628 [Eh]
	 Singles Energy            =      -0.0000000000000000 [Eh]
	 Same-Spin Energy          =      -0.4072807917001166 [Eh]
	 Opposite-Spin Energy      =      -1.2473979787643126 [Eh]
	 Correlation Energy        =      -1.6546787704644292 [Eh]
	 Total Energy              =    -363.2424798493688058 [Eh]

	 ================> DF-SCS-MP2 Energies <==================
	-----------------------------------------------------------
	 SCS Same-Spin Scale       =       0.3333333333333333 [-]
	 SCS Opposite-Spin Scale   =       1.2000000000000000 [-]
	 SCS Same-Spin Energy      =      -0.1357602639000388 [Eh]
	 SCS Opposite-Spin Energy  =      -1.4968775745171750 [Eh]
	 SCS Correlation Energy    =      -1.6326378384172138 [Eh]
	 SCS Total Energy          =    -363.2204389173215873 [Eh]
	-----------------------------------------------------------

  Dipole Moment: [D]
     X:    -1.3950      Y:    -1.4965      Z:     0.0000     Total:     2.0459

*** Psi4 exiting successfully. Buy a developer a beer!
