                               Psi4 1.3.2 release

  ==> Input File <==

--------------------------------------------------------------------------
#psi4
#
memory 32 gb

molecule  {
0 1
  N       -1.5631460    -1.0786450     0.0000020
  C        0.9814170     1.4318910     0.0000000
  C        2.1554110     0.6922200     0.0000020
  C        2.1326810    -0.7203310    -0.0000050
  C        0.9473205    -1.4013309     0.0000003
  C       -0.2481830    -0.6706930     0.0000000
  C       -0.2522510     0.7528300     0.0000150
  C       -1.6207120     1.1681210    -0.0000080
  C       -2.3885810     0.0265560    -0.0000050
  H        1.0121500     2.5200250     0.0000050
  H        3.1140070     1.2059840    -0.0000050
  H        3.0718340    -1.2688090    -0.0000050
  H        0.9183210    -2.5105470    -0.0000040
  H       -1.9975130     2.1830700    -0.0000130
  H       -1.8769340    -2.0399470     0.0000180
  H       -3.4648550    -0.0903210     0.0000040
units angstrom
no_reorient  #important for SAPT in psi4, default
symmetry c1  #important for SAPT in psi4, default
}

set PROPERTIES_ORIGIN ["COM"]
properties('MP2/aug-cc-pvtz', properties = ['dipole'])
--------------------------------------------------------------------------

    Molecular point group: c1
  Charge       = 0
  Multiplicity = 1
  Basis Set: AUG-CC-PVTZ
    Blend: AUG-CC-PVTZ
  Basis Set: (AUG-CC-PVTZ AUX)
    Blend: AUG-CC-PVTZ-JKFIT

    Orbital Energies [Eh]
    ---------------------

    Doubly Occupied:

       1A    -15.606704     2A    -11.273104     3A    -11.266599
       4A    -11.233223     5A    -11.231293     6A    -11.227884
       7A    -11.226714     8A    -11.222148     9A    -11.218810
      10A     -1.296396    11A     -1.130758    12A     -1.056496
      13A     -0.996013    14A     -0.976141    15A     -0.841316
      16A     -0.807222    17A     -0.788064    18A     -0.727180
      19A     -0.660812    20A     -0.648558    21A     -0.601905
      22A     -0.591674    23A     -0.584389    24A     -0.574856
      25A     -0.551652    26A     -0.509291    27A     -0.478633
      28A     -0.466679    29A     -0.386755    30A     -0.300967
      31A     -0.284662

  @DF-RHF Final Energy:  -361.58875271390957

   => Energetics <=

    Nuclear Repulsion Energy =            400.3117793487209610
    One-Electron Energy =               -1282.2672724276608278
    Two-Electron Energy =                 520.3667403650302958
    Total Energy =                       -361.5887527139095710
  Basis Set: (AUG-CC-PVTZ AUX)
    Blend: AUG-CC-PVTZ-RI
    Molecular point group: c1

    Geometry (in Angstrom), charge = 0, multiplicity = 1:

       Center              X                  Y                   Z               Mass
    ------------   -----------------  -----------------  -----------------  -----------------
         N           -1.557844954461    -1.080748764741     0.000001832509    14.003074004430
         C            0.986718045539     1.429787235259    -0.000000167491    12.000000000000
         C            2.160712045539     0.690116235259     0.000001832509    12.000000000000
         C            2.137982045539    -0.722434764741    -0.000005167491    12.000000000000
         C            0.952621545539    -1.403434664741     0.000000132509    12.000000000000
         C           -0.242881954461    -0.672796764741    -0.000000167491    12.000000000000
         C           -0.246949954461     0.750726235259     0.000014832509    12.000000000000
         C           -1.615410954461     1.166017235259    -0.000008167491    12.000000000000
         C           -2.383279954461     0.024452235259    -0.000005167491    12.000000000000
         H            1.017451045539     2.517921235259     0.000004832509     1.007825032230
         H            3.119308045539     1.203880235259    -0.000005167491     1.007825032230
         H            3.077135045539    -1.270912764741    -0.000005167491     1.007825032230
         H            0.923622045539    -2.512650764741    -0.000004167491     1.007825032230
         H           -1.992211954461     2.180966235259    -0.000013167491     1.007825032230
         H           -1.871632954461    -2.042050764741     0.000017832509     1.007825032230
         H           -3.459553954461    -0.092424764741     0.000003832509     1.007825032230

  Basis Set: AUG-CC-PVTZ
    Blend: AUG-CC-PVTZ
  Basis Set: (AUG-CC-PVTZ AUX)
    Blend: AUG-CC-PVTZ-JKFIT
	 Reference Energy          =    -361.5887527139095710 [Eh]
	 Singles Energy            =      -0.0000000000000000 [Eh]
	 Same-Spin Energy          =      -0.4079479021878195 [Eh]
	 Opposite-Spin Energy      =      -1.2477550414828640 [Eh]
	 Correlation Energy        =      -1.6557029436706836 [Eh]
	 Total Energy              =    -363.2444556575802608 [Eh]

	 ================> DF-SCS-MP2 Energies <==================
	-----------------------------------------------------------
	 SCS Same-Spin Scale       =       0.3333333333333333 [-]
	 SCS Opposite-Spin Scale   =       1.2000000000000000 [-]
	 SCS Same-Spin Energy      =      -0.1359826340626065 [Eh]
	 SCS Opposite-Spin Energy  =      -1.4973060497794368 [Eh]
	 SCS Correlation Energy    =      -1.6332886838420433 [Eh]
	 SCS Total Energy          =    -363.2220413977516387 [Eh]
	-----------------------------------------------------------

  Dipole Moment: [D]
     X:    -1.4802      Y:    -1.5441      Z:     0.0000     Total:     2.1390

*** Psi4 exiting successfully. Buy a developer a beer!
