                               Psi4 1.3.2 release

  ==> Input File <==

--------------------------------------------------------------------------
#psi4
#
memory 32 gb

molecule  {
0 1
  N       -1.5631460    -1.0786450     0.0000020
  C        0.9814170     1.4318910     0.0000000
  C        2.1423232     0.6718436     0.0000023
  C        2.1326810    -0.7203310    -0.0000050
  C        0.9343870    -1.4220840     0.0000000
  C       -0.2481830    -0.6706930     0.0000000
  C       -0.2522510     0.7528300     0.0000150
  C       -1.6207120     1.1681210    -0.0000080
  C       -2.3885810     0.0265560    -0.0000050
  H        1.0121500     2.5200250     0.0000050
  H        3.1140070     1.2059840    -0.0000050
  H        3.0718340    -1.2688090    -0.0000050
  H        0.9183210    -2.5105470    -0.0000040
  H       -1.9975130     2.1830700    -0.0000130
  H       -1.8769340    -2.0399470     0.0000180
  H       -3.4648550    -0.0903210     0.0000040
units angstrom
no_reorient  #important for SAPT in psi4, default
symmetry c1  #important for SAPT in psi4, default
}

set PROPERTIES_ORIGIN ["COM"]
properties('MP2/aug-cc-pvtz', properties = ['dipole'])
--------------------------------------------------------------------------

    Molecular point group: c1
  Charge       = 0
  Multiplicity = 1
  Basis Set: AUG-CC-PVTZ
    Blend: AUG-CC-PVTZ
  Basis Set: (AUG-CC-PVTZ AUX)
    Blend: AUG-CC-PVTZ-JKFIT

    Orbital Energies [Eh]
    ---------------------

    Doubly Occupied:

       1A    -15.605345     2A    -11.273657     3A    -11.266917
       4A    -11.233265     5A    -11.231366     6A    -11.228140
       7A    -11.227432     8A    -11.222001     9A    -11.218549
      10A     -1.296255    11A     -1.130611    12A     -1.056402
      13A     -0.996137    14A     -0.975428    15A     -0.843309
      16A     -0.805728    17A     -0.787354    18A     -0.728007
      19A     -0.661177    20A     -0.645285    21A     -0.603092
      22A     -0.595192    23A     -0.584141    24A     -0.575118
      25A     -0.551364    26A     -0.501174    27A     -0.484961
      28A     -0.466806    29A     -0.386085    30A     -0.301941
      31A     -0.283154

  @DF-RHF Final Energy:  -361.58850704496058

   => Energetics <=

    Nuclear Repulsion Energy =            400.3872665492974079
    One-Electron Energy =               -1282.4207674414844860
    Two-Electron Energy =                 520.4449938472264421
    Total Energy =                       -361.5885070449605792
  Basis Set: (AUG-CC-PVTZ AUX)
    Blend: AUG-CC-PVTZ-RI
    Molecular point group: c1

    Geometry (in Angstrom), charge = 0, multiplicity = 1:

       Center              X                  Y                   Z               Mass
    ------------   -----------------  -----------------  -----------------  -----------------
         N           -1.555177422108    -1.076532439195     0.000001832509    14.003074004430
         C            0.989385577892     1.434003560805    -0.000000167491    12.000000000000
         C            2.150291777892     0.673956160805     0.000002132509    12.000000000000
         C            2.140649577892    -0.718218439195    -0.000005167491    12.000000000000
         C            0.942355577892    -1.419971439195    -0.000000167491    12.000000000000
         C           -0.240214422108    -0.668580439195    -0.000000167491    12.000000000000
         C           -0.244282422108     0.754942560805     0.000014832509    12.000000000000
         C           -1.612743422108     1.170233560805    -0.000008167491    12.000000000000
         C           -2.380612422108     0.028668560805    -0.000005167491    12.000000000000
         H            1.020118577892     2.522137560805     0.000004832509     1.007825032230
         H            3.121975577892     1.208096560805    -0.000005167491     1.007825032230
         H            3.079802577892    -1.266696439195    -0.000005167491     1.007825032230
         H            0.926289577892    -2.508434439195    -0.000004167491     1.007825032230
         H           -1.989544422108     2.185182560805    -0.000013167491     1.007825032230
         H           -1.868965422108    -2.037834439195     0.000017832509     1.007825032230
         H           -3.456886422108    -0.088208439195     0.000003832509     1.007825032230

  Basis Set: AUG-CC-PVTZ
    Blend: AUG-CC-PVTZ
  Basis Set: (AUG-CC-PVTZ AUX)
    Blend: AUG-CC-PVTZ-JKFIT
	 Reference Energy          =    -361.5885070449605792 [Eh]
	 Singles Energy            =      -0.0000000000000000 [Eh]
	 Same-Spin Energy          =      -0.4080974172328520 [Eh]
	 Opposite-Spin Energy      =      -1.2478917277912585 [Eh]
	 Correlation Energy        =      -1.6559891450241104 [Eh]
	 Total Energy              =    -363.2444961899847158 [Eh]

	 ================> DF-SCS-MP2 Energies <==================
	-----------------------------------------------------------
	 SCS Same-Spin Scale       =       0.3333333333333333 [-]
	 SCS Opposite-Spin Scale   =       1.2000000000000000 [-]
	 SCS Same-Spin Energy      =      -0.1360324724109507 [Eh]
	 SCS Opposite-Spin Energy  =      -1.4974700733495101 [Eh]
	 SCS Correlation Energy    =      -1.6335025457604608 [Eh]
	 SCS Total Energy          =    -363.2220095907210293 [Eh]
	-----------------------------------------------------------

  Dipole Moment: [D]
     X:    -1.4898      Y:    -1.5472      Z:     0.0000     Total:     2.1479

*** Psi4 exiting successfully. Buy a developer a beer!
