                               Psi4 1.3.2 release

  ==> Input File <==

--------------------------------------------------------------------------
#psi4
#
memory 32 gb

molecule  {
0 1
  N       -1.5631460    -1.0786450     0.0000020
  C        0.9814170     1.4318910     0.0000000
  C        2.1554110     0.6922200     0.0000020
  C        2.1326810    -0.7203310    -0.0000050
  C        0.9343870    -1.4220840     0.0000000
  C       -0.2481830    -0.6706930     0.0000000
  C       -0.2522510     0.7528300     0.0000150
  C       -1.6207120     1.1681210    -0.0000080
  C       -2.3885810     0.0265560    -0.0000050
  H        1.0121500     2.5200250     0.0000050
  H        3.1140070     1.2059840    -0.0000050
  H        3.0718340    -1.2688090    -0.0000050
  H        0.9183210    -2.5105470    -0.0000040
  H       -1.9975130     2.1830700    -0.0000130
  H       -1.8769340    -2.0399470     0.0000180
  H       -3.3654395    -0.0795251     0.0000032
units angstrom
no_reorient  #important for SAPT in psi4, default
symmetry c1  #important for SAPT in psi4, default
}

set PROPERTIES_ORIGIN ["COM"]
properties('MP2/aug-cc-pvtz', properties = ['dipole'])
--------------------------------------------------------------------------

    Molecular point group: c1
  Charge       = 0
  Multiplicity = 1
  Basis Set: AUG-CC-PVTZ
    Blend: AUG-CC-PVTZ
  Basis Set: (AUG-CC-PVTZ AUX)
    Blend: AUG-CC-PVTZ-JKFIT

    Orbital Energies [Eh]
    ---------------------

    Doubly Occupied:

       1A    -15.605036     2A    -11.266829     3A    -11.261619
       4A    -11.233346     5A    -11.231522     6A    -11.230321
       7A    -11.226831     8A    -11.222231     9A    -11.218410
      10A     -1.296048    11A     -1.128471    12A     -1.056067
      13A     -0.997123    14A     -0.977662    15A     -0.848248
      16A     -0.809813    17A     -0.789270    18A     -0.731221
      19A     -0.668865    20A     -0.651293    21A     -0.601993
      22A     -0.595252    23A     -0.583593    24A     -0.576348
      25A     -0.554362    26A     -0.507807    27A     -0.482518
      28A     -0.464695    29A     -0.385748    30A     -0.301283
      31A     -0.282875

  @DF-RHF Final Energy:  -361.58319898574132

   => Energetics <=

    Nuclear Repulsion Energy =            400.5504292265648019
    One-Electron Energy =               -1282.6938543702290190
    Two-Electron Energy =                 520.5602261579228980
    Total Energy =                       -361.5831989857413191
  Basis Set: (AUG-CC-PVTZ AUX)
    Blend: AUG-CC-PVTZ-RI
    Molecular point group: c1

    Geometry (in Angstrom), charge = 0, multiplicity = 1:

       Center              X                  Y                   Z               Mass
    ------------   -----------------  -----------------  -----------------  -----------------
         N           -1.557375028088    -1.078714242295     0.000001870151    14.003074004430
         C            0.987187971912     1.431821757705    -0.000000129849    12.000000000000
         C            2.161181971912     0.692150757705     0.000001870151    12.000000000000
         C            2.138451971912    -0.720400242295    -0.000005129849    12.000000000000
         C            0.940157971912    -1.422153242295    -0.000000129849    12.000000000000
         C           -0.242412028088    -0.670762242295    -0.000000129849    12.000000000000
         C           -0.246480028088     0.752760757705     0.000014870151    12.000000000000
         C           -1.614941028088     1.168051757705    -0.000008129849    12.000000000000
         C           -2.382810028088     0.026486757705    -0.000005129849    12.000000000000
         H            1.017920971912     2.519955757705     0.000004870151     1.007825032230
         H            3.119777971912     1.205914757705    -0.000005129849     1.007825032230
         H            3.077604971912    -1.268878242295    -0.000005129849     1.007825032230
         H            0.924091971912    -2.510616242295    -0.000004129849     1.007825032230
         H           -1.991742028088     2.183000757705    -0.000013129849     1.007825032230
         H           -1.871163028088    -2.040016242295     0.000017870151     1.007825032230
         H           -3.359668528088    -0.079594342295     0.000003070151     1.007825032230

  Basis Set: AUG-CC-PVTZ
    Blend: AUG-CC-PVTZ
  Basis Set: (AUG-CC-PVTZ AUX)
    Blend: AUG-CC-PVTZ-JKFIT
	 Reference Energy          =    -361.5831989857413191 [Eh]
	 Singles Energy            =      -0.0000000000000000 [Eh]
	 Same-Spin Energy          =      -0.4078038996494882 [Eh]
	 Opposite-Spin Energy      =      -1.2473127955669869 [Eh]
	 Correlation Energy        =      -1.6551166952164751 [Eh]
	 Total Energy              =    -363.2383156809577827 [Eh]

	 ================> DF-SCS-MP2 Energies <==================
	-----------------------------------------------------------
	 SCS Same-Spin Scale       =       0.3333333333333333 [-]
	 SCS Opposite-Spin Scale   =       1.2000000000000000 [-]
	 SCS Same-Spin Energy      =      -0.1359346332164960 [Eh]
	 SCS Opposite-Spin Energy  =      -1.4967753546803844 [Eh]
	 SCS Correlation Energy    =      -1.6327099878968805 [Eh]
	 SCS Total Energy          =    -363.2159089736381929 [Eh]
	-----------------------------------------------------------

  Dipole Moment: [D]
     X:    -1.4893      Y:    -1.5465      Z:     0.0000     Total:     2.1470

*** Psi4 exiting successfully. Buy a developer a beer!
