                               Psi4 1.3.2 release

  ==> Input File <==

--------------------------------------------------------------------------
#psi4
#
memory 32 gb

molecule  {
0 1
  N       -1.5631460    -1.0786450     0.0000020
  C        0.9814170     1.4318910     0.0000000
  C        2.1554110     0.6922200     0.0000020
  C        2.1326810    -0.7203310    -0.0000050
  C        0.9343870    -1.4220840     0.0000000
  C       -0.2481830    -0.6706930     0.0000000
  C       -0.2522510     0.7528300     0.0000150
  C       -1.6207120     1.1681210    -0.0000080
  C       -2.3885810     0.0265560    -0.0000050
  H        1.0121500     2.5200250     0.0000050
  H        3.1140070     1.2059840    -0.0000050
  H        3.0718340    -1.2688090    -0.0000050
  H        0.9183210    -2.5105470    -0.0000040
  H       -1.9279049     1.9955741    -0.0000121
  H       -1.8769340    -2.0399470     0.0000180
  H       -3.4648550    -0.0903210     0.0000040
units angstrom
no_reorient  #important for SAPT in psi4, default
symmetry c1  #important for SAPT in psi4, default
}

set PROPERTIES_ORIGIN ["COM"]
properties('MP2/aug-cc-pvtz', properties = ['dipole'])
--------------------------------------------------------------------------

    Molecular point group: c1
  Charge       = 0
  Multiplicity = 1
  Basis Set: AUG-CC-PVTZ
    Blend: AUG-CC-PVTZ
  Basis Set: (AUG-CC-PVTZ AUX)
    Blend: AUG-CC-PVTZ-JKFIT

    Orbital Energies [Eh]
    ---------------------

    Doubly Occupied:

       1A    -15.605226     2A    -11.272640     3A    -11.266158
       4A    -11.233086     5A    -11.231240     6A    -11.229936
       7A    -11.225943     8A    -11.222088     9A    -11.195460
      10A     -1.295566    11A     -1.128041    12A     -1.061492
      13A     -0.996333    14A     -0.977253    15A     -0.842555
      16A     -0.822557    17A     -0.800901    18A     -0.729338
      19A     -0.664309    20A     -0.650801    21A     -0.615371
      22A     -0.595813    23A     -0.586223    24A     -0.583297
      25A     -0.551699    26A     -0.507106    27A     -0.483819
      28A     -0.464474    29A     -0.385650    30A     -0.300966
      31A     -0.282729

  @DF-RHF Final Energy:  -361.55342164363509

   => Energetics <=

    Nuclear Repulsion Energy =            401.1671225719052245
    One-Electron Energy =               -1283.8249488083727101
    Two-Electron Energy =                 521.1044045928324522
    Total Energy =                       -361.5534216436350334
  Basis Set: (AUG-CC-PVTZ AUX)
    Blend: AUG-CC-PVTZ-RI
    Molecular point group: c1

    Geometry (in Angstrom), charge = 0, multiplicity = 1:

       Center              X                  Y                   Z               Mass
    ------------   -----------------  -----------------  -----------------  -----------------
         N           -1.557118397336    -1.077007022821     0.000001855514    14.003074004430
         C            0.987444602664     1.433528977179    -0.000000144486    12.000000000000
         C            2.161438602664     0.693857977179     0.000001855514    12.000000000000
         C            2.138708602664    -0.718693022821    -0.000005144486    12.000000000000
         C            0.940414602664    -1.420446022821    -0.000000144486    12.000000000000
         C           -0.242155397336    -0.669055022821    -0.000000144486    12.000000000000
         C           -0.246223397336     0.754467977179     0.000014855514    12.000000000000
         C           -1.614684397336     1.169758977179    -0.000008144486    12.000000000000
         C           -2.382553397336     0.028193977179    -0.000005144486    12.000000000000
         H            1.018177602664     2.521662977179     0.000004855514     1.007825032230
         H            3.120034602664     1.207621977179    -0.000005144486     1.007825032230
         H            3.077861602664    -1.267171022821    -0.000005144486     1.007825032230
         H            0.924348602664    -2.508909022821    -0.000004144486     1.007825032230
         H           -1.921877297336     1.997212077179    -0.000012244486     1.007825032230
         H           -1.870906397336    -2.038309022821     0.000017855514     1.007825032230
         H           -3.458827397336    -0.088683022821     0.000003855514     1.007825032230

  Basis Set: AUG-CC-PVTZ
    Blend: AUG-CC-PVTZ
  Basis Set: (AUG-CC-PVTZ AUX)
    Blend: AUG-CC-PVTZ-JKFIT
	 Reference Energy          =    -361.5534216436350903 [Eh]
	 Singles Energy            =      -0.0000000000000000 [Eh]
	 Same-Spin Energy          =      -0.4077939854657400 [Eh]
	 Opposite-Spin Energy      =      -1.2472441906331173 [Eh]
	 Correlation Energy        =      -1.6550381760988573 [Eh]
	 Total Energy              =    -363.2084598197339460 [Eh]

	 ================> DF-SCS-MP2 Energies <==================
	-----------------------------------------------------------
	 SCS Same-Spin Scale       =       0.3333333333333333 [-]
	 SCS Opposite-Spin Scale   =       1.2000000000000000 [-]
	 SCS Same-Spin Energy      =      -0.1359313284885800 [Eh]
	 SCS Opposite-Spin Energy  =      -1.4966930287597406 [Eh]
	 SCS Correlation Energy    =      -1.6326243572483206 [Eh]
	 SCS Total Energy          =    -363.1860460008834366 [Eh]
	-----------------------------------------------------------

  Dipole Moment: [D]
     X:    -1.5144      Y:    -1.5468      Z:     0.0000     Total:     2.1647

*** Psi4 exiting successfully. Buy a developer a beer!
