                               Psi4 1.3.2 release

  ==> Input File <==

--------------------------------------------------------------------------
#psi4
#
memory 32 gb

molecule  {
0 1
  N       -1.5631460    -1.0786450     0.0000020
  C        0.9563180     1.3904686    -0.0000003
  C        2.1554110     0.6922200     0.0000020
  C        2.1326810    -0.7203310    -0.0000050
  C        0.9343870    -1.4220840     0.0000000
  C       -0.2481830    -0.6706930     0.0000000
  C       -0.2522510     0.7528300     0.0000150
  C       -1.6207120     1.1681210    -0.0000080
  C       -2.3885810     0.0265560    -0.0000050
  H        1.0121500     2.5200250     0.0000050
  H        3.1140070     1.2059840    -0.0000050
  H        3.0718340    -1.2688090    -0.0000050
  H        0.9183210    -2.5105470    -0.0000040
  H       -1.9975130     2.1830700    -0.0000130
  H       -1.8769340    -2.0399470     0.0000180
  H       -3.4648550    -0.0903210     0.0000040
units angstrom
no_reorient  #important for SAPT in psi4, default
symmetry c1  #important for SAPT in psi4, default
}

set PROPERTIES_ORIGIN ["COM"]
properties('MP2/aug-cc-pvtz', properties = ['dipole'])
--------------------------------------------------------------------------

    Molecular point group: c1
  Charge       = 0
  Multiplicity = 1
  Basis Set: AUG-CC-PVTZ
    Blend: AUG-CC-PVTZ
  Basis Set: (AUG-CC-PVTZ AUX)
    Blend: AUG-CC-PVTZ-JKFIT

    Orbital Energies [Eh]
    ---------------------

    Doubly Occupied:

       1A    -15.605632     2A    -11.274350     3A    -11.268193
       4A    -11.231963     5A    -11.230811     6A    -11.230117
       7A    -11.223765     8A    -11.221389     9A    -11.219659
      10A     -1.297087    11A     -1.132620    12A     -1.057918
      13A     -0.995199    14A     -0.976921    15A     -0.843036
      16A     -0.807810    17A     -0.790334    18A     -0.723899
      19A     -0.660964    20A     -0.649625    21A     -0.602284
      22A     -0.589286    23A     -0.585329    24A     -0.574280
      25A     -0.551329    26A     -0.514716    27A     -0.473721
      28A     -0.467242    29A     -0.388897    30A     -0.300054
      31A     -0.285246

  @DF-RHF Final Energy:  -361.58646317419471

   => Energetics <=

    Nuclear Repulsion Energy =            400.8797471800551193
    One-Electron Energy =               -1283.3850610985302865
    Two-Electron Energy =                 520.9188507442804621
    Total Energy =                       -361.5864631741947051
  Basis Set: (AUG-CC-PVTZ AUX)
    Blend: AUG-CC-PVTZ-RI
    Molecular point group: c1

    Geometry (in Angstrom), charge = 0, multiplicity = 1:

       Center              X                  Y                   Z               Mass
    ------------   -----------------  -----------------  -----------------  -----------------
         N           -1.553946112965    -1.074374941841     0.000001894017    14.003074004430
         C            0.965517887035     1.394738658159    -0.000000405983    12.000000000000
         C            2.164610887035     0.696490058159     0.000001894017    12.000000000000
         C            2.141880887035    -0.716060941841    -0.000005105983    12.000000000000
         C            0.943586887035    -1.417813941841    -0.000000105983    12.000000000000
         C           -0.238983112965    -0.666422941841    -0.000000105983    12.000000000000
         C           -0.243051112965     0.757100058159     0.000014894017    12.000000000000
         C           -1.611512112965     1.172391058159    -0.000008105983    12.000000000000
         C           -2.379381112965     0.030826058159    -0.000005105983    12.000000000000
         H            1.021349887035     2.524295058159     0.000004894017     1.007825032230
         H            3.123206887035     1.210254058159    -0.000005105983     1.007825032230
         H            3.081033887035    -1.264538941841    -0.000005105983     1.007825032230
         H            0.927520887035    -2.506276941841    -0.000004105983     1.007825032230
         H           -1.988313112965     2.187340058159    -0.000013105983     1.007825032230
         H           -1.867734112965    -2.035676941841     0.000017894017     1.007825032230
         H           -3.455655112965    -0.086050941841     0.000003894017     1.007825032230

  Basis Set: AUG-CC-PVTZ
    Blend: AUG-CC-PVTZ
  Basis Set: (AUG-CC-PVTZ AUX)
    Blend: AUG-CC-PVTZ-JKFIT
	 Reference Energy          =    -361.5864631741947051 [Eh]
	 Singles Energy            =      -0.0000000000000000 [Eh]
	 Same-Spin Energy          =      -0.4080911584960915 [Eh]
	 Opposite-Spin Energy      =      -1.2477932920928061 [Eh]
	 Correlation Energy        =      -1.6558844505888977 [Eh]
	 Total Energy              =    -363.2423476247835765 [Eh]

	 ================> DF-SCS-MP2 Energies <==================
	-----------------------------------------------------------
	 SCS Same-Spin Scale       =       0.3333333333333333 [-]
	 SCS Opposite-Spin Scale   =       1.2000000000000000 [-]
	 SCS Same-Spin Energy      =      -0.1360303861653638 [Eh]
	 SCS Opposite-Spin Energy  =      -1.4973519505113673 [Eh]
	 SCS Correlation Energy    =      -1.6333823366767311 [Eh]
	 SCS Total Energy          =    -363.2198455108714370 [Eh]
	-----------------------------------------------------------

  Dipole Moment: [D]
     X:    -1.5076      Y:    -1.5755      Z:     0.0000     Total:     2.1806

*** Psi4 exiting successfully. Buy a developer a beer!
