                               Psi4 1.3.2 release

  ==> Input File <==

--------------------------------------------------------------------------
#psi4
#
memory 32 gb

molecule  {
0 1
  N       -1.5631460    -1.0786450     0.0000020
  C        0.9814170     1.4318910     0.0000000
  C        2.1554110     0.6922200     0.0000020
  C        2.1326810    -0.7203310    -0.0000050
  C        0.9343870    -1.4220840     0.0000000
  C       -0.2229289    -0.7634139     0.0000006
  C       -0.2522510     0.7528300     0.0000150
  C       -1.6207120     1.1681210    -0.0000080
  C       -2.3885810     0.0265560    -0.0000050
  H        1.0121500     2.5200250     0.0000050
  H        3.1140070     1.2059840    -0.0000050
  H        3.0718340    -1.2688090    -0.0000050
  H        0.9183210    -2.5105470    -0.0000040
  H       -1.9975130     2.1830700    -0.0000130
  H       -1.8769340    -2.0399470     0.0000180
  H       -3.4648550    -0.0903210     0.0000040
units angstrom
no_reorient  #important for SAPT in psi4, default
symmetry c1  #important for SAPT in psi4, default
}

set PROPERTIES_ORIGIN ["COM"]
properties('MP2/aug-cc-pvtz', properties = ['dipole'])
--------------------------------------------------------------------------

    Molecular point group: c1
  Charge       = 0
  Multiplicity = 1
  Basis Set: AUG-CC-PVTZ
    Blend: AUG-CC-PVTZ
  Basis Set: (AUG-CC-PVTZ AUX)
    Blend: AUG-CC-PVTZ-JKFIT

    Orbital Energies [Eh]
    ---------------------

    Doubly Occupied:

       1A    -15.608278     2A    -11.278390     3A    -11.269368
       4A    -11.236623     5A    -11.229635     6A    -11.228948
       7A    -11.225113     8A    -11.222032     9A    -11.221522
      10A     -1.293482    11A     -1.128073    12A     -1.059423
      13A     -0.999905    14A     -0.972972    15A     -0.842127
      16A     -0.810169    17A     -0.787932    18A     -0.722816
      19A     -0.666335    20A     -0.648673    21A     -0.604687
      22A     -0.592938    23A     -0.582888    24A     -0.576378
      25A     -0.547732    26A     -0.511121    27A     -0.466288
      28A     -0.465112    29A     -0.394907    30A     -0.301486
      31A     -0.277478

  @DF-RHF Final Energy:  -361.57558214511374

   => Energetics <=

    Nuclear Repulsion Energy =            399.2300209728229561
    One-Electron Energy =               -1280.0655431601039709
    Two-Electron Energy =                 519.2599400421672726
    Total Energy =                       -361.5755821451136853
  Basis Set: (AUG-CC-PVTZ AUX)
    Blend: AUG-CC-PVTZ-RI
    Molecular point group: c1

    Geometry (in Angstrom), charge = 0, multiplicity = 1:

       Center              X                  Y                   Z               Mass
    ------------   -----------------  -----------------  -----------------  -----------------
         N           -1.559107981255    -1.069116157368     0.000001801755    14.003074004430
         C            0.985455018745     1.441419842632    -0.000000198245    12.000000000000
         C            2.159449018745     0.701748842632     0.000001801755    12.000000000000
         C            2.136719018745    -0.710802157368    -0.000005198245    12.000000000000
         C            0.938425018745    -1.412555157368    -0.000000198245    12.000000000000
         C           -0.218890881255    -0.753885057368     0.000000401755    12.000000000000
         C           -0.248212981255     0.762358842632     0.000014801755    12.000000000000
         C           -1.616673981255     1.177649842632    -0.000008198245    12.000000000000
         C           -2.384542981255     0.036084842632    -0.000005198245    12.000000000000
         H            1.016188018745     2.529553842632     0.000004801755     1.007825032230
         H            3.118045018745     1.215512842632    -0.000005198245     1.007825032230
         H            3.075872018745    -1.259280157368    -0.000005198245     1.007825032230
         H            0.922359018745    -2.501018157368    -0.000004198245     1.007825032230
         H           -1.993474981255     2.192598842632    -0.000013198245     1.007825032230
         H           -1.872895981255    -2.030418157368     0.000017801755     1.007825032230
         H           -3.460816981255    -0.080792157368     0.000003801755     1.007825032230

  Basis Set: AUG-CC-PVTZ
    Blend: AUG-CC-PVTZ
  Basis Set: (AUG-CC-PVTZ AUX)
    Blend: AUG-CC-PVTZ-JKFIT
	 Reference Energy          =    -361.5755821451137422 [Eh]
	 Singles Energy            =      -0.0000000000000000 [Eh]
	 Same-Spin Energy          =      -0.4091096410004819 [Eh]
	 Opposite-Spin Energy      =      -1.2492344654230556 [Eh]
	 Correlation Energy        =      -1.6583441064235376 [Eh]
	 Total Energy              =    -363.2339262515372980 [Eh]

	 ================> DF-SCS-MP2 Energies <==================
	-----------------------------------------------------------
	 SCS Same-Spin Scale       =       0.3333333333333333 [-]
	 SCS Opposite-Spin Scale   =       1.2000000000000000 [-]
	 SCS Same-Spin Energy      =      -0.1363698803334940 [Eh]
	 SCS Opposite-Spin Energy  =      -1.4990813585076668 [Eh]
	 SCS Correlation Energy    =      -1.6354512388411608 [Eh]
	 SCS Total Energy          =    -363.2110333839548844 [Eh]
	-----------------------------------------------------------

  Dipole Moment: [D]
     X:    -1.6171      Y:    -1.4847      Z:     0.0000     Total:     2.1953

*** Psi4 exiting successfully. Buy a developer a beer!
