                               Psi4 1.3.2 release

  ==> Input File <==

--------------------------------------------------------------------------
#psi4
#
memory 32 gb

molecule  {
0 1
  N       -1.5631460    -1.0786450     0.0000020
  C        0.9814170     1.4318910     0.0000000
  C        2.1554110     0.6922200     0.0000020
  C        2.1326810    -0.7203310    -0.0000050
  C        0.9343870    -1.4220840     0.0000000
  C       -0.2481830    -0.6706930     0.0000000
  C       -0.2522510     0.7528300     0.0000150
  C       -1.6207120     1.1681210    -0.0000080
  C       -2.3885810     0.0265560    -0.0000050
  H        1.0121500     2.5200250     0.0000050
  H        3.1140070     1.2059840    -0.0000050
  H        3.0718340    -1.2688090    -0.0000050
  H        0.9183210    -2.5105470    -0.0000040
  H       -1.9975130     2.1830700    -0.0000130
  H       -1.8148727    -1.8498197     0.0000148
  H       -3.4648550    -0.0903210     0.0000040
units angstrom
no_reorient  #important for SAPT in psi4, default
symmetry c1  #important for SAPT in psi4, default
}

set PROPERTIES_ORIGIN ["COM"]
properties('MP2/aug-cc-pvtz', properties = ['dipole'])
--------------------------------------------------------------------------

    Molecular point group: c1
  Charge       = 0
  Multiplicity = 1
  Basis Set: AUG-CC-PVTZ
    Blend: AUG-CC-PVTZ
  Basis Set: (AUG-CC-PVTZ AUX)
    Blend: AUG-CC-PVTZ-JKFIT

    Orbital Energies [Eh]
    ---------------------

    Doubly Occupied:

       1A    -15.584699     2A    -11.274045     3A    -11.267991
       4A    -11.234575     5A    -11.232517     6A    -11.231368
       7A    -11.228227     8A    -11.223476     9A    -11.220346
      10A     -1.317598    11A     -1.135422    12A     -1.069909
      13A     -1.005352    14A     -0.977189    15A     -0.856336
      16A     -0.829043    17A     -0.792029    18A     -0.739573
      19A     -0.664811    20A     -0.648368    21A     -0.611557
      22A     -0.597298    23A     -0.586942    24A     -0.576249
      25A     -0.551444    26A     -0.508844    27A     -0.484185
      28A     -0.466779    29A     -0.387679    30A     -0.303523
      31A     -0.284426

  @DF-RHF Final Energy:  -361.54449222305414

   => Energetics <=

    Nuclear Repulsion Energy =            401.4214504638405856
    One-Electron Energy =               -1284.1482814388104998
    Two-Electron Energy =                 521.1823387519158359
    Total Energy =                       -361.5444922230541351
  Basis Set: (AUG-CC-PVTZ AUX)
    Blend: AUG-CC-PVTZ-RI
    Molecular point group: c1

    Geometry (in Angstrom), charge = 0, multiplicity = 1:

       Center              X                  Y                   Z               Mass
    ------------   -----------------  -----------------  -----------------  -----------------
         N           -1.557053422164    -1.080258219697     0.000001890814    14.003074004430
         C            0.987509577836     1.430277780303    -0.000000109186    12.000000000000
         C            2.161503577836     0.690606780303     0.000001890814    12.000000000000
         C            2.138773577836    -0.721944219697    -0.000005109186    12.000000000000
         C            0.940479577836    -1.423697219697    -0.000000109186    12.000000000000
         C           -0.242090422164    -0.672306219697    -0.000000109186    12.000000000000
         C           -0.246158422164     0.751216780303     0.000014890814    12.000000000000
         C           -1.614619422164     1.166507780303    -0.000008109186    12.000000000000
         C           -2.382488422164     0.024942780303    -0.000005109186    12.000000000000
         H            1.018242577836     2.518411780303     0.000004890814     1.007825032230
         H            3.120099577836     1.204370780303    -0.000005109186     1.007825032230
         H            3.077926577836    -1.270422219697    -0.000005109186     1.007825032230
         H            0.924413577836    -2.512160219697    -0.000004109186     1.007825032230
         H           -1.991420422164     2.181456780303    -0.000013109186     1.007825032230
         H           -1.808780122164    -1.851432919697     0.000014690814     1.007825032230
         H           -3.458762422164    -0.091934219697     0.000003890814     1.007825032230

  Basis Set: AUG-CC-PVTZ
    Blend: AUG-CC-PVTZ
  Basis Set: (AUG-CC-PVTZ AUX)
    Blend: AUG-CC-PVTZ-JKFIT
	 Reference Energy          =    -361.5444922230541351 [Eh]
	 Singles Energy            =      -0.0000000000000000 [Eh]
	 Same-Spin Energy          =      -0.4065105672427902 [Eh]
	 Opposite-Spin Energy      =      -1.2449607367634017 [Eh]
	 Correlation Energy        =      -1.6514713040061919 [Eh]
	 Total Energy              =    -363.1959635270603144 [Eh]

	 ================> DF-SCS-MP2 Energies <==================
	-----------------------------------------------------------
	 SCS Same-Spin Scale       =       0.3333333333333333 [-]
	 SCS Opposite-Spin Scale   =       1.2000000000000000 [-]
	 SCS Same-Spin Energy      =      -0.1355035224142634 [Eh]
	 SCS Opposite-Spin Energy  =      -1.4939528841160821 [Eh]
	 SCS Correlation Energy    =      -1.6294564065303454 [Eh]
	 SCS Total Energy          =    -363.1739486295844586 [Eh]
	-----------------------------------------------------------

  Dipole Moment: [D]
     X:    -1.3782      Y:    -1.3238      Z:     0.0000     Total:     1.9110

*** Psi4 exiting successfully. Buy a developer a beer!
