                               Psi4 1.4a3.dev225

  ==> Input File <==

--------------------------------------------------------------------------
#psi4
#
memory 32 gb

molecule  {
0 1
  N       -1.5630850    -1.0784890    -0.0000040
  C        0.9811620     1.4317850    -0.0000050
  C        2.1553110     0.6923450     0.0000000
  C        2.1328040    -0.7200770     0.0000000
  C        0.9346070    -1.4219960     0.0000040
  C       -0.2479390    -0.6706250     0.0000000
  C       -0.2522910     0.7524290     0.0000030
  C       -1.6208000     1.1677860     0.0000050
  C       -2.3888340     0.0267020    -0.0000020
  H        1.0113780     2.5197500    -0.0000020
  H        3.1138040     1.2059540    -0.0000050
  H        3.0720020    -1.2682500     0.0000030
  H        0.9188940    -2.5102320     0.0000020
  H       -1.9792746     2.1360016     0.0000098
  H       -1.8770410    -2.0396260     0.0000000
  H       -3.4649170    -0.0911630    -0.0000050
units angstrom
no_reorient  #important for SAPT in psi4, default
symmetry c1  #important for SAPT in psi4, default
}

set PROPERTIES_ORIGIN ["COM"]
properties('MP2/aug-cc-pvtz', properties = ['dipole'])
--------------------------------------------------------------------------

    Molecular point group: c1
  Charge       = 0
  Multiplicity = 1
  Basis Set: AUG-CC-PVTZ
    Blend: AUG-CC-PVTZ
  Basis Set: (AUG-CC-PVTZ AUX)
    Blend: AUG-CC-PVTZ-JKFIT

    Orbital Energies [Eh]
    ---------------------

    Doubly Occupied:

       1A    -15.605427     2A    -11.272904     3A    -11.266790
       4A    -11.233382     5A    -11.231533     6A    -11.230234
       7A    -11.226764     8A    -11.222258     9A    -11.212981
      10A     -1.295953    11A     -1.128355    12A     -1.056890
      13A     -0.996377    14A     -0.974830    15A     -0.842210
      16A     -0.807300    17A     -0.793033    18A     -0.727762
      19A     -0.662122    20A     -0.648109    21A     -0.604078
      22A     -0.595507    23A     -0.583767    24A     -0.579055
      25A     -0.550863    26A     -0.507566    27A     -0.483083
      28A     -0.464778    29A     -0.385858    30A     -0.301353
      31A     -0.282925

  @DF-RHF Final Energy:  -361.58847098650153

   => Energetics <=

    Nuclear Repulsion Energy =            400.2855208167442242
    One-Electron Energy =               -1282.1998923649025528
    Two-Electron Energy =                 520.3259005616567947
    Total Energy =                       -361.5884709865015338
  Basis Set: (AUG-CC-PVTZ AUX)
    Blend: AUG-CC-PVTZ-RI
    Molecular point group: c1

    Geometry (in Angstrom), charge = 0, multiplicity = 1:

       Center              X                  Y                   Z               Mass
    ------------   -----------------  -----------------  -----------------  -----------------
         N           -1.556603676071    -1.078062622093    -0.000004058173    14.003074004430
         C            0.987643323929     1.432211377907    -0.000005058173    12.000000000000
         C            2.161792323929     0.692771377907    -0.000000058173    12.000000000000
         C            2.139285323929    -0.719650622093    -0.000000058173    12.000000000000
         C            0.941088323929    -1.421569622093     0.000003941827    12.000000000000
         C           -0.241457676071    -0.670198622093    -0.000000058173    12.000000000000
         C           -0.245809676071     0.752855377907     0.000002941827    12.000000000000
         C           -1.614318676071     1.168212377907     0.000004941827    12.000000000000
         C           -2.382352676071     0.027128377907    -0.000002058173    12.000000000000
         H            1.017859323929     2.520176377907    -0.000002058173     1.007825032230
         H            3.120285323929     1.206380377907    -0.000005058173     1.007825032230
         H            3.078483323929    -1.267823622093     0.000002941827     1.007825032230
         H            0.925375323929    -2.509805622093     0.000001941827     1.007825032230
         H           -1.972793276071     2.136427977907     0.000009741827     1.007825032230
         H           -1.870559676071    -2.039199622093    -0.000000058173     1.007825032230
         H           -3.458435676071    -0.090736622093    -0.000005058173     1.007825032230

  Basis Set: AUG-CC-PVTZ
    Blend: AUG-CC-PVTZ
  Basis Set: (AUG-CC-PVTZ AUX)
    Blend: AUG-CC-PVTZ-JKFIT
	 Reference Energy          =    -361.5884709865015338 [Eh]
	 Singles Energy            =      -0.0000000000000000 [Eh]
	 Same-Spin Energy          =      -0.4078847571788182 [Eh]
	 Opposite-Spin Energy      =      -1.2475303014729753 [Eh]
	 Correlation Energy        =      -1.6554150586517935 [Eh]
	 Total Energy              =    -363.2438860451533174 [Eh]

	 ================> DF-SCS-MP2 Energies <==================
	-----------------------------------------------------------
	 SCS Same-Spin Scale       =       0.3333333333333333 [-]
	 SCS Opposite-Spin Scale   =       1.2000000000000000 [-]
	 SCS Same-Spin Energy      =      -0.1359615857262727 [Eh]
	 SCS Opposite-Spin Energy  =      -1.4970363617675704 [Eh]
	 SCS Correlation Energy    =      -1.6329979474938432 [Eh]
	 SCS Total Energy          =    -363.2214689339953679 [Eh]
	-----------------------------------------------------------

  Dipole Moment: [D]
     X:    -1.4939      Y:    -1.5420      Z:     0.0000     Total:     2.1470

*** Psi4 exiting successfully. Buy a developer a beer!
