                               Psi4 1.3.2 release

  ==> Input File <==

--------------------------------------------------------------------------
#psi4
#
memory 32 gb

molecule  {
0 1
  N       -1.5631460    -1.0786450     0.0000020
  C        0.9814170     1.4318910     0.0000000
  C        2.1554110     0.6922200     0.0000020
  C        2.1326810    -0.7203310    -0.0000050
  C        0.9343870    -1.4220840     0.0000000
  C       -0.2481830    -0.6706930     0.0000000
  C       -0.2522510     0.7528300     0.0000150
  C       -1.6207120     1.1681210    -0.0000080
  C       -2.3885810     0.0265560    -0.0000050
  H        1.0121500     2.5200250     0.0000050
  H        3.1140070     1.2059840    -0.0000050
  H        3.0718340    -1.2688090    -0.0000050
  H        0.9168451    -2.6105361    -0.0000044
  H       -1.9975130     2.1830700    -0.0000130
  H       -1.8769340    -2.0399470     0.0000180
  H       -3.4648550    -0.0903210     0.0000040
units angstrom
no_reorient  #important for SAPT in psi4, default
symmetry c1  #important for SAPT in psi4, default
}

set PROPERTIES_ORIGIN ["COM"]
properties('MP2/aug-cc-pvtz', properties = ['dipole'])
--------------------------------------------------------------------------

    Molecular point group: c1
  Charge       = 0
  Multiplicity = 1
  Basis Set: AUG-CC-PVTZ
    Blend: AUG-CC-PVTZ
  Basis Set: (AUG-CC-PVTZ AUX)
    Blend: AUG-CC-PVTZ-JKFIT

    Orbital Energies [Eh]
    ---------------------

    Doubly Occupied:

       1A    -15.605944     2A    -11.273569     3A    -11.268289
       4A    -11.244851     5A    -11.232148     6A    -11.231529
       7A    -11.228123     8A    -11.223217     9A    -11.219195
      10A     -1.296572    11A     -1.128742    12A     -1.055385
      13A     -0.995791    14A     -0.974151    15A     -0.839478
      16A     -0.806742    17A     -0.787659    18A     -0.723700
      19A     -0.659693    20A     -0.644044    21A     -0.601906
      22A     -0.584916    23A     -0.584469    24A     -0.574619
      25A     -0.550654    26A     -0.508380    27A     -0.478102
      28A     -0.465570    29A     -0.386579    30A     -0.302149
      31A     -0.283464

  @DF-RHF Final Energy:  -361.58183188451761

   => Energetics <=

    Nuclear Repulsion Energy =            399.5208984103358603
    One-Electron Energy =               -1280.6862005314783346
    Two-Electron Energy =                 519.5834702366248621
    Total Energy =                       -361.5818318845176691
  Basis Set: (AUG-CC-PVTZ AUX)
    Blend: AUG-CC-PVTZ-RI
    Molecular point group: c1

    Geometry (in Angstrom), charge = 0, multiplicity = 1:

       Center              X                  Y                   Z               Mass
    ------------   -----------------  -----------------  -----------------  -----------------
         N           -1.556506390239    -1.077760424188     0.000001866707    14.003074004430
         C            0.988056609761     1.432775575812    -0.000000133293    12.000000000000
         C            2.162050609761     0.693104575812     0.000001866707    12.000000000000
         C            2.139320609761    -0.719446424188    -0.000005133293    12.000000000000
         C            0.941026609761    -1.421199424188    -0.000000133293    12.000000000000
         C           -0.241543390239    -0.669808424188    -0.000000133293    12.000000000000
         C           -0.245611390239     0.753714575812     0.000014866707    12.000000000000
         C           -1.614072390239     1.169005575812    -0.000008133293    12.000000000000
         C           -2.381941390239     0.027440575812    -0.000005133293    12.000000000000
         H            1.018789609761     2.520909575812     0.000004866707     1.007825032230
         H            3.120646609761     1.206868575812    -0.000005133293     1.007825032230
         H            3.078473609761    -1.267924424188    -0.000005133293     1.007825032230
         H            0.923484709761    -2.609651524188    -0.000004533293     1.007825032230
         H           -1.990873390239     2.183954575812    -0.000013133293     1.007825032230
         H           -1.870294390239    -2.039062424188     0.000017866707     1.007825032230
         H           -3.458215390239    -0.089436424188     0.000003866707     1.007825032230

  Basis Set: AUG-CC-PVTZ
    Blend: AUG-CC-PVTZ
  Basis Set: (AUG-CC-PVTZ AUX)
    Blend: AUG-CC-PVTZ-JKFIT
	 Reference Energy          =    -361.5818318845176123 [Eh]
	 Singles Energy            =      -0.0000000000000000 [Eh]
	 Same-Spin Energy          =      -0.4082156305724407 [Eh]
	 Opposite-Spin Energy      =      -1.2488049154567951 [Eh]
	 Correlation Energy        =      -1.6570205460292358 [Eh]
	 Total Energy              =    -363.2388524305468422 [Eh]

	 ================> DF-SCS-MP2 Energies <==================
	-----------------------------------------------------------
	 SCS Same-Spin Scale       =       0.3333333333333333 [-]
	 SCS Opposite-Spin Scale   =       1.2000000000000000 [-]
	 SCS Same-Spin Energy      =      -0.1360718768574802 [Eh]
	 SCS Opposite-Spin Energy  =      -1.4985658985481540 [Eh]
	 SCS Correlation Energy    =      -1.6346377754056343 [Eh]
	 SCS Total Energy          =    -363.2164696599232343 [Eh]
	-----------------------------------------------------------

  Dipole Moment: [D]
     X:    -1.4891      Y:    -1.4985      Z:     0.0000     Total:     2.1126

*** Psi4 exiting successfully. Buy a developer a beer!
