                               Psi4 1.4a3.dev225

  ==> Input File <==

--------------------------------------------------------------------------
#psi4
#
memory 32 gb

molecule  {
0 1
  N       -1.5630850    -1.0784890    -0.0000040
  C        0.9811620     1.4317850    -0.0000050
  C        2.1553110     0.6923450     0.0000000
  C        2.1328040    -0.7200770     0.0000000
  C        0.9346070    -1.4219960     0.0000040
  C       -0.2479390    -0.6706250     0.0000000
  C       -0.2522910     0.7524290     0.0000030
  C       -1.6208000     1.1677860     0.0000050
  C       -2.3888340     0.0267020    -0.0000020
  H        1.0113780     2.5197500    -0.0000020
  H        3.1138040     1.2059540    -0.0000050
  H        3.0720020    -1.2682500     0.0000030
  H        0.9188940    -2.5102320     0.0000020
  H       -1.9966350     2.1828910     0.0000100
  H       -1.8832511    -2.0586374     0.0000001
  H       -3.4649170    -0.0911630    -0.0000050
units angstrom
no_reorient  #important for SAPT in psi4, default
symmetry c1  #important for SAPT in psi4, default
}

set PROPERTIES_ORIGIN ["COM"]
properties('MP2/aug-cc-pvtz', properties = ['dipole'])
--------------------------------------------------------------------------

    Molecular point group: c1
  Charge       = 0
  Multiplicity = 1
  Basis Set: AUG-CC-PVTZ
    Blend: AUG-CC-PVTZ
  Basis Set: (AUG-CC-PVTZ AUX)
    Blend: AUG-CC-PVTZ-JKFIT

    Orbital Energies [Eh]
    ---------------------

    Doubly Occupied:

       1A    -15.607411     2A    -11.273094     3A    -11.267024
       4A    -11.233438     5A    -11.231588     6A    -11.230284
       7A    -11.227116     8A    -11.222260     9A    -11.218635
      10A     -1.294821    11A     -1.128058    12A     -1.055050
      13A     -0.995771    14A     -0.974049    15A     -0.841756
      16A     -0.804009    17A     -0.787823    18A     -0.725570
      19A     -0.661461    20A     -0.647390    21A     -0.600737
      22A     -0.594867    23A     -0.583769    24A     -0.574180
      25A     -0.549891    26A     -0.507671    27A     -0.482511
      28A     -0.464753    29A     -0.385886    30A     -0.301351
      31A     -0.282918

  @DF-RHF Final Energy:  -361.58816966300770

   => Energetics <=

    Nuclear Repulsion Energy =            399.9029829818315420
    One-Electron Energy =               -1281.4720162051851275
    Two-Electron Energy =                 519.9808635603459379
    Total Energy =                       -361.5881696630076476
  Basis Set: (AUG-CC-PVTZ AUX)
    Blend: AUG-CC-PVTZ-RI
    Molecular point group: c1

    Geometry (in Angstrom), charge = 0, multiplicity = 1:

       Center              X                  Y                   Z               Mass
    ------------   -----------------  -----------------  -----------------  -----------------
         N           -1.556400742734    -1.078302641420    -0.000004060756    14.003074004430
         C            0.987846257266     1.431971358580    -0.000005060756    12.000000000000
         C            2.161995257266     0.692531358580    -0.000000060756    12.000000000000
         C            2.139488257266    -0.719890641420    -0.000000060756    12.000000000000
         C            0.941291257266    -1.421809641420     0.000003939244    12.000000000000
         C           -0.241254742734    -0.670438641420    -0.000000060756    12.000000000000
         C           -0.245606742734     0.752615358580     0.000002939244    12.000000000000
         C           -1.614115742734     1.167972358580     0.000004939244    12.000000000000
         C           -2.382149742734     0.026888358580    -0.000002060756    12.000000000000
         H            1.018062257266     2.519936358580    -0.000002060756     1.007825032230
         H            3.120488257266     1.206140358580    -0.000005060756     1.007825032230
         H            3.078686257266    -1.268063641420     0.000002939244     1.007825032230
         H            0.925578257266    -2.510045641420     0.000001939244     1.007825032230
         H           -1.989950742734     2.183077358580     0.000009939244     1.007825032230
         H           -1.876566842734    -2.058451041420     0.000000039244     1.007825032230
         H           -3.458232742734    -0.090976641420    -0.000005060756     1.007825032230

  Basis Set: AUG-CC-PVTZ
    Blend: AUG-CC-PVTZ
  Basis Set: (AUG-CC-PVTZ AUX)
    Blend: AUG-CC-PVTZ-JKFIT
	 Reference Energy          =    -361.5881696630077045 [Eh]
	 Singles Energy            =      -0.0000000000000000 [Eh]
	 Same-Spin Energy          =      -0.4081351431969922 [Eh]
	 Opposite-Spin Energy      =      -1.2482565278226936 [Eh]
	 Correlation Energy        =      -1.6563916710196858 [Eh]
	 Total Energy              =    -363.2445613340273667 [Eh]

	 ================> DF-SCS-MP2 Energies <==================
	-----------------------------------------------------------
	 SCS Same-Spin Scale       =       0.3333333333333333 [-]
	 SCS Opposite-Spin Scale   =       1.2000000000000000 [-]
	 SCS Same-Spin Energy      =      -0.1360450477323307 [Eh]
	 SCS Opposite-Spin Energy  =      -1.4979078333872322 [Eh]
	 SCS Correlation Energy    =      -1.6339528811195629 [Eh]
	 SCS Total Energy          =    -363.2221225441272736 [Eh]
	-----------------------------------------------------------

  Dipole Moment: [D]
     X:    -1.4946      Y:    -1.5681      Z:     0.0000     Total:     2.1663

*** Psi4 exiting successfully. Buy a developer a beer!
