                               Psi4 1.3.2 release

  ==> Input File <==

--------------------------------------------------------------------------
#psi4
#
memory 32 gb

molecule  {
0 1
  N       -1.5631460    -1.0786450     0.0000020
  C        0.9930804     1.4102571    -0.0000004
  C        2.1554110     0.6922200     0.0000020
  C        2.1326810    -0.7203310    -0.0000050
  C        0.9343870    -1.4220840     0.0000000
  C       -0.2481830    -0.6706930     0.0000000
  C       -0.2522510     0.7528300     0.0000150
  C       -1.6207120     1.1681210    -0.0000080
  C       -2.3885810     0.0265560    -0.0000050
  H        1.0121500     2.5200250     0.0000050
  H        3.1140070     1.2059840    -0.0000050
  H        3.0718340    -1.2688090    -0.0000050
  H        0.9183210    -2.5105470    -0.0000040
  H       -1.9975130     2.1830700    -0.0000130
  H       -1.8769340    -2.0399470     0.0000180
  H       -3.4648550    -0.0903210     0.0000040
units angstrom
no_reorient  #important for SAPT in psi4, default
symmetry c1  #important for SAPT in psi4, default
}

set PROPERTIES_ORIGIN ["COM"]
properties('MP2/aug-cc-pvtz', properties = ['dipole'])
--------------------------------------------------------------------------

    Molecular point group: c1
  Charge       = 0
  Multiplicity = 1
  Basis Set: AUG-CC-PVTZ
    Blend: AUG-CC-PVTZ
  Basis Set: (AUG-CC-PVTZ AUX)
    Blend: AUG-CC-PVTZ-JKFIT

    Orbital Energies [Eh]
    ---------------------

    Doubly Occupied:

       1A    -15.605928     2A    -11.273127     3A    -11.266619
       4A    -11.233487     5A    -11.230966     6A    -11.230392
       7A    -11.226742     8A    -11.219992     9A    -11.219442
      10A     -1.296245    11A     -1.130731    12A     -1.055668
      13A     -0.998944    14A     -0.974144    15A     -0.841040
      16A     -0.807030    17A     -0.789356    18A     -0.725486
      19A     -0.661398    20A     -0.649240    21A     -0.602169
      22A     -0.591842    23A     -0.584166    24A     -0.574658
      25A     -0.549835    26A     -0.510426    27A     -0.478681
      28A     -0.466843    29A     -0.385930    30A     -0.303454
      31A     -0.282989

  @DF-RHF Final Energy:  -361.58869166010527

   => Energetics <=

    Nuclear Repulsion Energy =            400.3295426675591102
    One-Electron Energy =               -1282.3025231135377453
    Two-Electron Energy =                 520.3842887858734230
    Total Energy =                       -361.5886916601052690
  Basis Set: (AUG-CC-PVTZ AUX)
    Blend: AUG-CC-PVTZ-RI
    Molecular point group: c1

    Geometry (in Angstrom), charge = 0, multiplicity = 1:

       Center              X                  Y                   Z               Mass
    ------------   -----------------  -----------------  -----------------  -----------------
         N           -1.557714752172    -1.076403528575     0.000001904268    14.003074004430
         C            0.998511647828     1.412498571425    -0.000000495732    12.000000000000
         C            2.160842247828     0.694461471425     0.000001904268    12.000000000000
         C            2.138112247828    -0.718089528575    -0.000005095732    12.000000000000
         C            0.939818247828    -1.419842528575    -0.000000095732    12.000000000000
         C           -0.242751752172    -0.668451528575    -0.000000095732    12.000000000000
         C           -0.246819752172     0.755071471425     0.000014904268    12.000000000000
         C           -1.615280752172     1.170362471425    -0.000008095732    12.000000000000
         C           -2.383149752172     0.028797471425    -0.000005095732    12.000000000000
         H            1.017581247828     2.522266471425     0.000004904268     1.007825032230
         H            3.119438247828     1.208225471425    -0.000005095732     1.007825032230
         H            3.077265247828    -1.266567528575    -0.000005095732     1.007825032230
         H            0.923752247828    -2.508305528575    -0.000004095732     1.007825032230
         H           -1.992081752172     2.185311471425    -0.000013095732     1.007825032230
         H           -1.871502752172    -2.037705528575     0.000017904268     1.007825032230
         H           -3.459423752172    -0.088079528575     0.000003904268     1.007825032230

  Basis Set: AUG-CC-PVTZ
    Blend: AUG-CC-PVTZ
  Basis Set: (AUG-CC-PVTZ AUX)
    Blend: AUG-CC-PVTZ-JKFIT
	 Reference Energy          =    -361.5886916601052690 [Eh]
	 Singles Energy            =      -0.0000000000000000 [Eh]
	 Same-Spin Energy          =      -0.4079547946310026 [Eh]
	 Opposite-Spin Energy      =      -1.2477433824421875 [Eh]
	 Correlation Energy        =      -1.6556981770731900 [Eh]
	 Total Energy              =    -363.2443898371784599 [Eh]

	 ================> DF-SCS-MP2 Energies <==================
	-----------------------------------------------------------
	 SCS Same-Spin Scale       =       0.3333333333333333 [-]
	 SCS Opposite-Spin Scale   =       1.2000000000000000 [-]
	 SCS Same-Spin Energy      =      -0.1359849315436675 [Eh]
	 SCS Opposite-Spin Energy  =      -1.4972920589306249 [Eh]
	 SCS Correlation Energy    =      -1.6332769904742923 [Eh]
	 SCS Total Energy          =    -363.2219686505795835 [Eh]
	-----------------------------------------------------------

  Dipole Moment: [D]
     X:    -1.4857      Y:    -1.5593      Z:     0.0000     Total:     2.1537

*** Psi4 exiting successfully. Buy a developer a beer!
