                               Psi4 1.3.2 release

  ==> Input File <==

--------------------------------------------------------------------------
#psi4
#
memory 32 gb

molecule  {
0 1
  N       -1.5631460    -1.0786450     0.0000020
  C        0.9814170     1.4318910     0.0000000
  C        2.1554110     0.6922200     0.0000020
  C        2.1326810    -0.7203310    -0.0000050
  C        0.9343870    -1.4220840     0.0000000
  C       -0.2555030    -0.6478059    -0.0000001
  C       -0.2522510     0.7528300     0.0000150
  C       -1.6207120     1.1681210    -0.0000080
  C       -2.3885810     0.0265560    -0.0000050
  H        1.0121500     2.5200250     0.0000050
  H        3.1140070     1.2059840    -0.0000050
  H        3.0718340    -1.2688090    -0.0000050
  H        0.9183210    -2.5105470    -0.0000040
  H       -1.9975130     2.1830700    -0.0000130
  H       -1.8769340    -2.0399470     0.0000180
  H       -3.4648550    -0.0903210     0.0000040
units angstrom
no_reorient  #important for SAPT in psi4, default
symmetry c1  #important for SAPT in psi4, default
}

set PROPERTIES_ORIGIN ["COM"]
properties('MP2/aug-cc-pvtz', properties = ['dipole'])
--------------------------------------------------------------------------

    Molecular point group: c1
  Charge       = 0
  Multiplicity = 1
  Basis Set: AUG-CC-PVTZ
    Blend: AUG-CC-PVTZ
  Basis Set: (AUG-CC-PVTZ AUX)
    Blend: AUG-CC-PVTZ-JKFIT

    Orbital Energies [Eh]
    ---------------------

    Doubly Occupied:

       1A    -15.605019     2A    -11.271953     3A    -11.266377
       4A    -11.235492     5A    -11.232313     6A    -11.230677
       7A    -11.224661     8A    -11.222637     9A    -11.218139
      10A     -1.297087    11A     -1.128879    12A     -1.055616
      13A     -0.995764    14A     -0.974390    15A     -0.842648
      16A     -0.805031    17A     -0.788388    18A     -0.728236
      19A     -0.661274    20A     -0.647458    21A     -0.602352
      22A     -0.594398    23A     -0.584584    24A     -0.573674
      25A     -0.550030    26A     -0.506912    27A     -0.485171
      28A     -0.464903    29A     -0.384070    30A     -0.301967
      31A     -0.284265

  @DF-RHF Final Energy:  -361.58902633099240

   => Energetics <=

    Nuclear Repulsion Energy =            400.2078723153824740
    One-Electron Energy =               -1282.0650675415349724
    Two-Electron Energy =                 520.2681688951601018
    Total Energy =                       -361.5890263309923967
  Basis Set: (AUG-CC-PVTZ AUX)
    Blend: AUG-CC-PVTZ-RI
    Molecular point group: c1

    Geometry (in Angstrom), charge = 0, multiplicity = 1:

       Center              X                  Y                   Z               Mass
    ------------   -----------------  -----------------  -----------------  -----------------
         N           -1.555768698989    -1.080967528371     0.000001873514    14.003074004430
         C            0.988794301011     1.429568471629    -0.000000126486    12.000000000000
         C            2.162788301011     0.689897471629     0.000001873514    12.000000000000
         C            2.140058301011    -0.722653528371    -0.000005126486    12.000000000000
         C            0.941764301011    -1.424406528371    -0.000000126486    12.000000000000
         C           -0.248125698989    -0.650128428371    -0.000000226486    12.000000000000
         C           -0.244873698989     0.750507471629     0.000014873514    12.000000000000
         C           -1.613334698989     1.165798471629    -0.000008126486    12.000000000000
         C           -2.381203698989     0.024233471629    -0.000005126486    12.000000000000
         H            1.019527301011     2.517702471629     0.000004873514     1.007825032230
         H            3.121384301011     1.203661471629    -0.000005126486     1.007825032230
         H            3.079211301011    -1.271131528371    -0.000005126486     1.007825032230
         H            0.925698301011    -2.512869528371    -0.000004126486     1.007825032230
         H           -1.990135698989     2.180747471629    -0.000013126486     1.007825032230
         H           -1.869556698989    -2.042269528371     0.000017873514     1.007825032230
         H           -3.457477698989    -0.092643528371     0.000003873514     1.007825032230

  Basis Set: AUG-CC-PVTZ
    Blend: AUG-CC-PVTZ
  Basis Set: (AUG-CC-PVTZ AUX)
    Blend: AUG-CC-PVTZ-JKFIT
	 Reference Energy          =    -361.5890263309923967 [Eh]
	 Singles Energy            =      -0.0000000000000000 [Eh]
	 Same-Spin Energy          =      -0.4076744074364027 [Eh]
	 Opposite-Spin Energy      =      -1.2477114195084731 [Eh]
	 Correlation Energy        =      -1.6553858269448758 [Eh]
	 Total Energy              =    -363.2444121579372904 [Eh]

	 ================> DF-SCS-MP2 Energies <==================
	-----------------------------------------------------------
	 SCS Same-Spin Scale       =       0.3333333333333333 [-]
	 SCS Opposite-Spin Scale   =       1.2000000000000000 [-]
	 SCS Same-Spin Energy      =      -0.1358914691454675 [Eh]
	 SCS Opposite-Spin Energy  =      -1.4972537034101676 [Eh]
	 SCS Correlation Energy    =      -1.6331451725556352 [Eh]
	 SCS Total Energy          =    -363.2221715035480543 [Eh]
	-----------------------------------------------------------

  Dipole Moment: [D]
     X:    -1.4466      Y:    -1.5595      Z:     0.0000     Total:     2.1272

*** Psi4 exiting successfully. Buy a developer a beer!
