                               Psi4 1.3.2 release

  ==> Input File <==

--------------------------------------------------------------------------
#psi4
#
memory 32 gb

molecule  {
0 1
  N       -1.5132999    -1.2138613     0.0000022
  C        0.9814170     1.4318910     0.0000000
  C        2.1554110     0.6922200     0.0000020
  C        2.1326810    -0.7203310    -0.0000050
  C        0.9343870    -1.4220840     0.0000000
  C       -0.2481830    -0.6706930     0.0000000
  C       -0.2522510     0.7528300     0.0000150
  C       -1.6207120     1.1681210    -0.0000080
  C       -2.3885810     0.0265560    -0.0000050
  H        1.0121500     2.5200250     0.0000050
  H        3.1140070     1.2059840    -0.0000050
  H        3.0718340    -1.2688090    -0.0000050
  H        0.9183210    -2.5105470    -0.0000040
  H       -1.9975130     2.1830700    -0.0000130
  H       -1.8769340    -2.0399470     0.0000180
  H       -3.4648550    -0.0903210     0.0000040
units angstrom
no_reorient  #important for SAPT in psi4, default
symmetry c1  #important for SAPT in psi4, default
}

set PROPERTIES_ORIGIN ["COM"]
properties('MP2/aug-cc-pvtz', properties = ['dipole'])
--------------------------------------------------------------------------

    Molecular point group: c1
  Charge       = 0
  Multiplicity = 1
  Basis Set: AUG-CC-PVTZ
    Blend: AUG-CC-PVTZ
  Basis Set: (AUG-CC-PVTZ AUX)
    Blend: AUG-CC-PVTZ-JKFIT

    Orbital Energies [Eh]
    ---------------------

    Doubly Occupied:

       1A    -15.592505     2A    -11.281914     3A    -11.274409
       4A    -11.235174     5A    -11.233542     6A    -11.231671
       7A    -11.231384     8A    -11.228415     9A    -11.222015
      10A     -1.272807    11A     -1.128616    12A     -1.067260
      13A     -0.998448    14A     -0.970538    15A     -0.844109
      16A     -0.820611    17A     -0.781426    18A     -0.732667
      19A     -0.664856    20A     -0.645690    21A     -0.604054
      22A     -0.588600    23A     -0.578809    24A     -0.570071
      25A     -0.541088    26A     -0.506068    27A     -0.487644
      28A     -0.458372    29A     -0.394631    30A     -0.299040
      31A     -0.288984

  @DF-RHF Final Energy:  -361.56056645735936

   => Energetics <=

    Nuclear Repulsion Energy =            398.1226971358254900
    One-Electron Energy =               -1277.8156945936918873
    Two-Electron Energy =                 518.1324310005070402
    Total Energy =                       -361.5605664573593003
  Basis Set: (AUG-CC-PVTZ AUX)
    Blend: AUG-CC-PVTZ-RI
    Molecular point group: c1

    Geometry (in Angstrom), charge = 0, multiplicity = 1:

       Center              X                  Y                   Z               Mass
    ------------   -----------------  -----------------  -----------------  -----------------
         N           -1.512635849167    -1.197662310422     0.000002039338    14.003074004430
         C            0.982081050833     1.448089989578    -0.000000160662    12.000000000000
         C            2.156075050833     0.708418989578     0.000001839338    12.000000000000
         C            2.133345050833    -0.704132010422    -0.000005160662    12.000000000000
         C            0.935051050833    -1.405885010422    -0.000000160662    12.000000000000
         C           -0.247518949167    -0.654494010422    -0.000000160662    12.000000000000
         C           -0.251586949167     0.769028989578     0.000014839338    12.000000000000
         C           -1.620047949167     1.184319989578    -0.000008160662    12.000000000000
         C           -2.387916949167     0.042754989578    -0.000005160662    12.000000000000
         H            1.012814050833     2.536223989578     0.000004839338     1.007825032230
         H            3.114671050833     1.222182989578    -0.000005160662     1.007825032230
         H            3.072498050833    -1.252610010422    -0.000005160662     1.007825032230
         H            0.918985050833    -2.494348010422    -0.000004160662     1.007825032230
         H           -1.996848949167     2.199268989578    -0.000013160662     1.007825032230
         H           -1.876269949167    -2.023748010422     0.000017839338     1.007825032230
         H           -3.464190949167    -0.074122010422     0.000003839338     1.007825032230

  Basis Set: AUG-CC-PVTZ
    Blend: AUG-CC-PVTZ
  Basis Set: (AUG-CC-PVTZ AUX)
    Blend: AUG-CC-PVTZ-JKFIT
	 Reference Energy          =    -361.5605664573593572 [Eh]
	 Singles Energy            =      -0.0000000000000000 [Eh]
	 Same-Spin Energy          =      -0.4067364838743415 [Eh]
	 Opposite-Spin Energy      =      -1.2488772710947833 [Eh]
	 Correlation Energy        =      -1.6556137549691248 [Eh]
	 Total Energy              =    -363.2161802123284815 [Eh]

	 ================> DF-SCS-MP2 Energies <==================
	-----------------------------------------------------------
	 SCS Same-Spin Scale       =       0.3333333333333333 [-]
	 SCS Opposite-Spin Scale   =       1.2000000000000000 [-]
	 SCS Same-Spin Energy      =      -0.1355788279581138 [Eh]
	 SCS Opposite-Spin Energy  =      -1.4986527253137398 [Eh]
	 SCS Correlation Energy    =      -1.6342315532718537 [Eh]
	 SCS Total Energy          =    -363.1947980106311888 [Eh]
	-----------------------------------------------------------

  Dipole Moment: [D]
     X:    -1.4392      Y:    -1.1310      Z:     0.0000     Total:     1.8304

*** Psi4 exiting successfully. Buy a developer a beer!
