                               Psi4 1.4a3.dev225

  ==> Input File <==

--------------------------------------------------------------------------
#psi4
#
memory 32 gb

molecule  {
0 1
  N       -1.5630850    -1.0784890    -0.0000040
  C        0.9811620     1.4317850    -0.0000050
  C        2.1553110     0.6923450     0.0000000
  C        2.1328040    -0.7200770     0.0000000
  C        0.9346070    -1.4219960     0.0000040
  C       -0.2479390    -0.6706250     0.0000000
  C       -0.2522910     0.7524290     0.0000030
  C       -1.6208000     1.1677860     0.0000050
  C       -2.3888340     0.0267020    -0.0000020
  H        1.0113780     2.5197500    -0.0000020
  H        3.1138040     1.2059540    -0.0000050
  H        3.0892751    -1.2783316     0.0000031
  H        0.9188940    -2.5102320     0.0000020
  H       -1.9966350     2.1828910     0.0000100
  H       -1.8770410    -2.0396260     0.0000000
  H       -3.4649170    -0.0911630    -0.0000050
units angstrom
no_reorient  #important for SAPT in psi4, default
symmetry c1  #important for SAPT in psi4, default
}

set PROPERTIES_ORIGIN ["COM"]
properties('MP2/aug-cc-pvtz', properties = ['dipole'])
--------------------------------------------------------------------------

    Molecular point group: c1
  Charge       = 0
  Multiplicity = 1
  Basis Set: AUG-CC-PVTZ
    Blend: AUG-CC-PVTZ
  Basis Set: (AUG-CC-PVTZ AUX)
    Blend: AUG-CC-PVTZ-JKFIT

    Orbital Energies [Eh]
    ---------------------

    Doubly Occupied:

       1A    -15.605709     2A    -11.273223     3A    -11.267227
       4A    -11.233960     5A    -11.232504     6A    -11.231809
       7A    -11.227279     8A    -11.222574     9A    -11.218840
      10A     -1.296286    11A     -1.128487    12A     -1.055967
      13A     -0.996594    14A     -0.973846    15A     -0.842130
      16A     -0.805400    17A     -0.788375    18A     -0.727015
      19A     -0.660744    20A     -0.646839    21A     -0.601682
      22A     -0.595413    23A     -0.584113    24A     -0.574543
      25A     -0.548591    26A     -0.507121    27A     -0.482388
      28A     -0.465062    29A     -0.386136    30A     -0.301651
      31A     -0.283141

  @DF-RHF Final Energy:  -361.58867060549528

   => Energetics <=

    Nuclear Repulsion Energy =            399.9231891577860551
    One-Electron Energy =               -1281.4944197152183278
    Two-Electron Energy =                 519.9825599519369916
    Total Energy =                       -361.5886706054952811
  Basis Set: (AUG-CC-PVTZ AUX)
    Blend: AUG-CC-PVTZ-RI
    Molecular point group: c1

    Geometry (in Angstrom), charge = 0, multiplicity = 1:

       Center              X                  Y                   Z               Mass
    ------------   -----------------  -----------------  -----------------  -----------------
         N           -1.556602924450    -1.078379523714    -0.000004060756    14.003074004430
         C            0.987644075550     1.431894476286    -0.000005060756    12.000000000000
         C            2.161793075550     0.692454476286    -0.000000060756    12.000000000000
         C            2.139286075550    -0.719967523714    -0.000000060756    12.000000000000
         C            0.941089075550    -1.421886523714     0.000003939244    12.000000000000
         C           -0.241456924450    -0.670515523714    -0.000000060756    12.000000000000
         C           -0.245808924450     0.752538476286     0.000002939244    12.000000000000
         C           -1.614317924450     1.167895476286     0.000004939244    12.000000000000
         C           -2.382351924450     0.026811476286    -0.000002060756    12.000000000000
         H            1.017860075550     2.519859476286    -0.000002060756     1.007825032230
         H            3.120286075550     1.206063476286    -0.000005060756     1.007825032230
         H            3.095757175550    -1.278222123714     0.000003039244     1.007825032230
         H            0.925376075550    -2.510122523714     0.000001939244     1.007825032230
         H           -1.990152924450     2.183000476286     0.000009939244     1.007825032230
         H           -1.870558924450    -2.039516523714    -0.000000060756     1.007825032230
         H           -3.458434924450    -0.091053523714    -0.000005060756     1.007825032230

  Basis Set: AUG-CC-PVTZ
    Blend: AUG-CC-PVTZ
  Basis Set: (AUG-CC-PVTZ AUX)
    Blend: AUG-CC-PVTZ-JKFIT
	 Reference Energy          =    -361.5886706054952811 [Eh]
	 Singles Energy            =      -0.0000000000000000 [Eh]
	 Same-Spin Energy          =      -0.4080007062454770 [Eh]
	 Opposite-Spin Energy      =      -1.2480192107066519 [Eh]
	 Correlation Energy        =      -1.6560199169521288 [Eh]
	 Total Energy              =    -363.2446905224473994 [Eh]

	 ================> DF-SCS-MP2 Energies <==================
	-----------------------------------------------------------
	 SCS Same-Spin Scale       =       0.3333333333333333 [-]
	 SCS Opposite-Spin Scale   =       1.2000000000000000 [-]
	 SCS Same-Spin Energy      =      -0.1360002354151590 [Eh]
	 SCS Opposite-Spin Energy  =      -1.4976230528479821 [Eh]
	 SCS Correlation Energy    =      -1.6336232882631412 [Eh]
	 SCS Total Energy          =    -363.2222938937584331 [Eh]
	-----------------------------------------------------------

  Dipole Moment: [D]
     X:    -1.4925      Y:    -1.5406      Z:     0.0000     Total:     2.1450

*** Psi4 exiting successfully. Buy a developer a beer!
