                               Psi4 1.3.2 release

  ==> Input File <==

--------------------------------------------------------------------------
#psi4
#
memory 32 gb

molecule  {
0 1
  N       -1.5631460    -1.0786450     0.0000020
  C        0.9814170     1.4318910     0.0000000
  C        2.1554110     0.6922200     0.0000020
  C        2.1326810    -0.7203310    -0.0000050
  C        0.9343870    -1.4220840     0.0000000
  C       -0.1985052    -0.6696839     0.0000010
  C       -0.2522510     0.7528300     0.0000150
  C       -1.6207120     1.1681210    -0.0000080
  C       -2.3885810     0.0265560    -0.0000050
  H        1.0121500     2.5200250     0.0000050
  H        3.1140070     1.2059840    -0.0000050
  H        3.0718340    -1.2688090    -0.0000050
  H        0.9183210    -2.5105470    -0.0000040
  H       -1.9975130     2.1830700    -0.0000130
  H       -1.8769340    -2.0399470     0.0000180
  H       -3.4648550    -0.0903210     0.0000040
units angstrom
no_reorient  #important for SAPT in psi4, default
symmetry c1  #important for SAPT in psi4, default
}

set PROPERTIES_ORIGIN ["COM"]
properties('MP2/aug-cc-pvtz', properties = ['dipole'])
--------------------------------------------------------------------------

    Molecular point group: c1
  Charge       = 0
  Multiplicity = 1
  Basis Set: AUG-CC-PVTZ
    Blend: AUG-CC-PVTZ
  Basis Set: (AUG-CC-PVTZ AUX)
    Blend: AUG-CC-PVTZ-JKFIT

    Orbital Energies [Eh]
    ---------------------

    Doubly Occupied:

       1A    -15.601666     2A    -11.275846     3A    -11.266516
       4A    -11.231306     5A    -11.231167     6A    -11.229887
       7A    -11.229797     8A    -11.223716     9A    -11.217552
      10A     -1.282742    11A     -1.132993    12A     -1.055926
      13A     -0.999945    14A     -0.973107    15A     -0.839959
      16A     -0.807501    17A     -0.787324    18A     -0.725055
      19A     -0.655931    20A     -0.647468    21A     -0.607626
      22A     -0.594401    23A     -0.577685    24A     -0.574956
      25A     -0.547818    26A     -0.508232    27A     -0.484209
      28A     -0.466659    29A     -0.386547    30A     -0.307340
      31A     -0.280012

  @DF-RHF Final Energy:  -361.58563967646978

   => Energetics <=

    Nuclear Repulsion Energy =            399.9554942610808439
    One-Electron Energy =               -1281.5804961183182513
    Two-Electron Energy =                 520.0393621807676254
    Total Energy =                       -361.5856396764697820
  Basis Set: (AUG-CC-PVTZ AUX)
    Blend: AUG-CC-PVTZ-RI
    Molecular point group: c1

    Geometry (in Angstrom), charge = 0, multiplicity = 1:

       Center              X                  Y                   Z               Mass
    ------------   -----------------  -----------------  -----------------  -----------------
         N           -1.561611738175    -1.078724739854     0.000001760750    14.003074004430
         C            0.982951261825     1.431811260146    -0.000000239250    12.000000000000
         C            2.156945261825     0.692140260146     0.000001760750    12.000000000000
         C            2.134215261825    -0.720410739854    -0.000005239250    12.000000000000
         C            0.935921261825    -1.422163739854    -0.000000239250    12.000000000000
         C           -0.196970938175    -0.669763639854     0.000000760750    12.000000000000
         C           -0.250716738175     0.752750260146     0.000014760750    12.000000000000
         C           -1.619177738175     1.168041260146    -0.000008239250    12.000000000000
         C           -2.387046738175     0.026476260146    -0.000005239250    12.000000000000
         H            1.013684261825     2.519945260146     0.000004760750     1.007825032230
         H            3.115541261825     1.205904260146    -0.000005239250     1.007825032230
         H            3.073368261825    -1.268888739854    -0.000005239250     1.007825032230
         H            0.919855261825    -2.510626739854    -0.000004239250     1.007825032230
         H           -1.995978738175     2.182990260146    -0.000013239250     1.007825032230
         H           -1.875399738175    -2.040026739854     0.000017760750     1.007825032230
         H           -3.463320738175    -0.090400739854     0.000003760750     1.007825032230

  Basis Set: AUG-CC-PVTZ
    Blend: AUG-CC-PVTZ
  Basis Set: (AUG-CC-PVTZ AUX)
    Blend: AUG-CC-PVTZ-JKFIT
	 Reference Energy          =    -361.5856396764697820 [Eh]
	 Singles Energy            =      -0.0000000000000000 [Eh]
	 Same-Spin Energy          =      -0.4079904699572715 [Eh]
	 Opposite-Spin Energy      =      -1.2480332063094532 [Eh]
	 Correlation Energy        =      -1.6560236762667246 [Eh]
	 Total Energy              =    -363.2416633527365093 [Eh]

	 ================> DF-SCS-MP2 Energies <==================
	-----------------------------------------------------------
	 SCS Same-Spin Scale       =       0.3333333333333333 [-]
	 SCS Opposite-Spin Scale   =       1.2000000000000000 [-]
	 SCS Same-Spin Energy      =      -0.1359968233190905 [Eh]
	 SCS Opposite-Spin Energy  =      -1.4976398475713439 [Eh]
	 SCS Correlation Energy    =      -1.6336366708904344 [Eh]
	 SCS Total Energy          =    -363.2192763473602213 [Eh]
	-----------------------------------------------------------

  Dipole Moment: [D]
     X:    -1.3667      Y:    -1.5036      Z:     0.0000     Total:     2.0319

*** Psi4 exiting successfully. Buy a developer a beer!
