                               Psi4 1.3.2 release

  ==> Input File <==

--------------------------------------------------------------------------
#psi4
#
memory 32 gb

molecule  {
0 1
  N       -1.5558260    -1.1015321     0.0000020
  C        0.9814170     1.4318910     0.0000000
  C        2.1554110     0.6922200     0.0000020
  C        2.1326810    -0.7203310    -0.0000050
  C        0.9343870    -1.4220840     0.0000000
  C       -0.2481830    -0.6706930     0.0000000
  C       -0.2522510     0.7528300     0.0000150
  C       -1.6207120     1.1681210    -0.0000080
  C       -2.3885810     0.0265560    -0.0000050
  H        1.0121500     2.5200250     0.0000050
  H        3.1140070     1.2059840    -0.0000050
  H        3.0718340    -1.2688090    -0.0000050
  H        0.9183210    -2.5105470    -0.0000040
  H       -1.9975130     2.1830700    -0.0000130
  H       -1.8769340    -2.0399470     0.0000180
  H       -3.4648550    -0.0903210     0.0000040
units angstrom
no_reorient  #important for SAPT in psi4, default
symmetry c1  #important for SAPT in psi4, default
}

set PROPERTIES_ORIGIN ["COM"]
properties('MP2/aug-cc-pvtz', properties = ['dipole'])
--------------------------------------------------------------------------

    Molecular point group: c1
  Charge       = 0
  Multiplicity = 1
  Basis Set: AUG-CC-PVTZ
    Blend: AUG-CC-PVTZ
  Basis Set: (AUG-CC-PVTZ AUX)
    Blend: AUG-CC-PVTZ-JKFIT

    Orbital Energies [Eh]
    ---------------------

    Doubly Occupied:

       1A    -15.603440     2A    -11.274734     3A    -11.268180
       4A    -11.232735     5A    -11.232275     6A    -11.230528
       7A    -11.227960     8A    -11.222298     9A    -11.221381
      10A     -1.291331    11A     -1.128187    12A     -1.057961
      13A     -0.996178    14A     -0.973755    15A     -0.841401
      16A     -0.809185    17A     -0.787403    18A     -0.727938
      19A     -0.661465    20A     -0.647119    21A     -0.601149
      22A     -0.595873    23A     -0.581150    24A     -0.575472
      25A     -0.549554    26A     -0.507629    27A     -0.483636
      28A     -0.463750    29A     -0.387438    30A     -0.300673
      31A     -0.284461

  @DF-RHF Final Energy:  -361.58872158051361

   => Energetics <=

    Nuclear Repulsion Energy =            399.6549704538752508
    One-Electron Energy =               -1280.9549024979628484
    Two-Electron Energy =                 519.7112104635740479
    Total Energy =                       -361.5887215805136066
  Basis Set: (AUG-CC-PVTZ AUX)
    Blend: AUG-CC-PVTZ-RI
    Molecular point group: c1

    Geometry (in Angstrom), charge = 0, multiplicity = 1:

       Center              X                  Y                   Z               Mass
    ------------   -----------------  -----------------  -----------------  -----------------
         N           -1.550074753995    -1.098770518600     0.000001863263    14.003074004430
         C            0.987168246005     1.434652581400    -0.000000136737    12.000000000000
         C            2.161162246005     0.694981581400     0.000001863263    12.000000000000
         C            2.138432246005    -0.717569418600    -0.000005136737    12.000000000000
         C            0.940138246005    -1.419322418600    -0.000000136737    12.000000000000
         C           -0.242431753995    -0.667931418600    -0.000000136737    12.000000000000
         C           -0.246499753995     0.755591581400     0.000014863263    12.000000000000
         C           -1.614960753995     1.170882581400    -0.000008136737    12.000000000000
         C           -2.382829753995     0.029317581400    -0.000005136737    12.000000000000
         H            1.017901246005     2.522786581400     0.000004863263     1.007825032230
         H            3.119758246005     1.208745581400    -0.000005136737     1.007825032230
         H            3.077585246005    -1.266047418600    -0.000005136737     1.007825032230
         H            0.924072246005    -2.507785418600    -0.000004136737     1.007825032230
         H           -1.991761753995     2.185831581400    -0.000013136737     1.007825032230
         H           -1.871182753995    -2.037185418600     0.000017863263     1.007825032230
         H           -3.459103753995    -0.087559418600     0.000003863263     1.007825032230

  Basis Set: AUG-CC-PVTZ
    Blend: AUG-CC-PVTZ
  Basis Set: (AUG-CC-PVTZ AUX)
    Blend: AUG-CC-PVTZ-JKFIT
	 Reference Energy          =    -361.5887215805136066 [Eh]
	 Singles Energy            =      -0.0000000000000000 [Eh]
	 Same-Spin Energy          =      -0.4076746781421411 [Eh]
	 Opposite-Spin Energy      =      -1.2478308370686533 [Eh]
	 Correlation Energy        =      -1.6555055152107943 [Eh]
	 Total Energy              =    -363.2442270957243977 [Eh]

	 ================> DF-SCS-MP2 Energies <==================
	-----------------------------------------------------------
	 SCS Same-Spin Scale       =       0.3333333333333333 [-]
	 SCS Opposite-Spin Scale   =       1.2000000000000000 [-]
	 SCS Same-Spin Energy      =      -0.1358915593807137 [Eh]
	 SCS Opposite-Spin Energy  =      -1.4973970044823839 [Eh]
	 SCS Correlation Energy    =      -1.6332885638630976 [Eh]
	 SCS Total Energy          =    -363.2220101443767248 [Eh]
	-----------------------------------------------------------

  Dipole Moment: [D]
     X:    -1.4765      Y:    -1.4796      Z:     0.0000     Total:     2.0902

*** Psi4 exiting successfully. Buy a developer a beer!
