                               Psi4 1.3.2 release

  ==> Input File <==

--------------------------------------------------------------------------
#psi4
#
memory 32 gb

molecule  {
0 1
  N       -1.5631460    -1.0786450     0.0000020
  C        0.9814170     1.4318910     0.0000000
  C        2.1554110     0.6922200     0.0000020
  C        2.1326810    -0.7203310    -0.0000050
  C        0.9343870    -1.4220840     0.0000000
  C       -0.2481830    -0.6706930     0.0000000
  C       -0.2522510     0.7528300     0.0000150
  C       -1.6207120     1.1681210    -0.0000080
  C       -2.3885810     0.0265560    -0.0000050
  H        1.0121500     2.5200250     0.0000050
  H        3.1140070     1.2059840    -0.0000050
  H        3.0718340    -1.2688090    -0.0000050
  H        0.9183210    -2.5105470    -0.0000040
  H       -1.9975130     2.1830700    -0.0000130
  H       -1.8769340    -2.0399470     0.0000180
  H       -3.6636861    -0.1119129     0.0000057
units angstrom
no_reorient  #important for SAPT in psi4, default
symmetry c1  #important for SAPT in psi4, default
}

set PROPERTIES_ORIGIN ["COM"]
properties('MP2/aug-cc-pvtz', properties = ['dipole'])
--------------------------------------------------------------------------

    Molecular point group: c1
  Charge       = 0
  Multiplicity = 1
  Basis Set: AUG-CC-PVTZ
    Blend: AUG-CC-PVTZ
  Basis Set: (AUG-CC-PVTZ AUX)
    Blend: AUG-CC-PVTZ-JKFIT

    Orbital Energies [Eh]
    ---------------------

    Doubly Occupied:

       1A    -15.607650     2A    -11.293766     3A    -11.268184
       4A    -11.234332     5A    -11.232372     6A    -11.230910
       7A    -11.228570     8A    -11.223032     9A    -11.220421
      10A     -1.297458    11A     -1.128949    12A     -1.056733
      13A     -0.996515    14A     -0.970899    15A     -0.837200
      16A     -0.802078    17A     -0.787204    18A     -0.722315
      19A     -0.657909    20A     -0.633264    21A     -0.601824
      22A     -0.595575    23A     -0.585422    24A     -0.571178
      25A     -0.532683    26A     -0.507213    27A     -0.482971
      28A     -0.465708    29A     -0.387079    30A     -0.302321
      31A     -0.283745

  @DF-RHF Final Energy:  -361.56618305903908

   => Energetics <=

    Nuclear Repulsion Energy =            399.0848858223968705
    One-Electron Energy =               -1279.8111816336761422
    Two-Electron Energy =                 519.1601127522401384
    Total Energy =                       -361.5661830590390764
  Basis Set: (AUG-CC-PVTZ AUX)
    Blend: AUG-CC-PVTZ-RI
    Molecular point group: c1

    Geometry (in Angstrom), charge = 0, multiplicity = 1:

       Center              X                  Y                   Z               Mass
    ------------   -----------------  -----------------  -----------------  -----------------
         N           -1.554807234547    -1.078435395248     0.000001848627    14.003074004430
         C            0.989755765453     1.432100604752    -0.000000151373    12.000000000000
         C            2.163749765453     0.692429604752     0.000001848627    12.000000000000
         C            2.141019765453    -0.720121395248    -0.000005151373    12.000000000000
         C            0.942725765453    -1.421874395248    -0.000000151373    12.000000000000
         C           -0.239844234547    -0.670483395248    -0.000000151373    12.000000000000
         C           -0.243912234547     0.753039604752     0.000014848627    12.000000000000
         C           -1.612373234547     1.168330604752    -0.000008151373    12.000000000000
         C           -2.380242234547     0.026765604752    -0.000005151373    12.000000000000
         H            1.020488765453     2.520234604752     0.000004848627     1.007825032230
         H            3.122345765453     1.206193604752    -0.000005151373     1.007825032230
         H            3.080172765453    -1.268599395248    -0.000005151373     1.007825032230
         H            0.926659765453    -2.510337395248    -0.000004151373     1.007825032230
         H           -1.989174234547     2.183279604752    -0.000013151373     1.007825032230
         H           -1.868595234547    -2.039737395248     0.000017848627     1.007825032230
         H           -3.655347334547    -0.111703295248     0.000005548627     1.007825032230

  Basis Set: AUG-CC-PVTZ
    Blend: AUG-CC-PVTZ
  Basis Set: (AUG-CC-PVTZ AUX)
    Blend: AUG-CC-PVTZ-JKFIT
	 Reference Energy          =    -361.5661830590390764 [Eh]
	 Singles Energy            =      -0.0000000000000000 [Eh]
	 Same-Spin Energy          =      -0.4085397988355937 [Eh]
	 Opposite-Spin Energy      =      -1.2501611056724222 [Eh]
	 Correlation Energy        =      -1.6587009045080159 [Eh]
	 Total Energy              =    -363.2248839635470858 [Eh]

	 ================> DF-SCS-MP2 Energies <==================
	-----------------------------------------------------------
	 SCS Same-Spin Scale       =       0.3333333333333333 [-]
	 SCS Opposite-Spin Scale   =       1.2000000000000000 [-]
	 SCS Same-Spin Energy      =      -0.1361799329451979 [Eh]
	 SCS Opposite-Spin Energy  =      -1.5001933268069065 [Eh]
	 SCS Correlation Energy    =      -1.6363732597521043 [Eh]
	 SCS Total Energy          =    -363.2025563187911530 [Eh]
	-----------------------------------------------------------

  Dipole Moment: [D]
     X:    -1.4362      Y:    -1.5446      Z:     0.0000     Total:     2.1091

*** Psi4 exiting successfully. Buy a developer a beer!
