                               Psi4 1.3.2 release

  ==> Input File <==

--------------------------------------------------------------------------
#psi4
#
memory 32 gb

molecule  {
0 1
  N       -1.5631460    -1.0786450     0.0000020
  C        0.9814170     1.4318910     0.0000000
  C        2.1554110     0.6922200     0.0000020
  C        2.1326810    -0.7203310    -0.0000050
  C        0.9343870    -1.4220840     0.0000000
  C       -0.2481830    -0.6706930     0.0000000
  C       -0.2522510     0.7528300     0.0000150
  C       -1.6207120     1.1681210    -0.0000080
  C       -2.3885810     0.0265560    -0.0000050
  H        1.0121500     2.5200250     0.0000050
  H        3.1140070     1.2059840    -0.0000050
  H        3.0718340    -1.2688090    -0.0000050
  H        0.9183210    -2.5105470    -0.0000040
  H       -1.9975130     2.1830700    -0.0000130
  H       -1.8769340    -2.0399470     0.0000180
  H       -3.2660239    -0.0687291     0.0000023
units angstrom
no_reorient  #important for SAPT in psi4, default
symmetry c1  #important for SAPT in psi4, default
}

set PROPERTIES_ORIGIN ["COM"]
properties('MP2/aug-cc-pvtz', properties = ['dipole'])
--------------------------------------------------------------------------

    Molecular point group: c1
  Charge       = 0
  Multiplicity = 1
  Basis Set: AUG-CC-PVTZ
    Blend: AUG-CC-PVTZ
  Basis Set: (AUG-CC-PVTZ AUX)
    Blend: AUG-CC-PVTZ-JKFIT

    Orbital Energies [Eh]
    ---------------------

    Doubly Occupied:

       1A    -15.604567     2A    -11.266680     3A    -11.250060
       4A    -11.233225     5A    -11.231487     6A    -11.230351
       7A    -11.226524     8A    -11.222159     9A    -11.218292
      10A     -1.296119    11A     -1.128718    12A     -1.056602
      13A     -0.999059    14A     -0.982348    15A     -0.858231
      16A     -0.813668    17A     -0.790022    18A     -0.735910
      19A     -0.677184    20A     -0.652737    21A     -0.602347
      22A     -0.595261    23A     -0.583298    24A     -0.578202
      25A     -0.556928    26A     -0.507895    27A     -0.482502
      28A     -0.464601    29A     -0.385576    30A     -0.301164
      31A     -0.282935

  @DF-RHF Final Energy:  -361.55334998748725

   => Energetics <=

    Nuclear Repulsion Energy =            401.1798186535531272
    One-Electron Energy =               -1283.8370322411353754
    Two-Electron Energy =                 521.1038636000948827
    Total Energy =                       -361.5533499874873087
  Basis Set: (AUG-CC-PVTZ AUX)
    Blend: AUG-CC-PVTZ-RI
    Molecular point group: c1

    Geometry (in Angstrom), charge = 0, multiplicity = 1:

       Center              X                  Y                   Z               Mass
    ------------   -----------------  -----------------  -----------------  -----------------
         N           -1.558230959843    -1.078807191885     0.000001877899    14.003074004430
         C            0.986332040157     1.431728808115    -0.000000122101    12.000000000000
         C            2.160326040157     0.692057808115     0.000001877899    12.000000000000
         C            2.137596040157    -0.720493191885    -0.000005122101    12.000000000000
         C            0.939302040157    -1.422246191885    -0.000000122101    12.000000000000
         C           -0.243267959843    -0.670855191885    -0.000000122101    12.000000000000
         C           -0.247335959843     0.752667808115     0.000014877899    12.000000000000
         C           -1.615796959843     1.167958808115    -0.000008122101    12.000000000000
         C           -2.383665959843     0.026393808115    -0.000005122101    12.000000000000
         H            1.017065040157     2.519862808115     0.000004877899     1.007825032230
         H            3.118922040157     1.205821808115    -0.000005122101     1.007825032230
         H            3.076749040157    -1.268971191885    -0.000005122101     1.007825032230
         H            0.923236040157    -2.510709191885    -0.000004122101     1.007825032230
         H           -1.992597959843     2.182907808115    -0.000013122101     1.007825032230
         H           -1.872018959843    -2.040109191885     0.000017877899     1.007825032230
         H           -3.261108859843    -0.068891291885     0.000002177899     1.007825032230

  Basis Set: AUG-CC-PVTZ
    Blend: AUG-CC-PVTZ
  Basis Set: (AUG-CC-PVTZ AUX)
    Blend: AUG-CC-PVTZ-JKFIT
	 Reference Energy          =    -361.5533499874872518 [Eh]
	 Singles Energy            =      -0.0000000000000000 [Eh]
	 Same-Spin Energy          =      -0.4077494227158019 [Eh]
	 Opposite-Spin Energy      =      -1.2472179795821712 [Eh]
	 Correlation Energy        =      -1.6549674022979732 [Eh]
	 Total Energy              =    -363.2083173897852362 [Eh]

	 ================> DF-SCS-MP2 Energies <==================
	-----------------------------------------------------------
	 SCS Same-Spin Scale       =       0.3333333333333333 [-]
	 SCS Opposite-Spin Scale   =       1.2000000000000000 [-]
	 SCS Same-Spin Energy      =      -0.1359164742386006 [Eh]
	 SCS Opposite-Spin Energy  =      -1.4966615754986055 [Eh]
	 SCS Correlation Energy    =      -1.6325780497372060 [Eh]
	 SCS Total Energy          =    -363.1859280372244712 [Eh]
	-----------------------------------------------------------

  Dipole Moment: [D]
     X:    -1.4787      Y:    -1.5452      Z:     0.0000     Total:     2.1387

*** Psi4 exiting successfully. Buy a developer a beer!
