                               Psi4 1.3.2 release

  ==> Input File <==

--------------------------------------------------------------------------
#psi4
#
memory 32 gb

molecule  {
0 1
  N       -1.5631460    -1.0786450     0.0000020
  C        0.9814170     1.4318910     0.0000000
  C        2.1554110     0.6922200     0.0000020
  C        2.1326810    -0.7203310    -0.0000050
  C        0.9343870    -1.4220840     0.0000000
  C       -0.2127439    -0.8103789     0.0000009
  C       -0.2522510     0.7528300     0.0000150
  C       -1.6207120     1.1681210    -0.0000080
  C       -2.3885810     0.0265560    -0.0000050
  H        1.0121500     2.5200250     0.0000050
  H        3.1140070     1.2059840    -0.0000050
  H        3.0718340    -1.2688090    -0.0000050
  H        0.9183210    -2.5105470    -0.0000040
  H       -1.9975130     2.1830700    -0.0000130
  H       -1.8769340    -2.0399470     0.0000180
  H       -3.4648550    -0.0903210     0.0000040
units angstrom
no_reorient  #important for SAPT in psi4, default
symmetry c1  #important for SAPT in psi4, default
}

set PROPERTIES_ORIGIN ["COM"]
properties('MP2/aug-cc-pvtz', properties = ['dipole'])
--------------------------------------------------------------------------

    Molecular point group: c1
  Charge       = 0
  Multiplicity = 1
  Basis Set: AUG-CC-PVTZ
    Blend: AUG-CC-PVTZ
  Basis Set: (AUG-CC-PVTZ AUX)
    Blend: AUG-CC-PVTZ-JKFIT

    Orbital Energies [Eh]
    ---------------------

    Doubly Occupied:

       1A    -15.609471     2A    -11.281048     3A    -11.270190
       4A    -11.240239     5A    -11.229077     6A    -11.227712
       7A    -11.222778     8A    -11.222180     9A    -11.221098
      10A     -1.292327    11A     -1.128602    12A     -1.061824
      13A     -1.002115    14A     -0.971936    15A     -0.843237
      16A     -0.811386    17A     -0.787114    18A     -0.720483
      19A     -0.669686    20A     -0.649982    21A     -0.606096
      22A     -0.591528    23A     -0.582827    24A     -0.577260
      25A     -0.545608    26A     -0.512467    27A     -0.465346
      28A     -0.454953    29A     -0.399568    30A     -0.302235
      31A     -0.274852

  @DF-RHF Final Energy:  -361.56076812367991

   => Energetics <=

    Nuclear Repulsion Energy =            398.8648656625674676
    One-Electron Energy =               -1279.3008179762434793
    Two-Electron Energy =                 518.8751841899961619
    Total Energy =                       -361.5607681236798499
  Basis Set: (AUG-CC-PVTZ AUX)
    Blend: AUG-CC-PVTZ-RI
    Molecular point group: c1

    Geometry (in Angstrom), charge = 0, multiplicity = 1:

       Center              X                  Y                   Z               Mass
    ------------   -----------------  -----------------  -----------------  -----------------
         N           -1.560152080398    -1.064301614783     0.000001771001    14.003074004430
         C            0.984410919602     1.446234385217    -0.000000228999    12.000000000000
         C            2.158404919602     0.706563385217     0.000001771001    12.000000000000
         C            2.135674919602    -0.705987614783    -0.000005228999    12.000000000000
         C            0.937380919602    -1.407740614783    -0.000000228999    12.000000000000
         C           -0.209749980398    -0.796035514783     0.000000671001    12.000000000000
         C           -0.249257080398     0.767173385217     0.000014771001    12.000000000000
         C           -1.617718080398     1.182464385217    -0.000008228999    12.000000000000
         C           -2.385587080398     0.040899385217    -0.000005228999    12.000000000000
         H            1.015143919602     2.534368385217     0.000004771001     1.007825032230
         H            3.117000919602     1.220327385217    -0.000005228999     1.007825032230
         H            3.074827919602    -1.254465614783    -0.000005228999     1.007825032230
         H            0.921314919602    -2.496203614783    -0.000004228999     1.007825032230
         H           -1.994519080398     2.197413385217    -0.000013228999     1.007825032230
         H           -1.873940080398    -2.025603614783     0.000017771001     1.007825032230
         H           -3.461861080398    -0.075977614783     0.000003771001     1.007825032230

  Basis Set: AUG-CC-PVTZ
    Blend: AUG-CC-PVTZ
  Basis Set: (AUG-CC-PVTZ AUX)
    Blend: AUG-CC-PVTZ-JKFIT
	 Reference Energy          =    -361.5607681236799067 [Eh]
	 Singles Energy            =      -0.0000000000000000 [Eh]
	 Same-Spin Energy          =      -0.4096495307584322 [Eh]
	 Opposite-Spin Energy      =      -1.2502862958404732 [Eh]
	 Correlation Energy        =      -1.6599358265989055 [Eh]
	 Total Energy              =    -363.2207039502787893 [Eh]

	 ================> DF-SCS-MP2 Energies <==================
	-----------------------------------------------------------
	 SCS Same-Spin Scale       =       0.3333333333333333 [-]
	 SCS Opposite-Spin Scale   =       1.2000000000000000 [-]
	 SCS Same-Spin Energy      =      -0.1365498435861441 [Eh]
	 SCS Opposite-Spin Energy  =      -1.5003435550085678 [Eh]
	 SCS Correlation Energy    =      -1.6368933985947118 [Eh]
	 SCS Total Energy          =    -363.1976615222746432 [Eh]
	-----------------------------------------------------------

  Dipole Moment: [D]
     X:    -1.6680      Y:    -1.4488      Z:     0.0000     Total:     2.2093

*** Psi4 exiting successfully. Buy a developer a beer!
