                               Psi4 1.3.2 release

  ==> Input File <==

--------------------------------------------------------------------------
#psi4
#
memory 32 gb

molecule  {
0 1
  N       -1.5631460    -1.0786450     0.0000020
  C        1.0358736     1.5119829     0.0000007
  C        2.1554110     0.6922200     0.0000020
  C        2.1326810    -0.7203310    -0.0000050
  C        0.9343870    -1.4220840     0.0000000
  C       -0.2481830    -0.6706930     0.0000000
  C       -0.2522510     0.7528300     0.0000150
  C       -1.6207120     1.1681210    -0.0000080
  C       -2.3885810     0.0265560    -0.0000050
  H        1.0121500     2.5200250     0.0000050
  H        3.1140070     1.2059840    -0.0000050
  H        3.0718340    -1.2688090    -0.0000050
  H        0.9183210    -2.5105470    -0.0000040
  H       -1.9975130     2.1830700    -0.0000130
  H       -1.8769340    -2.0399470     0.0000180
  H       -3.4648550    -0.0903210     0.0000040
units angstrom
no_reorient  #important for SAPT in psi4, default
symmetry c1  #important for SAPT in psi4, default
}

set PROPERTIES_ORIGIN ["COM"]
properties('MP2/aug-cc-pvtz', properties = ['dipole'])
--------------------------------------------------------------------------

    Molecular point group: c1
  Charge       = 0
  Multiplicity = 1
  Basis Set: AUG-CC-PVTZ
    Blend: AUG-CC-PVTZ
  Basis Set: (AUG-CC-PVTZ AUX)
    Blend: AUG-CC-PVTZ-JKFIT

    Orbital Energies [Eh]
    ---------------------

    Doubly Occupied:

       1A    -15.606181     2A    -11.271289     3A    -11.265382
       4A    -11.237242     5A    -11.234069     6A    -11.233306
       7A    -11.231167     8A    -11.225459     9A    -11.217367
      10A     -1.295064    11A     -1.122110    12A     -1.052636
      13A     -0.999481    14A     -0.970168    15A     -0.844094
      16A     -0.803113    17A     -0.783907    18A     -0.734913
      19A     -0.667157    20A     -0.644234    21A     -0.609412
      22A     -0.597424    23A     -0.582114    24A     -0.573905
      25A     -0.548067    26A     -0.497603    27A     -0.488013
      28A     -0.461501    29A     -0.380802    30A     -0.305332
      31A     -0.278774

  @DF-RHF Final Energy:  -361.57657117578498

   => Energetics <=

    Nuclear Repulsion Energy =            398.3404527117028238
    One-Electron Energy =               -1278.3114776662923759
    Two-Electron Energy =                 518.3944537788046318
    Total Energy =                       -361.5765711757849203
  Basis Set: (AUG-CC-PVTZ AUX)
    Blend: AUG-CC-PVTZ-RI
    Molecular point group: c1

    Geometry (in Angstrom), charge = 0, multiplicity = 1:

       Center              X                  Y                   Z               Mass
    ------------   -----------------  -----------------  -----------------  -----------------
         N           -1.562101629287    -1.086831787833     0.000001791504    14.003074004430
         C            1.036917970713     1.503796112167     0.000000491504    12.000000000000
         C            2.156455370713     0.684033212167     0.000001791504    12.000000000000
         C            2.133725370713    -0.728517787833    -0.000005208496    12.000000000000
         C            0.935431370713    -1.430270787833    -0.000000208496    12.000000000000
         C           -0.247138629287    -0.678879787833    -0.000000208496    12.000000000000
         C           -0.251206629287     0.744643212167     0.000014791504    12.000000000000
         C           -1.619667629287     1.159934212167    -0.000008208496    12.000000000000
         C           -2.387536629287     0.018369212167    -0.000005208496    12.000000000000
         H            1.013194370713     2.511838212167     0.000004791504     1.007825032230
         H            3.115051370713     1.197797212167    -0.000005208496     1.007825032230
         H            3.072878370713    -1.276995787833    -0.000005208496     1.007825032230
         H            0.919365370713    -2.518733787833    -0.000004208496     1.007825032230
         H           -1.996468629287     2.174883212167    -0.000013208496     1.007825032230
         H           -1.875889629287    -2.048133787833     0.000017791504     1.007825032230
         H           -3.463810629287    -0.098507787833     0.000003791504     1.007825032230

  Basis Set: AUG-CC-PVTZ
    Blend: AUG-CC-PVTZ
  Basis Set: (AUG-CC-PVTZ AUX)
    Blend: AUG-CC-PVTZ-JKFIT
	 Reference Energy          =    -361.5765711757849772 [Eh]
	 Singles Energy            =      -0.0000000000000000 [Eh]
	 Same-Spin Energy          =      -0.4079354878054360 [Eh]
	 Opposite-Spin Energy      =      -1.2489633635078725 [Eh]
	 Correlation Energy        =      -1.6568988513133085 [Eh]
	 Total Energy              =    -363.2334700270982921 [Eh]

	 ================> DF-SCS-MP2 Energies <==================
	-----------------------------------------------------------
	 SCS Same-Spin Scale       =       0.3333333333333333 [-]
	 SCS Opposite-Spin Scale   =       1.2000000000000000 [-]
	 SCS Same-Spin Energy      =      -0.1359784959351453 [Eh]
	 SCS Opposite-Spin Energy  =      -1.4987560362094470 [Eh]
	 SCS Correlation Energy    =      -1.6347345321445923 [Eh]
	 SCS Total Energy          =    -363.2113057079295686 [Eh]
	-----------------------------------------------------------

  Dipole Moment: [D]
     X:    -1.4424      Y:    -1.5239      Z:     0.0000     Total:     2.0983

*** Psi4 exiting successfully. Buy a developer a beer!
