                               Psi4 1.3.2 release

  ==> Input File <==

--------------------------------------------------------------------------
#psi4
#
memory 32 gb

molecule  {
0 1
  N       -1.5631460    -1.0786450     0.0000020
  C        0.9814170     1.4318910     0.0000000
  C        2.0076347     0.6868578     0.0000030
  C        2.1326810    -0.7203310    -0.0000050
  C        0.9343870    -1.4220840     0.0000000
  C       -0.2481830    -0.6706930     0.0000000
  C       -0.2522510     0.7528300     0.0000150
  C       -1.6207120     1.1681210    -0.0000080
  C       -2.3885810     0.0265560    -0.0000050
  H        1.0121500     2.5200250     0.0000050
  H        3.1140070     1.2059840    -0.0000050
  H        3.0718340    -1.2688090    -0.0000050
  H        0.9183210    -2.5105470    -0.0000040
  H       -1.9975130     2.1830700    -0.0000130
  H       -1.8769340    -2.0399470     0.0000180
  H       -3.4648550    -0.0903210     0.0000040
units angstrom
no_reorient  #important for SAPT in psi4, default
symmetry c1  #important for SAPT in psi4, default
}

set PROPERTIES_ORIGIN ["COM"]
properties('MP2/aug-cc-pvtz', properties = ['dipole'])
--------------------------------------------------------------------------

    Molecular point group: c1
  Charge       = 0
  Multiplicity = 1
  Basis Set: AUG-CC-PVTZ
    Blend: AUG-CC-PVTZ
  Basis Set: (AUG-CC-PVTZ AUX)
    Blend: AUG-CC-PVTZ-JKFIT

    Orbital Energies [Eh]
    ---------------------

    Doubly Occupied:

       1A    -15.606304     2A    -11.271386     3A    -11.263128
       4A    -11.236270     5A    -11.230892     6A    -11.225682
       7A    -11.221064     8A    -11.217323     9A    -11.215421
      10A     -1.295372    11A     -1.145113    12A     -1.056867
      13A     -1.008170    14A     -0.975014    15A     -0.837394
      16A     -0.808754    17A     -0.786045    18A     -0.731344
      19A     -0.662581    20A     -0.632828    21A     -0.614585
      22A     -0.598030    23A     -0.584845    24A     -0.573918
      25A     -0.554286    26A     -0.500596    27A     -0.478218
      28A     -0.456109    29A     -0.387097    30A     -0.310223
      31A     -0.282712

  @DF-RHF Final Energy:  -361.56032835623330

   => Energetics <=

    Nuclear Repulsion Energy =            402.6785692342219249
    One-Electron Energy =               -1286.9426567850168794
    Two-Electron Energy =                 522.7037591945617123
    Total Energy =                       -361.5603283562332990
  Basis Set: (AUG-CC-PVTZ AUX)
    Blend: AUG-CC-PVTZ-RI
    Molecular point group: c1

    Geometry (in Angstrom), charge = 0, multiplicity = 1:

       Center              X                  Y                   Z               Mass
    ------------   -----------------  -----------------  -----------------  -----------------
         N           -1.541370043871    -1.078071596127     0.000001760750    14.003074004430
         C            1.003192956129     1.432464403873    -0.000000239250    12.000000000000
         C            2.029410656129     0.687431203873     0.000002760750    12.000000000000
         C            2.154456956129    -0.719757596127    -0.000005239250    12.000000000000
         C            0.956162956129    -1.421510596127    -0.000000239250    12.000000000000
         C           -0.226407043871    -0.670119596127    -0.000000239250    12.000000000000
         C           -0.230475043871     0.753403403873     0.000014760750    12.000000000000
         C           -1.598936043871     1.168694403873    -0.000008239250    12.000000000000
         C           -2.366805043871     0.027129403873    -0.000005239250    12.000000000000
         H            1.033925956129     2.520598403873     0.000004760750     1.007825032230
         H            3.135782956129     1.206557403873    -0.000005239250     1.007825032230
         H            3.093609956129    -1.268235596127    -0.000005239250     1.007825032230
         H            0.940096956129    -2.509973596127    -0.000004239250     1.007825032230
         H           -1.975737043871     2.183643403873    -0.000013239250     1.007825032230
         H           -1.855158043871    -2.039373596127     0.000017760750     1.007825032230
         H           -3.443079043871    -0.089747596127     0.000003760750     1.007825032230

  Basis Set: AUG-CC-PVTZ
    Blend: AUG-CC-PVTZ
  Basis Set: (AUG-CC-PVTZ AUX)
    Blend: AUG-CC-PVTZ-JKFIT
	 Reference Energy          =    -361.5603283562332990 [Eh]
	 Singles Energy            =      -0.0000000000000000 [Eh]
	 Same-Spin Energy          =      -0.4083984670379338 [Eh]
	 Opposite-Spin Energy      =      -1.2487700108934354 [Eh]
	 Correlation Energy        =      -1.6571684779313691 [Eh]
	 Total Energy              =    -363.2174968341646490 [Eh]

	 ================> DF-SCS-MP2 Energies <==================
	-----------------------------------------------------------
	 SCS Same-Spin Scale       =       0.3333333333333333 [-]
	 SCS Opposite-Spin Scale   =       1.2000000000000000 [-]
	 SCS Same-Spin Energy      =      -0.1361328223459779 [Eh]
	 SCS Opposite-Spin Energy  =      -1.4985240130721225 [Eh]
	 SCS Correlation Energy    =      -1.6346568354181004 [Eh]
	 SCS Total Energy          =    -363.1949851916514262 [Eh]
	-----------------------------------------------------------

  Dipole Moment: [D]
     X:    -1.4964      Y:    -1.6091      Z:     0.0000     Total:     2.1974

*** Psi4 exiting successfully. Buy a developer a beer!
