                               Psi4 1.3.2 release

  ==> Input File <==

--------------------------------------------------------------------------
#psi4
#
memory 32 gb

molecule  {
0 1
  N       -1.5631460    -1.0786450     0.0000020
  C        1.0257807     1.3441805    -0.0000017
  C        2.1554110     0.6922200     0.0000020
  C        2.1326810    -0.7203310    -0.0000050
  C        0.9343870    -1.4220840     0.0000000
  C       -0.2481830    -0.6706930     0.0000000
  C       -0.2522510     0.7528300     0.0000150
  C       -1.6207120     1.1681210    -0.0000080
  C       -2.3885810     0.0265560    -0.0000050
  H        1.0121500     2.5200250     0.0000050
  H        3.1140070     1.2059840    -0.0000050
  H        3.0718340    -1.2688090    -0.0000050
  H        0.9183210    -2.5105470    -0.0000040
  H       -1.9975130     2.1830700    -0.0000130
  H       -1.8769340    -2.0399470     0.0000180
  H       -3.4648550    -0.0903210     0.0000040
units angstrom
no_reorient  #important for SAPT in psi4, default
symmetry c1  #important for SAPT in psi4, default
}

set PROPERTIES_ORIGIN ["COM"]
properties('MP2/aug-cc-pvtz', properties = ['dipole'])
--------------------------------------------------------------------------

    Molecular point group: c1
  Charge       = 0
  Multiplicity = 1
  Basis Set: AUG-CC-PVTZ
    Blend: AUG-CC-PVTZ
  Basis Set: (AUG-CC-PVTZ AUX)
    Blend: AUG-CC-PVTZ-JKFIT

    Orbital Energies [Eh]
    ---------------------

    Doubly Occupied:

       1A    -15.606603     2A    -11.273051     3A    -11.265344
       4A    -11.233400     5A    -11.230605     6A    -11.229071
       7A    -11.225791     8A    -11.221409     9A    -11.212700
      10A     -1.296311    11A     -1.138823    12A     -1.054893
      13A     -1.007033    14A     -0.973821    15A     -0.838023
      16A     -0.809991    17A     -0.791944    18A     -0.721458
      19A     -0.660469    20A     -0.655158    21A     -0.603161
      22A     -0.584763    23A     -0.583499    24A     -0.575331
      25A     -0.549082    26A     -0.518554    27A     -0.473583
      28A     -0.462464    29A     -0.385824    30A     -0.309951
      31A     -0.282739

  @DF-RHF Final Energy:  -361.57687504322189

   => Energetics <=

    Nuclear Repulsion Energy =            401.3706084819247053
    One-Electron Energy =               -1284.3452635050684876
    Two-Electron Energy =                 521.3977799799218928
    Total Energy =                       -361.5768750432218894
  Basis Set: (AUG-CC-PVTZ AUX)
    Blend: AUG-CC-PVTZ-RI
    Molecular point group: c1

    Geometry (in Angstrom), charge = 0, multiplicity = 1:

       Center              X                  Y                   Z               Mass
    ------------   -----------------  -----------------  -----------------  -----------------
         N           -1.561066971630    -1.069629790588     0.000002037536    14.003074004430
         C            1.027859728370     1.353195709412    -0.000001662464    12.000000000000
         C            2.157490028370     0.701235209412     0.000002037536    12.000000000000
         C            2.134760028370    -0.711315790588    -0.000004962464    12.000000000000
         C            0.936466028370    -1.413068790588     0.000000037536    12.000000000000
         C           -0.246103971630    -0.661677790588     0.000000037536    12.000000000000
         C           -0.250171971630     0.761845209412     0.000015037536    12.000000000000
         C           -1.618632971630     1.177136209412    -0.000007962464    12.000000000000
         C           -2.386501971630     0.035571209412    -0.000004962464    12.000000000000
         H            1.014229028370     2.529040209412     0.000005037536     1.007825032230
         H            3.116086028370     1.214999209412    -0.000004962464     1.007825032230
         H            3.073913028370    -1.259793790588    -0.000004962464     1.007825032230
         H            0.920400028370    -2.501531790588    -0.000003962464     1.007825032230
         H           -1.995433971630     2.192085209412    -0.000012962464     1.007825032230
         H           -1.874854971630    -2.030931790588     0.000018037536     1.007825032230
         H           -3.462775971630    -0.081305790588     0.000004037536     1.007825032230

  Basis Set: AUG-CC-PVTZ
    Blend: AUG-CC-PVTZ
  Basis Set: (AUG-CC-PVTZ AUX)
    Blend: AUG-CC-PVTZ-JKFIT
	 Reference Energy          =    -361.5768750432218894 [Eh]
	 Singles Energy            =      -0.0000000000000000 [Eh]
	 Same-Spin Energy          =      -0.4080289993875023 [Eh]
	 Opposite-Spin Energy      =      -1.2478278816707378 [Eh]
	 Correlation Energy        =      -1.6558568810582401 [Eh]
	 Total Energy              =    -363.2327319242801309 [Eh]

	 ================> DF-SCS-MP2 Energies <==================
	-----------------------------------------------------------
	 SCS Same-Spin Scale       =       0.3333333333333333 [-]
	 SCS Opposite-Spin Scale   =       1.2000000000000000 [-]
	 SCS Same-Spin Energy      =      -0.1360096664625007 [Eh]
	 SCS Opposite-Spin Energy  =      -1.4973934580048853 [Eh]
	 SCS Correlation Energy    =      -1.6334031244673861 [Eh]
	 SCS Total Energy          =    -363.2102781676892960 [Eh]
	-----------------------------------------------------------

  Dipole Moment: [D]
     X:    -1.4873      Y:    -1.6190      Z:     0.0000     Total:     2.1985

*** Psi4 exiting successfully. Buy a developer a beer!
