                               Psi4 1.4a3.dev225

  ==> Input File <==

--------------------------------------------------------------------------
#psi4
#
memory 32 gb

molecule  {
0 1
  N       -1.5630850    -1.0784890    -0.0000040
  C        0.9811620     1.4317850    -0.0000050
  C        2.1553110     0.6923450     0.0000000
  C        2.1328040    -0.7200770     0.0000000
  C        0.9346070    -1.4219960     0.0000040
  C       -0.2479390    -0.6706250     0.0000000
  C       -0.2522910     0.7524290     0.0000030
  C       -1.6208000     1.1677860     0.0000050
  C       -2.3888340     0.0267020    -0.0000020
  H        1.0113780     2.5197500    -0.0000020
  H        3.1138040     1.2059540    -0.0000050
  H        3.0720020    -1.2682500     0.0000030
  H        0.9196159    -2.4602372     0.0000021
  H       -1.9966350     2.1828910     0.0000100
  H       -1.8770410    -2.0396260     0.0000000
  H       -3.4649170    -0.0911630    -0.0000050
units angstrom
no_reorient  #important for SAPT in psi4, default
symmetry c1  #important for SAPT in psi4, default
}

set PROPERTIES_ORIGIN ["COM"]
properties('MP2/aug-cc-pvtz', properties = ['dipole'])
--------------------------------------------------------------------------

    Molecular point group: c1
  Charge       = 0
  Multiplicity = 1
  Basis Set: AUG-CC-PVTZ
    Blend: AUG-CC-PVTZ
  Basis Set: (AUG-CC-PVTZ AUX)
    Blend: AUG-CC-PVTZ-JKFIT

    Orbital Energies [Eh]
    ---------------------

    Doubly Occupied:

       1A    -15.605545     2A    -11.272999     3A    -11.266612
       4A    -11.231504     5A    -11.230241     6A    -11.227276
       7A    -11.226834     8A    -11.222020     9A    -11.218624
      10A     -1.296096    11A     -1.128520    12A     -1.056557
      13A     -0.997124    14A     -0.974534    15A     -0.844317
      16A     -0.805990    17A     -0.789077    18A     -0.729698
      19A     -0.663917    20A     -0.649041    21A     -0.602376
      22A     -0.599016    23A     -0.583854    24A     -0.574283
      25A     -0.549758    26A     -0.507526    27A     -0.484451
      28A     -0.464659    29A     -0.385843    30A     -0.301287
      31A     -0.282871

  @DF-RHF Final Energy:  -361.58858508709920

   => Energetics <=

    Nuclear Repulsion Energy =            400.2854292598141797
    One-Electron Energy =               -1282.2031257068988452
    Two-Electron Energy =                 520.3291113599854043
    Total Energy =                       -361.5885850870992044
  Basis Set: (AUG-CC-PVTZ AUX)
    Blend: AUG-CC-PVTZ-RI
    Molecular point group: c1

    Geometry (in Angstrom), charge = 0, multiplicity = 1:

       Center              X                  Y                   Z               Mass
    ------------   -----------------  -----------------  -----------------  -----------------
         N           -1.556460424705    -1.078896759425    -0.000004060756    14.003074004430
         C            0.987786575295     1.431377240575    -0.000005060756    12.000000000000
         C            2.161935575295     0.691937240575    -0.000000060756    12.000000000000
         C            2.139428575295    -0.720484759425    -0.000000060756    12.000000000000
         C            0.941231575295    -1.422403759425     0.000003939244    12.000000000000
         C           -0.241314424705    -0.671032759425    -0.000000060756    12.000000000000
         C           -0.245666424705     0.752021240575     0.000002939244    12.000000000000
         C           -1.614175424705     1.167378240575     0.000004939244    12.000000000000
         C           -2.382209424705     0.026294240575    -0.000002060756    12.000000000000
         H            1.018002575295     2.519342240575    -0.000002060756     1.007825032230
         H            3.120428575295     1.205546240575    -0.000005060756     1.007825032230
         H            3.078626575295    -1.268657759425     0.000002939244     1.007825032230
         H            0.926240475295    -2.460644959425     0.000002039244     1.007825032230
         H           -1.990010424705     2.182483240575     0.000009939244     1.007825032230
         H           -1.870416424705    -2.040033759425    -0.000000060756     1.007825032230
         H           -3.458292424705    -0.091570759425    -0.000005060756     1.007825032230

  Basis Set: AUG-CC-PVTZ
    Blend: AUG-CC-PVTZ
  Basis Set: (AUG-CC-PVTZ AUX)
    Blend: AUG-CC-PVTZ-JKFIT
	 Reference Energy          =    -361.5885850870992044 [Eh]
	 Singles Energy            =      -0.0000000000000000 [Eh]
	 Same-Spin Energy          =      -0.4078707415254708 [Eh]
	 Opposite-Spin Energy      =      -1.2475513462744197 [Eh]
	 Correlation Energy        =      -1.6554220877998904 [Eh]
	 Total Energy              =    -363.2440071748990817 [Eh]

	 ================> DF-SCS-MP2 Energies <==================
	-----------------------------------------------------------
	 SCS Same-Spin Scale       =       0.3333333333333333 [-]
	 SCS Opposite-Spin Scale   =       1.2000000000000000 [-]
	 SCS Same-Spin Energy      =      -0.1359569138418236 [Eh]
	 SCS Opposite-Spin Energy  =      -1.4970616155293035 [Eh]
	 SCS Correlation Energy    =      -1.6330185293711270 [Eh]
	 SCS Total Energy          =    -363.2216036164703041 [Eh]
	-----------------------------------------------------------

  Dipole Moment: [D]
     X:    -1.4830      Y:    -1.5637      Z:     0.0000     Total:     2.1551

*** Psi4 exiting successfully. Buy a developer a beer!
