                               Psi4 1.3.2 release

  ==> Input File <==

--------------------------------------------------------------------------
#psi4
#
memory 32 gb

molecule  {
0 1
  N       -1.5631460    -1.0786450     0.0000020
  C        0.9814170     1.4318910     0.0000000
  C        2.1554110     0.6922200     0.0000020
  C        2.1326810    -0.7203310    -0.0000050
  C        0.9343870    -1.4220840     0.0000000
  C       -0.2481830    -0.6706930     0.0000000
  C       -0.2845537     0.6583826     0.0000157
  C       -1.6207120     1.1681210    -0.0000080
  C       -2.3885810     0.0265560    -0.0000050
  H        1.0121500     2.5200250     0.0000050
  H        3.1140070     1.2059840    -0.0000050
  H        3.0718340    -1.2688090    -0.0000050
  H        0.9183210    -2.5105470    -0.0000040
  H       -1.9975130     2.1830700    -0.0000130
  H       -1.8769340    -2.0399470     0.0000180
  H       -3.4648550    -0.0903210     0.0000040
units angstrom
no_reorient  #important for SAPT in psi4, default
symmetry c1  #important for SAPT in psi4, default
}

set PROPERTIES_ORIGIN ["COM"]
properties('MP2/aug-cc-pvtz', properties = ['dipole'])
--------------------------------------------------------------------------

    Molecular point group: c1
  Charge       = 0
  Multiplicity = 1
  Basis Set: AUG-CC-PVTZ
    Blend: AUG-CC-PVTZ
  Basis Set: (AUG-CC-PVTZ AUX)
    Blend: AUG-CC-PVTZ-JKFIT

    Orbital Energies [Eh]
    ---------------------

    Doubly Occupied:

       1A    -15.600964     2A    -11.270272     3A    -11.254190
       4A    -11.238176     5A    -11.235899     6A    -11.231130
       7A    -11.223436     8A    -11.221682     9A    -11.215965
      10A     -1.300742    11A     -1.127766    12A     -1.053480
      13A     -1.002783    14A     -0.970872    15A     -0.843433
      16A     -0.801255    17A     -0.787912    18A     -0.729564
      19A     -0.657900    20A     -0.646733    21A     -0.602209
      22A     -0.592108    23A     -0.588170    24A     -0.579350
      25A     -0.548048    26A     -0.497858    27A     -0.492146
      28A     -0.462709    29A     -0.376698    30A     -0.311977
      31A     -0.282210

  @DF-RHF Final Energy:  -361.57808853627790

   => Energetics <=

    Nuclear Repulsion Energy =            401.0599110971538153
    One-Electron Energy =               -1283.7807210455991935
    Two-Electron Energy =                 521.1427214121674751
    Total Energy =                       -361.5780885362778463
  Basis Set: (AUG-CC-PVTZ AUX)
    Blend: AUG-CC-PVTZ-RI
    Molecular point group: c1

    Geometry (in Angstrom), charge = 0, multiplicity = 1:

       Center              X                  Y                   Z               Mass
    ------------   -----------------  -----------------  -----------------  -----------------
         N           -1.553207637070    -1.068939167955     0.000001791504    14.003074004430
         C            0.991355362930     1.441596832045    -0.000000208496    12.000000000000
         C            2.165349362930     0.701925832045     0.000001791504    12.000000000000
         C            2.142619362930    -0.710625167955    -0.000005208496    12.000000000000
         C            0.944325362930    -1.412378167955    -0.000000208496    12.000000000000
         C           -0.238244637070    -0.660987167955    -0.000000208496    12.000000000000
         C           -0.274615337070     0.668088432045     0.000015491504    12.000000000000
         C           -1.610773637070     1.177826832045    -0.000008208496    12.000000000000
         C           -2.378642637070     0.036261832045    -0.000005208496    12.000000000000
         H            1.022088362930     2.529730832045     0.000004791504     1.007825032230
         H            3.123945362930     1.215689832045    -0.000005208496     1.007825032230
         H            3.081772362930    -1.259103167955    -0.000005208496     1.007825032230
         H            0.928259362930    -2.500841167955    -0.000004208496     1.007825032230
         H           -1.987574637070     2.192775832045    -0.000013208496     1.007825032230
         H           -1.866995637070    -2.030241167955     0.000017791504     1.007825032230
         H           -3.454916637070    -0.080615167955     0.000003791504     1.007825032230

  Basis Set: AUG-CC-PVTZ
    Blend: AUG-CC-PVTZ
  Basis Set: (AUG-CC-PVTZ AUX)
    Blend: AUG-CC-PVTZ-JKFIT
	 Reference Energy          =    -361.5780885362779031 [Eh]
	 Singles Energy            =      -0.0000000000000000 [Eh]
	 Same-Spin Energy          =      -0.4069871566265036 [Eh]
	 Opposite-Spin Energy      =      -1.2477079966068247 [Eh]
	 Correlation Energy        =      -1.6546951532333285 [Eh]
	 Total Energy              =    -363.2327836895112227 [Eh]

	 ================> DF-SCS-MP2 Energies <==================
	-----------------------------------------------------------
	 SCS Same-Spin Scale       =       0.3333333333333333 [-]
	 SCS Opposite-Spin Scale   =       1.2000000000000000 [-]
	 SCS Same-Spin Energy      =      -0.1356623855421679 [Eh]
	 SCS Opposite-Spin Energy  =      -1.4972495959281897 [Eh]
	 SCS Correlation Energy    =      -1.6329119814703577 [Eh]
	 SCS Total Energy          =    -363.2110005177482890 [Eh]
	-----------------------------------------------------------

  Dipole Moment: [D]
     X:    -1.3434      Y:    -1.4566      Z:     0.0000     Total:     1.9815

*** Psi4 exiting successfully. Buy a developer a beer!
