                               Psi4 1.3.2 release

  ==> Input File <==

--------------------------------------------------------------------------
#psi4
#
memory 32 gb

molecule  {
0 1
  N       -1.5631460    -1.0786450     0.0000020
  C        0.9814170     1.4318910     0.0000000
  C        2.1554110     0.6922200     0.0000020
  C        2.1074602    -0.6789386    -0.0000051
  C        0.9343870    -1.4220840     0.0000000
  C       -0.2481830    -0.6706930     0.0000000
  C       -0.2522510     0.7528300     0.0000150
  C       -1.6207120     1.1681210    -0.0000080
  C       -2.3885810     0.0265560    -0.0000050
  H        1.0121500     2.5200250     0.0000050
  H        3.1140070     1.2059840    -0.0000050
  H        3.0718340    -1.2688090    -0.0000050
  H        0.9183210    -2.5105470    -0.0000040
  H       -1.9975130     2.1830700    -0.0000130
  H       -1.8769340    -2.0399470     0.0000180
  H       -3.4648550    -0.0903210     0.0000040
units angstrom
no_reorient  #important for SAPT in psi4, default
symmetry c1  #important for SAPT in psi4, default
}

set PROPERTIES_ORIGIN ["COM"]
properties('MP2/aug-cc-pvtz', properties = ['dipole'])
--------------------------------------------------------------------------

    Molecular point group: c1
  Charge       = 0
  Multiplicity = 1
  Basis Set: AUG-CC-PVTZ
    Blend: AUG-CC-PVTZ
  Basis Set: (AUG-CC-PVTZ AUX)
    Blend: AUG-CC-PVTZ-JKFIT

    Orbital Energies [Eh]
    ---------------------

    Doubly Occupied:

       1A    -15.604729     2A    -11.273305     3A    -11.267418
       4A    -11.232567     5A    -11.231978     6A    -11.229631
       7A    -11.227190     8A    -11.218769     9A    -11.218124
      10A     -1.296209    11A     -1.133105    12A     -1.056032
      13A     -0.999923    14A     -0.973256    15A     -0.845381
      16A     -0.803278    17A     -0.788084    18A     -0.727352
      19A     -0.658946    20A     -0.647552    21A     -0.602812
      22A     -0.597788    23A     -0.584179    24A     -0.576325
      25A     -0.544852    26A     -0.503313    27A     -0.483020
      28A     -0.468902    29A     -0.386023    30A     -0.304110
      31A     -0.282119

  @DF-RHF Final Energy:  -361.58635670337276

   => Energetics <=

    Nuclear Repulsion Energy =            400.7777555540192225
    One-Electron Energy =               -1283.1956783985012862
    Two-Electron Energy =                 520.8315661411093060
    Total Energy =                       -361.5863567033727577
  Basis Set: (AUG-CC-PVTZ AUX)
    Blend: AUG-CC-PVTZ-RI
    Molecular point group: c1

    Geometry (in Angstrom), charge = 0, multiplicity = 1:

       Center              X                  Y                   Z               Mass
    ------------   -----------------  -----------------  -----------------  -----------------
         N           -1.553933626831    -1.082864569889     0.000001873514    14.003074004430
         C            0.990629373169     1.427671430111    -0.000000126486    12.000000000000
         C            2.164623373169     0.688000430111     0.000001873514    12.000000000000
         C            2.116672573169    -0.683158169889    -0.000005226486    12.000000000000
         C            0.943599373169    -1.426303569889    -0.000000126486    12.000000000000
         C           -0.238970626831    -0.674912569889    -0.000000126486    12.000000000000
         C           -0.243038626831     0.748610430111     0.000014873514    12.000000000000
         C           -1.611499626831     1.163901430111    -0.000008126486    12.000000000000
         C           -2.379368626831     0.022336430111    -0.000005126486    12.000000000000
         H            1.021362373169     2.515805430111     0.000004873514     1.007825032230
         H            3.123219373169     1.201764430111    -0.000005126486     1.007825032230
         H            3.081046373169    -1.273028569889    -0.000005126486     1.007825032230
         H            0.927533373169    -2.514766569889    -0.000004126486     1.007825032230
         H           -1.988300626831     2.178850430111    -0.000013126486     1.007825032230
         H           -1.867721626831    -2.044166569889     0.000017873514     1.007825032230
         H           -3.455642626831    -0.094540569889     0.000003873514     1.007825032230

  Basis Set: AUG-CC-PVTZ
    Blend: AUG-CC-PVTZ
  Basis Set: (AUG-CC-PVTZ AUX)
    Blend: AUG-CC-PVTZ-JKFIT
	 Reference Energy          =    -361.5863567033727577 [Eh]
	 Singles Energy            =      -0.0000000000000000 [Eh]
	 Same-Spin Energy          =      -0.4081426696612921 [Eh]
	 Opposite-Spin Energy      =      -1.2478998925292886 [Eh]
	 Correlation Energy        =      -1.6560425621905805 [Eh]
	 Total Energy              =    -363.2423992655633356 [Eh]

	 ================> DF-SCS-MP2 Energies <==================
	-----------------------------------------------------------
	 SCS Same-Spin Scale       =       0.3333333333333333 [-]
	 SCS Opposite-Spin Scale   =       1.2000000000000000 [-]
	 SCS Same-Spin Energy      =      -0.1360475565537640 [Eh]
	 SCS Opposite-Spin Energy  =      -1.4974798710351462 [Eh]
	 SCS Correlation Energy    =      -1.6335274275889102 [Eh]
	 SCS Total Energy          =    -363.2198841309616455 [Eh]
	-----------------------------------------------------------

  Dipole Moment: [D]
     X:    -1.4948      Y:    -1.5344      Z:     0.0000     Total:     2.1422

*** Psi4 exiting successfully. Buy a developer a beer!
