                               Psi4 1.3.2 release

  ==> Input File <==

--------------------------------------------------------------------------
#psi4
#
memory 32 gb

molecule  {
0 1
  N       -1.5631460    -1.0786450     0.0000020
  C        0.9814170     1.4318910     0.0000000
  C        2.1554110     0.6922200     0.0000020
  C        2.1326810    -0.7203310    -0.0000050
  C        0.9343870    -1.4220840     0.0000000
  C       -0.2481830    -0.6706930     0.0000000
  C       -0.2385912     0.8008416     0.0000146
  C       -1.6207120     1.1681210    -0.0000080
  C       -2.3885810     0.0265560    -0.0000050
  H        1.0121500     2.5200250     0.0000050
  H        3.1140070     1.2059840    -0.0000050
  H        3.0718340    -1.2688090    -0.0000050
  H        0.9183210    -2.5105470    -0.0000040
  H       -1.9975130     2.1830700    -0.0000130
  H       -1.8769340    -2.0399470     0.0000180
  H       -3.4648550    -0.0903210     0.0000040
units angstrom
no_reorient  #important for SAPT in psi4, default
symmetry c1  #important for SAPT in psi4, default
}

set PROPERTIES_ORIGIN ["COM"]
properties('MP2/aug-cc-pvtz', properties = ['dipole'])
--------------------------------------------------------------------------

    Molecular point group: c1
  Charge       = 0
  Multiplicity = 1
  Basis Set: AUG-CC-PVTZ
    Blend: AUG-CC-PVTZ
  Basis Set: (AUG-CC-PVTZ AUX)
    Blend: AUG-CC-PVTZ-JKFIT

    Orbital Energies [Eh]
    ---------------------

    Doubly Occupied:

       1A    -15.607772     2A    -11.274958     3A    -11.272597
       4A    -11.232353     5A    -11.230278     6A    -11.230102
       7A    -11.227848     8A    -11.221827     9A    -11.220522
      10A     -1.294790    11A     -1.129086    12A     -1.057479
      13A     -0.994405    14A     -0.975857    15A     -0.842649
      16A     -0.809109    17A     -0.787386    18A     -0.725943
      19A     -0.664572    20A     -0.647865    21A     -0.601733
      22A     -0.596119    23A     -0.582575    24A     -0.574355
      25A     -0.549257    26A     -0.512858    27A     -0.472924
      28A     -0.466251    29A     -0.390798    30A     -0.297260
      31A     -0.283622

  @DF-RHF Final Energy:  -361.58518723123024

   => Energetics <=

    Nuclear Repulsion Energy =            399.5094962746317151
    One-Electron Energy =               -1280.6390647012763111
    Two-Electron Energy =                 519.5443811954143030
    Total Energy =                       -361.5851872312302930
  Basis Set: (AUG-CC-PVTZ AUX)
    Blend: AUG-CC-PVTZ-RI
    Molecular point group: c1

    Geometry (in Angstrom), charge = 0, multiplicity = 1:

       Center              X                  Y                   Z               Mass
    ------------   -----------------  -----------------  -----------------  -----------------
         N           -1.557919409955    -1.083543126692     0.000001904268    14.003074004430
         C            0.986643590045     1.426992873308    -0.000000095732    12.000000000000
         C            2.160637590045     0.687321873308     0.000001904268    12.000000000000
         C            2.137907590045    -0.725229126692    -0.000005095732    12.000000000000
         C            0.939613590045    -1.426982126692    -0.000000095732    12.000000000000
         C           -0.242956409955    -0.675591126692    -0.000000095732    12.000000000000
         C           -0.233364609955     0.795943473308     0.000014504268    12.000000000000
         C           -1.615485409955     1.163222873308    -0.000008095732    12.000000000000
         C           -2.383354409955     0.021657873308    -0.000005095732    12.000000000000
         H            1.017376590045     2.515126873308     0.000004904268     1.007825032230
         H            3.119233590045     1.201085873308    -0.000005095732     1.007825032230
         H            3.077060590045    -1.273707126692    -0.000005095732     1.007825032230
         H            0.923547590045    -2.515445126692    -0.000004095732     1.007825032230
         H           -1.992286409955     2.178171873308    -0.000013095732     1.007825032230
         H           -1.871707409955    -2.044845126692     0.000017904268     1.007825032230
         H           -3.459628409955    -0.095219126692     0.000003904268     1.007825032230

  Basis Set: AUG-CC-PVTZ
    Blend: AUG-CC-PVTZ
  Basis Set: (AUG-CC-PVTZ AUX)
    Blend: AUG-CC-PVTZ-JKFIT
	 Reference Energy          =    -361.5851872312302362 [Eh]
	 Singles Energy            =      -0.0000000000000000 [Eh]
	 Same-Spin Energy          =      -0.4084581942103723 [Eh]
	 Opposite-Spin Energy      =      -1.2483490745479642 [Eh]
	 Correlation Energy        =      -1.6568072687583366 [Eh]
	 Total Energy              =    -363.2419944999885502 [Eh]

	 ================> DF-SCS-MP2 Energies <==================
	-----------------------------------------------------------
	 SCS Same-Spin Scale       =       0.3333333333333333 [-]
	 SCS Opposite-Spin Scale   =       1.2000000000000000 [-]
	 SCS Same-Spin Energy      =      -0.1361527314034574 [Eh]
	 SCS Opposite-Spin Energy  =      -1.4980188894575570 [Eh]
	 SCS Correlation Energy    =      -1.6341716208610144 [Eh]
	 SCS Total Energy          =    -363.2193588520912613 [Eh]
	-----------------------------------------------------------

  Dipole Moment: [D]
     X:    -1.5429      Y:    -1.5919      Z:     0.0000     Total:     2.2169

*** Psi4 exiting successfully. Buy a developer a beer!
