                               Psi4 1.3.2 release

  ==> Input File <==

--------------------------------------------------------------------------
#psi4
#
memory 32 gb

molecule  {
0 1
  N       -1.5631460    -1.0786450     0.0000020
  C        0.9945048     1.4522674     0.0000002
  C        2.1554110     0.6922200     0.0000020
  C        2.1326810    -0.7203310    -0.0000050
  C        0.9343870    -1.4220840     0.0000000
  C       -0.2481830    -0.6706930     0.0000000
  C       -0.2522510     0.7528300     0.0000150
  C       -1.6207120     1.1681210    -0.0000080
  C       -2.3885810     0.0265560    -0.0000050
  H        1.0121500     2.5200250     0.0000050
  H        3.1140070     1.2059840    -0.0000050
  H        3.0718340    -1.2688090    -0.0000050
  H        0.9183210    -2.5105470    -0.0000040
  H       -1.9975130     2.1830700    -0.0000130
  H       -1.8769340    -2.0399470     0.0000180
  H       -3.4648550    -0.0903210     0.0000040
units angstrom
no_reorient  #important for SAPT in psi4, default
symmetry c1  #important for SAPT in psi4, default
}

set PROPERTIES_ORIGIN ["COM"]
properties('MP2/aug-cc-pvtz', properties = ['dipole'])
--------------------------------------------------------------------------

    Molecular point group: c1
  Charge       = 0
  Multiplicity = 1
  Basis Set: AUG-CC-PVTZ
    Blend: AUG-CC-PVTZ
  Basis Set: (AUG-CC-PVTZ AUX)
    Blend: AUG-CC-PVTZ-JKFIT

    Orbital Energies [Eh]
    ---------------------

    Doubly Occupied:

       1A    -15.605814     2A    -11.272660     3A    -11.266653
       4A    -11.234450     5A    -11.232168     6A    -11.230562
       7A    -11.228957     8A    -11.223035     9A    -11.218432
      10A     -1.295927    11A     -1.126630    12A     -1.055100
      13A     -0.997161    14A     -0.973103    15A     -0.842270
      16A     -0.805384    17A     -0.787415    18A     -0.729037
      19A     -0.662659    20A     -0.646471    21A     -0.602365
      22A     -0.597457    23A     -0.583496    24A     -0.574236
      25A     -0.549439    26A     -0.503953    27A     -0.486275
      28A     -0.463911    29A     -0.384689    30A     -0.302379
      31A     -0.281886

  @DF-RHF Final Energy:  -361.58835261671328

   => Energetics <=

    Nuclear Repulsion Energy =            399.5753221604126111
    One-Electron Energy =               -1280.7994063102778455
    Two-Electron Energy =                 519.6357315331518976
    Total Energy =                       -361.5883526167133368
  Basis Set: (AUG-CC-PVTZ AUX)
    Blend: AUG-CC-PVTZ-RI
    Molecular point group: c1

    Geometry (in Angstrom), charge = 0, multiplicity = 1:

       Center              X                  Y                   Z               Mass
    ------------   -----------------  -----------------  -----------------  -----------------
         N           -1.557860772281    -1.080710147937     0.000001842760    14.003074004430
         C            0.999790027719     1.450202252063     0.000000042760    12.000000000000
         C            2.160696227719     0.690154852063     0.000001842760    12.000000000000
         C            2.137966227719    -0.722396147937    -0.000005157240    12.000000000000
         C            0.939672227719    -1.424149147937    -0.000000157240    12.000000000000
         C           -0.242897772281    -0.672758147937    -0.000000157240    12.000000000000
         C           -0.246965772281     0.750764852063     0.000014842760    12.000000000000
         C           -1.615426772281     1.166055852063    -0.000008157240    12.000000000000
         C           -2.383295772281     0.024490852063    -0.000005157240    12.000000000000
         H            1.017435227719     2.517959852063     0.000004842760     1.007825032230
         H            3.119292227719     1.203918852063    -0.000005157240     1.007825032230
         H            3.077119227719    -1.270874147937    -0.000005157240     1.007825032230
         H            0.923606227719    -2.512612147937    -0.000004157240     1.007825032230
         H           -1.992227772281     2.181004852063    -0.000013157240     1.007825032230
         H           -1.871648772281    -2.042012147937     0.000017842760     1.007825032230
         H           -3.459569772281    -0.092386147937     0.000003842760     1.007825032230

  Basis Set: AUG-CC-PVTZ
    Blend: AUG-CC-PVTZ
  Basis Set: (AUG-CC-PVTZ AUX)
    Blend: AUG-CC-PVTZ-JKFIT
	 Reference Energy          =    -361.5883526167132800 [Eh]
	 Singles Energy            =      -0.0000000000000000 [Eh]
	 Same-Spin Energy          =      -0.4079406382479849 [Eh]
	 Opposite-Spin Energy      =      -1.2480415290880180 [Eh]
	 Correlation Energy        =      -1.6559821673360029 [Eh]
	 Total Energy              =    -363.2443347840492720 [Eh]

	 ================> DF-SCS-MP2 Energies <==================
	-----------------------------------------------------------
	 SCS Same-Spin Scale       =       0.3333333333333333 [-]
	 SCS Opposite-Spin Scale   =       1.2000000000000000 [-]
	 SCS Same-Spin Energy      =      -0.1359802127493283 [Eh]
	 SCS Opposite-Spin Energy  =      -1.4976498349056215 [Eh]
	 SCS Correlation Energy    =      -1.6336300476549499 [Eh]
	 SCS Total Energy          =    -363.2219826643682268 [Eh]
	-----------------------------------------------------------

  Dipole Moment: [D]
     X:    -1.4749      Y:    -1.5372      Z:     0.0000     Total:     2.1303

*** Psi4 exiting successfully. Buy a developer a beer!
