                               Psi4 1.4a3.dev225

  ==> Input File <==

--------------------------------------------------------------------------
#psi4
#
memory 32 gb

molecule  {
0 1
  N       -1.5630850    -1.0784890    -0.0000040
  C        0.9811620     1.4317850    -0.0000050
  C        2.1553110     0.6923450     0.0000000
  C        2.1328040    -0.7200770     0.0000000
  C        0.9346070    -1.4219960     0.0000040
  C       -0.2479390    -0.6706250     0.0000000
  C       -0.2522910     0.7524290     0.0000030
  C       -1.6208000     1.1677860     0.0000050
  C       -2.3888340     0.0267020    -0.0000020
  H        1.0113780     2.5197500    -0.0000020
  H        3.1138040     1.2059540    -0.0000050
  H        3.0720020    -1.2682500     0.0000030
  H        0.9188940    -2.5102320     0.0000020
  H       -2.0139954     2.2297804     0.0000102
  H       -1.8770410    -2.0396260     0.0000000
  H       -3.4649170    -0.0911630    -0.0000050
units angstrom
no_reorient  #important for SAPT in psi4, default
symmetry c1  #important for SAPT in psi4, default
}

set PROPERTIES_ORIGIN ["COM"]
properties('MP2/aug-cc-pvtz', properties = ['dipole'])
--------------------------------------------------------------------------

    Molecular point group: c1
  Charge       = 0
  Multiplicity = 1
  Basis Set: AUG-CC-PVTZ
    Blend: AUG-CC-PVTZ
  Basis Set: (AUG-CC-PVTZ AUX)
    Blend: AUG-CC-PVTZ-JKFIT

    Orbital Energies [Eh]
    ---------------------

    Doubly Occupied:

       1A    -15.605858     2A    -11.273477     3A    -11.267418
       4A    -11.233717     5A    -11.231813     6A    -11.230541
       7A    -11.227708     8A    -11.224343     9A    -11.222485
      10A     -1.296488    11A     -1.128677    12A     -1.055364
      13A     -0.996634    14A     -0.973998    15A     -0.842421
      16A     -0.805779    17A     -0.784221    18A     -0.726785
      19A     -0.661581    20A     -0.647019    21A     -0.600338
      22A     -0.595116    23A     -0.584310    24A     -0.569322
      25A     -0.548412    26A     -0.508009    27A     -0.482153
      28A     -0.465087    29A     -0.386260    30A     -0.301743
      31A     -0.283222

  @DF-RHF Final Energy:  -361.58680750417176

   => Energetics <=

    Nuclear Repulsion Energy =            399.7758821228339912
    One-Electron Energy =               -1281.2047773506285466
    Two-Electron Energy =                 519.8420877236228534
    Total Energy =                       -361.5868075041717020
  Basis Set: (AUG-CC-PVTZ AUX)
    Blend: AUG-CC-PVTZ-RI
    Molecular point group: c1

    Geometry (in Angstrom), charge = 0, multiplicity = 1:

       Center              X                  Y                   Z               Mass
    ------------   -----------------  -----------------  -----------------  -----------------
         N           -1.556304742752    -1.078870023073    -0.000004061617    14.003074004430
         C            0.987942257248     1.431403976927    -0.000005061617    12.000000000000
         C            2.162091257248     0.691963976927    -0.000000061617    12.000000000000
         C            2.139584257248    -0.720458023073    -0.000000061617    12.000000000000
         C            0.941387257248    -1.422377023073     0.000003938383    12.000000000000
         C           -0.241158742752    -0.671006023073    -0.000000061617    12.000000000000
         C           -0.245510742752     0.752047976927     0.000002938383    12.000000000000
         C           -1.614019742752     1.167404976927     0.000004938383    12.000000000000
         C           -2.382053742752     0.026320976927    -0.000002061617    12.000000000000
         H            1.018158257248     2.519368976927    -0.000002061617     1.007825032230
         H            3.120584257248     1.205572976927    -0.000005061617     1.007825032230
         H            3.078782257248    -1.268631023073     0.000002938383     1.007825032230
         H            0.925674257248    -2.510613023073     0.000001938383     1.007825032230
         H           -2.007215142752     2.229399376927     0.000010138383     1.007825032230
         H           -1.870260742752    -2.040007023073    -0.000000061617     1.007825032230
         H           -3.458136742752    -0.091544023073    -0.000005061617     1.007825032230

  Basis Set: AUG-CC-PVTZ
    Blend: AUG-CC-PVTZ
  Basis Set: (AUG-CC-PVTZ AUX)
    Blend: AUG-CC-PVTZ-JKFIT
	 Reference Energy          =    -361.5868075041717589 [Eh]
	 Singles Energy            =      -0.0000000000000000 [Eh]
	 Same-Spin Energy          =      -0.4080606865834897 [Eh]
	 Opposite-Spin Energy      =      -1.2482934777772896 [Eh]
	 Correlation Energy        =      -1.6563541643607793 [Eh]
	 Total Energy              =    -363.2431616685325366 [Eh]

	 ================> DF-SCS-MP2 Energies <==================
	-----------------------------------------------------------
	 SCS Same-Spin Scale       =       0.3333333333333333 [-]
	 SCS Opposite-Spin Scale   =       1.2000000000000000 [-]
	 SCS Same-Spin Energy      =      -0.1360202288611632 [Eh]
	 SCS Opposite-Spin Energy  =      -1.4979521733327474 [Eh]
	 SCS Correlation Energy    =      -1.6339724021939106 [Eh]
	 SCS Total Energy          =    -363.2207799063656921 [Eh]
	-----------------------------------------------------------

  Dipole Moment: [D]
     X:    -1.4728      Y:    -1.5523      Z:     0.0000     Total:     2.1398

*** Psi4 exiting successfully. Buy a developer a beer!
