                               Psi4 1.4a3.dev225

  ==> Input File <==

--------------------------------------------------------------------------
#psi4
#
memory 32 gb

molecule  {
0 1
  N       -1.5630850    -1.0784890    -0.0000040
  C        0.9811620     1.4317850    -0.0000050
  C        2.1553110     0.6923450     0.0000000
  C        2.1328040    -0.7200770     0.0000000
  C        0.9346070    -1.4219960     0.0000040
  C       -0.2479390    -0.6706250     0.0000000
  C       -0.2522910     0.7524290     0.0000030
  C       -1.6208000     1.1677860     0.0000050
  C       -2.3888340     0.0267020    -0.0000020
  H        1.0113780     2.5197500    -0.0000020
  H        3.1314326     1.2154003    -0.0000051
  H        3.0720020    -1.2682500     0.0000030
  H        0.9188940    -2.5102320     0.0000020
  H       -1.9966350     2.1828910     0.0000100
  H       -1.8770410    -2.0396260     0.0000000
  H       -3.4649170    -0.0911630    -0.0000050
units angstrom
no_reorient  #important for SAPT in psi4, default
symmetry c1  #important for SAPT in psi4, default
}

set PROPERTIES_ORIGIN ["COM"]
properties('MP2/aug-cc-pvtz', properties = ['dipole'])
--------------------------------------------------------------------------

    Molecular point group: c1
  Charge       = 0
  Multiplicity = 1
  Basis Set: AUG-CC-PVTZ
    Blend: AUG-CC-PVTZ
  Basis Set: (AUG-CC-PVTZ AUX)
    Blend: AUG-CC-PVTZ-JKFIT

    Orbital Energies [Eh]
    ---------------------

    Doubly Occupied:

       1A    -15.605696     2A    -11.273239     3A    -11.267175
       4A    -11.233689     5A    -11.231871     6A    -11.230595
       7A    -11.227342     8A    -11.224706     9A    -11.218861
      10A     -1.296281    11A     -1.128493    12A     -1.056111
      13A     -0.995937    14A     -0.974453    15A     -0.841871
      16A     -0.806019    17A     -0.787963    18A     -0.727359
      19A     -0.661283    20A     -0.645620    21A     -0.601863
      22A     -0.595213    23A     -0.584109    24A     -0.574349
      25A     -0.550105    26A     -0.505915    27A     -0.482673
      28A     -0.465068    29A     -0.386143    30A     -0.301638
      31A     -0.283159

  @DF-RHF Final Energy:  -361.58867159809165

   => Energetics <=

    Nuclear Repulsion Energy =            399.9232527497265437
    One-Electron Energy =               -1281.4942519537721637
    Two-Electron Energy =                 519.9823276059539694
    Total Energy =                       -361.5886715980916506
  Basis Set: (AUG-CC-PVTZ AUX)
    Blend: AUG-CC-PVTZ-RI
    Molecular point group: c1

    Geometry (in Angstrom), charge = 0, multiplicity = 1:

       Center              X                  Y                   Z               Mass
    ------------   -----------------  -----------------  -----------------  -----------------
         N           -1.556605985174    -1.078547651752    -0.000004059034    14.003074004430
         C            0.987641014826     1.431726348248    -0.000005059034    12.000000000000
         C            2.161790014826     0.692286348248    -0.000000059034    12.000000000000
         C            2.139283014826    -0.720135651752    -0.000000059034    12.000000000000
         C            0.941086014826    -1.422054651752     0.000003940966    12.000000000000
         C           -0.241459985174    -0.670683651752    -0.000000059034    12.000000000000
         C           -0.245811985174     0.752370348248     0.000002940966    12.000000000000
         C           -1.614320985174     1.167727348248     0.000004940966    12.000000000000
         C           -2.382354985174     0.026643348248    -0.000002059034    12.000000000000
         H            1.017857014826     2.519691348248    -0.000002059034     1.007825032230
         H            3.137911614826     1.215341648248    -0.000005159034     1.007825032230
         H            3.078481014826    -1.268308651752     0.000002940966     1.007825032230
         H            0.925373014826    -2.510290651752     0.000001940966     1.007825032230
         H           -1.990155985174     2.182832348248     0.000009940966     1.007825032230
         H           -1.870561985174    -2.039684651752    -0.000000059034     1.007825032230
         H           -3.458437985174    -0.091221651752    -0.000005059034     1.007825032230

  Basis Set: AUG-CC-PVTZ
    Blend: AUG-CC-PVTZ
  Basis Set: (AUG-CC-PVTZ AUX)
    Blend: AUG-CC-PVTZ-JKFIT
	 Reference Energy          =    -361.5886715980916506 [Eh]
	 Singles Energy            =      -0.0000000000000000 [Eh]
	 Same-Spin Energy          =      -0.4080001704581303 [Eh]
	 Opposite-Spin Energy      =      -1.2480216210955388 [Eh]
	 Correlation Energy        =      -1.6560217915536692 [Eh]
	 Total Energy              =    -363.2446933896453061 [Eh]

	 ================> DF-SCS-MP2 Energies <==================
	-----------------------------------------------------------
	 SCS Same-Spin Scale       =       0.3333333333333333 [-]
	 SCS Opposite-Spin Scale   =       1.2000000000000000 [-]
	 SCS Same-Spin Energy      =      -0.1360000568193768 [Eh]
	 SCS Opposite-Spin Energy  =      -1.4976259453146465 [Eh]
	 SCS Correlation Energy    =      -1.6336260021340232 [Eh]
	 SCS Total Energy          =    -363.2222976002256587 [Eh]
	-----------------------------------------------------------

  Dipole Moment: [D]
     X:    -1.4935      Y:    -1.5507      Z:     0.0000     Total:     2.1530

*** Psi4 exiting successfully. Buy a developer a beer!
