                               Psi4 1.3.2 release

  ==> Input File <==

--------------------------------------------------------------------------
#psi4
#
memory 32 gb

molecule  {
0 1
  N       -1.5631460    -1.0786450     0.0000020
  C        0.9814170     1.4318910     0.0000000
  C        2.1554110     0.6922200     0.0000020
  C        2.1326810    -0.7203310    -0.0000050
  C        0.9343870    -1.4220840     0.0000000
  C       -0.2481830    -0.6706930     0.0000000
  C       -0.2597073     0.7290103     0.0000152
  C       -1.6207120     1.1681210    -0.0000080
  C       -2.3885810     0.0265560    -0.0000050
  H        1.0121500     2.5200250     0.0000050
  H        3.1140070     1.2059840    -0.0000050
  H        3.0718340    -1.2688090    -0.0000050
  H        0.9183210    -2.5105470    -0.0000040
  H       -1.9975130     2.1830700    -0.0000130
  H       -1.8769340    -2.0399470     0.0000180
  H       -3.4648550    -0.0903210     0.0000040
units angstrom
no_reorient  #important for SAPT in psi4, default
symmetry c1  #important for SAPT in psi4, default
}

set PROPERTIES_ORIGIN ["COM"]
properties('MP2/aug-cc-pvtz', properties = ['dipole'])
--------------------------------------------------------------------------

    Molecular point group: c1
  Charge       = 0
  Multiplicity = 1
  Basis Set: AUG-CC-PVTZ
    Blend: AUG-CC-PVTZ
  Basis Set: (AUG-CC-PVTZ AUX)
    Blend: AUG-CC-PVTZ-JKFIT

    Orbital Energies [Eh]
    ---------------------

    Doubly Occupied:

       1A    -15.604611     2A    -11.272370     3A    -11.264116
       4A    -11.234180     5A    -11.233380     6A    -11.230519
       7A    -11.225968     8A    -11.222675     9A    -11.218040
      10A     -1.297179    11A     -1.128210    12A     -1.055309
      13A     -0.997803    14A     -0.973414    15A     -0.842274
      16A     -0.804753    17A     -0.788787    18A     -0.727840
      19A     -0.660616    20A     -0.647209    21A     -0.601846
      22A     -0.594653    23A     -0.584913    24A     -0.575043
      25A     -0.549878    26A     -0.504671    27A     -0.486834
      28A     -0.464306    29A     -0.383685    30A     -0.303906
      31A     -0.282719

  @DF-RHF Final Energy:  -361.58901539260364

   => Energetics <=

    Nuclear Repulsion Energy =            400.2571819362837573
    One-Electron Energy =               -1282.1689788322807999
    Two-Electron Energy =                 520.3227815033933439
    Total Energy =                       -361.5890153926036419
  Basis Set: (AUG-CC-PVTZ AUX)
    Blend: AUG-CC-PVTZ-RI
    Molecular point group: c1

    Geometry (in Angstrom), charge = 0, multiplicity = 1:

       Center              X                  Y                   Z               Mass
    ------------   -----------------  -----------------  -----------------  -----------------
         N           -1.555754726411    -1.076179454750     0.000001842760    14.003074004430
         C            0.988808273589     1.434356545250    -0.000000157240    12.000000000000
         C            2.162802273589     0.694685545250     0.000001842760    12.000000000000
         C            2.140072273589    -0.717865454750    -0.000005157240    12.000000000000
         C            0.941778273589    -1.419618454750    -0.000000157240    12.000000000000
         C           -0.240791726411    -0.668227454750    -0.000000157240    12.000000000000
         C           -0.252316026411     0.731475845250     0.000015042760    12.000000000000
         C           -1.613320726411     1.170586545250    -0.000008157240    12.000000000000
         C           -2.381189726411     0.029021545250    -0.000005157240    12.000000000000
         H            1.019541273589     2.522490545250     0.000004842760     1.007825032230
         H            3.121398273589     1.208449545250    -0.000005157240     1.007825032230
         H            3.079225273589    -1.266343454750    -0.000005157240     1.007825032230
         H            0.925712273589    -2.508081454750    -0.000004157240     1.007825032230
         H           -1.990121726411     2.185535545250    -0.000013157240     1.007825032230
         H           -1.869542726411    -2.037481454750     0.000017842760     1.007825032230
         H           -3.457463726411    -0.087855454750     0.000003842760     1.007825032230

  Basis Set: AUG-CC-PVTZ
    Blend: AUG-CC-PVTZ
  Basis Set: (AUG-CC-PVTZ AUX)
    Blend: AUG-CC-PVTZ-JKFIT
	 Reference Energy          =    -361.5890153926036419 [Eh]
	 Singles Energy            =      -0.0000000000000000 [Eh]
	 Same-Spin Energy          =      -0.4077282563628303 [Eh]
	 Opposite-Spin Energy      =      -1.2477453345051917 [Eh]
	 Correlation Energy        =      -1.6554735908680220 [Eh]
	 Total Energy              =    -363.2444889834716832 [Eh]

	 ================> DF-SCS-MP2 Energies <==================
	-----------------------------------------------------------
	 SCS Same-Spin Scale       =       0.3333333333333333 [-]
	 SCS Opposite-Spin Scale   =       1.2000000000000000 [-]
	 SCS Same-Spin Energy      =      -0.1359094187876101 [Eh]
	 SCS Opposite-Spin Energy  =      -1.4972944014062299 [Eh]
	 SCS Correlation Energy    =      -1.6332038201938399 [Eh]
	 SCS Total Energy          =    -363.2222192127974836 [Eh]
	-----------------------------------------------------------

  Dipole Moment: [D]
     X:    -1.4533      Y:    -1.5241      Z:     0.0000     Total:     2.1059

*** Psi4 exiting successfully. Buy a developer a beer!
