                               Psi4 1.3.2 release

  ==> Input File <==

--------------------------------------------------------------------------
#psi4
#
memory 32 gb

molecule  {
0 1
  N       -1.5631460    -1.0786450     0.0000020
  C        0.9814170     1.4318910     0.0000000
  C        2.1060998     0.6921528     0.0000024
  C        2.1326810    -0.7203310    -0.0000050
  C        0.9343870    -1.4220840     0.0000000
  C       -0.2481830    -0.6706930     0.0000000
  C       -0.2522510     0.7528300     0.0000150
  C       -1.6207120     1.1681210    -0.0000080
  C       -2.3885810     0.0265560    -0.0000050
  H        1.0121500     2.5200250     0.0000050
  H        3.1140070     1.2059840    -0.0000050
  H        3.0718340    -1.2688090    -0.0000050
  H        0.9183210    -2.5105470    -0.0000040
  H       -1.9975130     2.1830700    -0.0000130
  H       -1.8769340    -2.0399470     0.0000180
  H       -3.4648550    -0.0903210     0.0000040
units angstrom
no_reorient  #important for SAPT in psi4, default
symmetry c1  #important for SAPT in psi4, default
}

set PROPERTIES_ORIGIN ["COM"]
properties('MP2/aug-cc-pvtz', properties = ['dipole'])
--------------------------------------------------------------------------

    Molecular point group: c1
  Charge       = 0
  Multiplicity = 1
  Basis Set: AUG-CC-PVTZ
    Blend: AUG-CC-PVTZ
  Basis Set: (AUG-CC-PVTZ AUX)
    Blend: AUG-CC-PVTZ-JKFIT

    Orbital Energies [Eh]
    ---------------------

    Doubly Occupied:

       1A    -15.605797     2A    -11.272438     3A    -11.265609
       4A    -11.234355     5A    -11.230202     6A    -11.227000
       7A    -11.225876     8A    -11.221532     9A    -11.218204
      10A     -1.295806    11A     -1.133212    12A     -1.055956
      13A     -0.999638    14A     -0.974847    15A     -0.840136
      16A     -0.807050    17A     -0.787488    18A     -0.728395
      19A     -0.660794    20A     -0.642974    21A     -0.605140
      22A     -0.596362    23A     -0.584090    24A     -0.573823
      25A     -0.551166    26A     -0.501671    27A     -0.480402
      28A     -0.468740    29A     -0.386124    30A     -0.303962
      31A     -0.283085

  @DF-RHF Final Energy:  -361.58630462096909

   => Energetics <=

    Nuclear Repulsion Energy =            400.8594774761738222
    One-Electron Energy =               -1283.3678173770038029
    Two-Electron Energy =                 520.9220352798608928
    Total Energy =                       -361.5863046209690310
  Basis Set: (AUG-CC-PVTZ AUX)
    Blend: AUG-CC-PVTZ-RI
    Molecular point group: c1

    Geometry (in Angstrom), charge = 0, multiplicity = 1:

       Center              X                  Y                   Z               Mass
    ------------   -----------------  -----------------  -----------------  -----------------
         N           -1.551464037633    -1.078614404665     0.000001822258    14.003074004430
         C            0.993098962367     1.431921595335    -0.000000177742    12.000000000000
         C            2.117781762367     0.692183395335     0.000002222258    12.000000000000
         C            2.144362962367    -0.720300404665    -0.000005177742    12.000000000000
         C            0.946068962367    -1.422053404665    -0.000000177742    12.000000000000
         C           -0.236501037633    -0.670662404665    -0.000000177742    12.000000000000
         C           -0.240569037633     0.752860595335     0.000014822258    12.000000000000
         C           -1.609030037633     1.168151595335    -0.000008177742    12.000000000000
         C           -2.376899037633     0.026586595335    -0.000005177742    12.000000000000
         H            1.023831962367     2.520055595335     0.000004822258     1.007825032230
         H            3.125688962367     1.206014595335    -0.000005177742     1.007825032230
         H            3.083515962367    -1.268778404665    -0.000005177742     1.007825032230
         H            0.930002962367    -2.510516404665    -0.000004177742     1.007825032230
         H           -1.985831037633     2.183100595335    -0.000013177742     1.007825032230
         H           -1.865252037633    -2.039916404665     0.000017822258     1.007825032230
         H           -3.453173037633    -0.090290404665     0.000003822258     1.007825032230

  Basis Set: AUG-CC-PVTZ
    Blend: AUG-CC-PVTZ
  Basis Set: (AUG-CC-PVTZ AUX)
    Blend: AUG-CC-PVTZ-JKFIT
	 Reference Energy          =    -361.5863046209690879 [Eh]
	 Singles Energy            =      -0.0000000000000000 [Eh]
	 Same-Spin Energy          =      -0.4080396034749217 [Eh]
	 Opposite-Spin Energy      =      -1.2478841751710696 [Eh]
	 Correlation Energy        =      -1.6559237786459913 [Eh]
	 Total Energy              =    -363.2422283996151009 [Eh]

	 ================> DF-SCS-MP2 Energies <==================
	-----------------------------------------------------------
	 SCS Same-Spin Scale       =       0.3333333333333333 [-]
	 SCS Opposite-Spin Scale   =       1.2000000000000000 [-]
	 SCS Same-Spin Energy      =      -0.1360132011583072 [Eh]
	 SCS Opposite-Spin Energy  =      -1.4974610102052834 [Eh]
	 SCS Correlation Energy    =      -1.6334742113635907 [Eh]
	 SCS Total Energy          =    -363.2197788323326790 [Eh]
	-----------------------------------------------------------

  Dipole Moment: [D]
     X:    -1.4731      Y:    -1.5608      Z:     0.0000     Total:     2.1462

*** Psi4 exiting successfully. Buy a developer a beer!
