                               Psi4 1.3.2 release

  ==> Input File <==

--------------------------------------------------------------------------
#psi4
#
memory 32 gb

molecule  {
0 1
  N       -1.5631460    -1.0786450     0.0000020
  C        0.9814170     1.4318910     0.0000000
  C        2.1554110     0.6922200     0.0000020
  C        2.1326810    -0.7203310    -0.0000050
  C        0.9343870    -1.4220840     0.0000000
  C       -0.3474929    -0.6675091    -0.0000020
  C       -0.2522510     0.7528300     0.0000150
  C       -1.6207120     1.1681210    -0.0000080
  C       -2.3885810     0.0265560    -0.0000050
  H        1.0121500     2.5200250     0.0000050
  H        3.1140070     1.2059840    -0.0000050
  H        3.0718340    -1.2688090    -0.0000050
  H        0.9183210    -2.5105470    -0.0000040
  H       -1.9975130     2.1830700    -0.0000130
  H       -1.8769340    -2.0399470     0.0000180
  H       -3.4648550    -0.0903210     0.0000040
units angstrom
no_reorient  #important for SAPT in psi4, default
symmetry c1  #important for SAPT in psi4, default
}

set PROPERTIES_ORIGIN ["COM"]
properties('MP2/aug-cc-pvtz', properties = ['dipole'])
--------------------------------------------------------------------------

    Molecular point group: c1
  Charge       = 0
  Multiplicity = 1
  Basis Set: AUG-CC-PVTZ
    Blend: AUG-CC-PVTZ
  Basis Set: (AUG-CC-PVTZ AUX)
    Blend: AUG-CC-PVTZ-JKFIT

    Orbital Energies [Eh]
    ---------------------

    Doubly Occupied:

       1A    -15.613025     2A    -11.268873     3A    -11.267060
       4A    -11.238339     5A    -11.232920     6A    -11.231029
       7A    -11.222323     8A    -11.221287     9A    -11.219321
      10A     -1.329191    11A     -1.121721    12A     -1.058615
      13A     -0.989121    14A     -0.976189    15A     -0.849667
      16A     -0.804568    17A     -0.789816    18A     -0.733284
      19A     -0.673655    20A     -0.646201    21A     -0.602000
      22A     -0.600976    23A     -0.588632    24A     -0.569182
      25A     -0.552513    26A     -0.507683    27A     -0.472259
      28A     -0.462210    29A     -0.386195    30A     -0.289826
      31A     -0.288767

  @DF-RHF Final Energy:  -361.57473806389174

   => Energetics <=

    Nuclear Repulsion Energy =            400.3144725025435378
    One-Electron Energy =               -1282.1655332904538227
    Two-Electron Energy =                 520.2763227240184278
    Total Energy =                       -361.5747380638918003
  Basis Set: (AUG-CC-PVTZ AUX)
    Blend: AUG-CC-PVTZ-RI
    Molecular point group: c1

    Geometry (in Angstrom), charge = 0, multiplicity = 1:

       Center              X                  Y                   Z               Mass
    ------------   -----------------  -----------------  -----------------  -----------------
         N           -1.546338500098    -1.078947686032     0.000002068290    14.003074004430
         C            0.998224499902     1.431588313968     0.000000068290    12.000000000000
         C            2.172218499902     0.691917313968     0.000002068290    12.000000000000
         C            2.149488499902    -0.720633686032    -0.000004931710    12.000000000000
         C            0.951194499902    -1.422386686032     0.000000068290    12.000000000000
         C           -0.330685400098    -0.667811786032    -0.000001931710    12.000000000000
         C           -0.235443500098     0.752527313968     0.000015068290    12.000000000000
         C           -1.603904500098     1.167818313968    -0.000007931710    12.000000000000
         C           -2.371773500098     0.026253313968    -0.000004931710    12.000000000000
         H            1.028957499902     2.519722313968     0.000005068290     1.007825032230
         H            3.130814499902     1.205681313968    -0.000004931710     1.007825032230
         H            3.088641499902    -1.269111686032    -0.000004931710     1.007825032230
         H            0.935128499902    -2.510849686032    -0.000003931710     1.007825032230
         H           -1.980705500098     2.182767313968    -0.000012931710     1.007825032230
         H           -1.860126500098    -2.040249686032     0.000018068290     1.007825032230
         H           -3.448047500098    -0.090623686032     0.000004068290     1.007825032230

  Basis Set: AUG-CC-PVTZ
    Blend: AUG-CC-PVTZ
  Basis Set: (AUG-CC-PVTZ AUX)
    Blend: AUG-CC-PVTZ-JKFIT
	 Reference Energy          =    -361.5747380638917434 [Eh]
	 Singles Energy            =      -0.0000000000000000 [Eh]
	 Same-Spin Energy          =      -0.4080294758848533 [Eh]
	 Opposite-Spin Energy      =      -1.2481840004064138 [Eh]
	 Correlation Energy        =      -1.6562134762912670 [Eh]
	 Total Energy              =    -363.2309515401830140 [Eh]

	 ================> DF-SCS-MP2 Energies <==================
	-----------------------------------------------------------
	 SCS Same-Spin Scale       =       0.3333333333333333 [-]
	 SCS Opposite-Spin Scale   =       1.2000000000000000 [-]
	 SCS Same-Spin Energy      =      -0.1360098252949511 [Eh]
	 SCS Opposite-Spin Energy  =      -1.4978208004876965 [Eh]
	 SCS Correlation Energy    =      -1.6338306257826476 [Eh]
	 SCS Total Energy          =    -363.2085686896743937 [Eh]
	-----------------------------------------------------------

  Dipole Moment: [D]
     X:    -1.6988      Y:    -1.6578      Z:     0.0000     Total:     2.3737

*** Psi4 exiting successfully. Buy a developer a beer!
