                               Psi4 1.3.2 release

  ==> Input File <==

--------------------------------------------------------------------------
#psi4
#
memory 32 gb

molecule  {
0 1
  N       -1.5631460    -1.0786450     0.0000020
  C        0.9814170     1.4318910     0.0000000
  C        2.1554110     0.6922200     0.0000020
  C        2.1326810    -0.7203310    -0.0000050
  C        0.9343870    -1.4220840     0.0000000
  C       -0.2481830    -0.6706930     0.0000000
  C       -0.2163378     0.8981481     0.0000138
  C       -1.6207120     1.1681210    -0.0000080
  C       -2.3885810     0.0265560    -0.0000050
  H        1.0121500     2.5200250     0.0000050
  H        3.1140070     1.2059840    -0.0000050
  H        3.0718340    -1.2688090    -0.0000050
  H        0.9183210    -2.5105470    -0.0000040
  H       -1.9975130     2.1830700    -0.0000130
  H       -1.8769340    -2.0399470     0.0000180
  H       -3.4648550    -0.0903210     0.0000040
units angstrom
no_reorient  #important for SAPT in psi4, default
symmetry c1  #important for SAPT in psi4, default
}

set PROPERTIES_ORIGIN ["COM"]
properties('MP2/aug-cc-pvtz', properties = ['dipole'])
--------------------------------------------------------------------------

    Molecular point group: c1
  Charge       = 0
  Multiplicity = 1
  Basis Set: AUG-CC-PVTZ
    Blend: AUG-CC-PVTZ
  Basis Set: (AUG-CC-PVTZ AUX)
    Blend: AUG-CC-PVTZ-JKFIT

    Orbital Energies [Eh]
    ---------------------

    Doubly Occupied:

       1A    -15.611011     2A    -11.280840     3A    -11.278908
       4A    -11.234718     5A    -11.231161     6A    -11.229177
       7A    -11.224463     8A    -11.221528     9A    -11.220264
      10A     -1.292675    11A     -1.130943    12A     -1.060731
      13A     -0.993602    14A     -0.977199    15A     -0.845259
      16A     -0.814110    17A     -0.784751    18A     -0.722978
      19A     -0.670959    20A     -0.648788    21A     -0.602942
      22A     -0.595252    23A     -0.580319    24A     -0.578668
      25A     -0.545219    26A     -0.519571    27A     -0.469532
      28A     -0.448880    29A     -0.399917    30A     -0.291894
      31A     -0.284041

  @DF-RHF Final Energy:  -361.56109549191228

   => Energetics <=

    Nuclear Repulsion Energy =            398.5692437512352626
    One-Electron Energy =               -1278.6800755022625253
    Two-Electron Energy =                 518.5497362591149795
    Total Energy =                       -361.5610954919122833
  Basis Set: (AUG-CC-PVTZ AUX)
    Blend: AUG-CC-PVTZ-RI
    Molecular point group: c1

    Geometry (in Angstrom), charge = 0, multiplicity = 1:

       Center              X                  Y                   Z               Mass
    ------------   -----------------  -----------------  -----------------  -----------------
         N           -1.560200682008    -1.093518348411     0.000001986279    14.003074004430
         C            0.984362317992     1.417017651589    -0.000000013721    12.000000000000
         C            2.158356317992     0.677346651589     0.000001986279    12.000000000000
         C            2.135626317992    -0.735204348411    -0.000005013721    12.000000000000
         C            0.937332317992    -1.436957348411    -0.000000013721    12.000000000000
         C           -0.245237682008    -0.685566348411    -0.000000013721    12.000000000000
         C           -0.213392482008     0.883274751589     0.000013786279    12.000000000000
         C           -1.617766682008     1.153247651589    -0.000008013721    12.000000000000
         C           -2.385635682008     0.011682651589    -0.000005013721    12.000000000000
         H            1.015095317992     2.505151651589     0.000004986279     1.007825032230
         H            3.116952317992     1.191110651589    -0.000005013721     1.007825032230
         H            3.074779317992    -1.283682348411    -0.000005013721     1.007825032230
         H            0.921266317992    -2.525420348411    -0.000004013721     1.007825032230
         H           -1.994567682008     2.168196651589    -0.000013013721     1.007825032230
         H           -1.873988682008    -2.054820348411     0.000017986279     1.007825032230
         H           -3.461909682008    -0.105194348411     0.000003986279     1.007825032230

  Basis Set: AUG-CC-PVTZ
    Blend: AUG-CC-PVTZ
  Basis Set: (AUG-CC-PVTZ AUX)
    Blend: AUG-CC-PVTZ-JKFIT
	 Reference Energy          =    -361.5610954919122833 [Eh]
	 Singles Energy            =      -0.0000000000000000 [Eh]
	 Same-Spin Energy          =      -0.4093736750026004 [Eh]
	 Opposite-Spin Energy      =      -1.2500039045462550 [Eh]
	 Correlation Energy        =      -1.6593775795488552 [Eh]
	 Total Energy              =    -363.2204730714611287 [Eh]

	 ================> DF-SCS-MP2 Energies <==================
	-----------------------------------------------------------
	 SCS Same-Spin Scale       =       0.3333333333333333 [-]
	 SCS Opposite-Spin Scale   =       1.2000000000000000 [-]
	 SCS Same-Spin Energy      =      -0.1364578916675334 [Eh]
	 SCS Opposite-Spin Energy  =      -1.5000046854555060 [Eh]
	 SCS Correlation Energy    =      -1.6364625771230394 [Eh]
	 SCS Total Energy          =    -363.1975580690353240 [Eh]
	-----------------------------------------------------------

  Dipole Moment: [D]
     X:    -1.6287      Y:    -1.6755      Z:     0.0000     Total:     2.3367

*** Psi4 exiting successfully. Buy a developer a beer!
