                               Psi4 1.3.2 release

  ==> Input File <==

--------------------------------------------------------------------------
#psi4
#
memory 32 gb

molecule  {
0 1
  N       -1.5631460    -1.0786450     0.0000020
  C        0.9814170     1.4318910     0.0000000
  C        2.1554110     0.6922200     0.0000020
  C        2.1326810    -0.7203310    -0.0000050
  C        0.9343870    -1.4220840     0.0000000
  C       -0.2481830    -0.6706930     0.0000000
  C       -0.2522510     0.7528300     0.0000150
  C       -1.6207120     1.1681210    -0.0000080
  C       -2.3885810     0.0265560    -0.0000050
  H        1.0121500     2.5200250     0.0000050
  H        3.2902854     1.3004612    -0.0000063
  H        3.0718340    -1.2688090    -0.0000050
  H        0.9183210    -2.5105470    -0.0000040
  H       -1.9975130     2.1830700    -0.0000130
  H       -1.8769340    -2.0399470     0.0000180
  H       -3.4648550    -0.0903210     0.0000040
units angstrom
no_reorient  #important for SAPT in psi4, default
symmetry c1  #important for SAPT in psi4, default
}

set PROPERTIES_ORIGIN ["COM"]
properties('MP2/aug-cc-pvtz', properties = ['dipole'])
--------------------------------------------------------------------------

    Molecular point group: c1
  Charge       = 0
  Multiplicity = 1
  Basis Set: AUG-CC-PVTZ
    Blend: AUG-CC-PVTZ
  Basis Set: (AUG-CC-PVTZ AUX)
    Blend: AUG-CC-PVTZ-JKFIT

    Orbital Energies [Eh]
    ---------------------

    Doubly Occupied:

       1A    -15.606745     2A    -11.274247     3A    -11.268366
       4A    -11.244662     5A    -11.235413     6A    -11.234070
       7A    -11.232860     8A    -11.229097     9A    -11.219979
      10A     -1.297367    11A     -1.129223    12A     -1.057340
      13A     -0.993165    14A     -0.975682    15A     -0.840086
      16A     -0.805632    17A     -0.784636    18A     -0.728579
      19A     -0.660623    20A     -0.630592    21A     -0.603277
      22A     -0.594229    23A     -0.585229    24A     -0.573516
      25A     -0.551034    26A     -0.490577    27A     -0.477368
      28A     -0.466802    29A     -0.387425    30A     -0.303023
      31A     -0.284316

  @DF-RHF Final Energy:  -361.56712870414981

   => Energetics <=

    Nuclear Repulsion Energy =            399.0991398488999948
    One-Electron Energy =               -1279.8022176227775617
    Two-Electron Energy =                 519.1359490697277579
    Total Energy =                       -361.5671287041498090
  Basis Set: (AUG-CC-PVTZ AUX)
    Blend: AUG-CC-PVTZ-RI
    Molecular point group: c1

    Geometry (in Angstrom), charge = 0, multiplicity = 1:

       Center              X                  Y                   Z               Mass
    ------------   -----------------  -----------------  -----------------  -----------------
         N           -1.558036789390    -1.079434707513     0.000001874455    14.003074004430
         C            0.986526210610     1.431101292487    -0.000000125545    12.000000000000
         C            2.160520210610     0.691430292487     0.000001874455    12.000000000000
         C            2.137790210610    -0.721120707513    -0.000005125545    12.000000000000
         C            0.939496210610    -1.422873707513    -0.000000125545    12.000000000000
         C           -0.243073789390    -0.671482707513    -0.000000125545    12.000000000000
         C           -0.247141789390     0.752040292487     0.000014874455    12.000000000000
         C           -1.615602789390     1.167331292487    -0.000008125545    12.000000000000
         C           -2.383471789390     0.025766292487    -0.000005125545    12.000000000000
         H            1.017259210610     2.519235292487     0.000004874455     1.007825032230
         H            3.295394610610     1.299671492487    -0.000006425545     1.007825032230
         H            3.076943210610    -1.269598707513    -0.000005125545     1.007825032230
         H            0.923430210610    -2.511336707513    -0.000004125545     1.007825032230
         H           -1.992403789390     2.182280292487    -0.000013125545     1.007825032230
         H           -1.871824789390    -2.040736707513     0.000017874455     1.007825032230
         H           -3.459745789390    -0.091110707513     0.000003874455     1.007825032230

  Basis Set: AUG-CC-PVTZ
    Blend: AUG-CC-PVTZ
  Basis Set: (AUG-CC-PVTZ AUX)
    Blend: AUG-CC-PVTZ-JKFIT
	 Reference Energy          =    -361.5671287041498090 [Eh]
	 Singles Energy            =      -0.0000000000000000 [Eh]
	 Same-Spin Energy          =      -0.4084127067590184 [Eh]
	 Opposite-Spin Energy      =      -1.2500843231070775 [Eh]
	 Correlation Energy        =      -1.6584970298660959 [Eh]
	 Total Energy              =    -363.2256257340159209 [Eh]

	 ================> DF-SCS-MP2 Energies <==================
	-----------------------------------------------------------
	 SCS Same-Spin Scale       =       0.3333333333333333 [-]
	 SCS Opposite-Spin Scale   =       1.2000000000000000 [-]
	 SCS Same-Spin Energy      =      -0.1361375689196728 [Eh]
	 SCS Opposite-Spin Energy  =      -1.5001011877284929 [Eh]
	 SCS Correlation Energy    =      -1.6362387566481658 [Eh]
	 SCS Total Energy          =    -363.2033674607979492 [Eh]
	-----------------------------------------------------------

  Dipole Moment: [D]
     X:    -1.6109      Y:    -1.6098      Z:     0.0000     Total:     2.2774

*** Psi4 exiting successfully. Buy a developer a beer!
