                               Psi4 1.3.2 release

  ==> Input File <==

--------------------------------------------------------------------------
#psi4
#
memory 32 gb

molecule  {
0 1
  N       -1.5631460    -1.0786450     0.0000020
  C        0.9814170     1.4318910     0.0000000
  C        2.0716631     0.5735562     0.0000039
  C        2.1326810    -0.7203310    -0.0000050
  C        0.9343870    -1.4220840     0.0000000
  C       -0.2481830    -0.6706930     0.0000000
  C       -0.2522510     0.7528300     0.0000150
  C       -1.6207120     1.1681210    -0.0000080
  C       -2.3885810     0.0265560    -0.0000050
  H        1.0121500     2.5200250     0.0000050
  H        3.1140070     1.2059840    -0.0000050
  H        3.0718340    -1.2688090    -0.0000050
  H        0.9183210    -2.5105470    -0.0000040
  H       -1.9975130     2.1830700    -0.0000130
  H       -1.8769340    -2.0399470     0.0000180
  H       -3.4648550    -0.0903210     0.0000040
units angstrom
no_reorient  #important for SAPT in psi4, default
symmetry c1  #important for SAPT in psi4, default
}

set PROPERTIES_ORIGIN ["COM"]
properties('MP2/aug-cc-pvtz', properties = ['dipole'])
--------------------------------------------------------------------------

    Molecular point group: c1
  Charge       = 0
  Multiplicity = 1
  Basis Set: AUG-CC-PVTZ
    Blend: AUG-CC-PVTZ
  Basis Set: (AUG-CC-PVTZ AUX)
    Blend: AUG-CC-PVTZ-JKFIT

    Orbital Energies [Eh]
    ---------------------

    Doubly Occupied:

       1A    -15.603855     2A    -11.276350     3A    -11.266289
       4A    -11.232532     5A    -11.231139     6A    -11.228772
       7A    -11.221271     8A    -11.217502     9A    -11.216148
      10A     -1.296608    11A     -1.144107    12A     -1.059473
      13A     -0.996480    14A     -0.980778    15A     -0.850478
      16A     -0.804381    17A     -0.781126    18A     -0.732282
      19A     -0.662493    20A     -0.634747    21A     -0.613723
      22A     -0.594911    23A     -0.585214    24A     -0.577635
      25A     -0.556861    26A     -0.495183    27A     -0.478268
      28A     -0.461019    29A     -0.386906    30A     -0.306673
      31A     -0.282756

  @DF-RHF Final Energy:  -361.56197686895672

   => Energetics <=

    Nuclear Repulsion Energy =            402.4381640640172577
    One-Electron Energy =               -1286.4483565608552453
    Two-Electron Energy =                 522.4482156278813818
    Total Energy =                       -361.5619768689566627
  Basis Set: (AUG-CC-PVTZ AUX)
    Blend: AUG-CC-PVTZ-RI
    Molecular point group: c1

    Geometry (in Angstrom), charge = 0, multiplicity = 1:

       Center              X                  Y                   Z               Mass
    ------------   -----------------  -----------------  -----------------  -----------------
         N           -1.547933813879    -1.066456662067     0.000001668487    14.003074004430
         C            0.996629186121     1.444079337933    -0.000000331513    12.000000000000
         C            2.086875286121     0.585744537933     0.000003568487    12.000000000000
         C            2.147893186121    -0.708142662067    -0.000005331513    12.000000000000
         C            0.949599186121    -1.409895662067    -0.000000331513    12.000000000000
         C           -0.232970813879    -0.658504662067    -0.000000331513    12.000000000000
         C           -0.237038813879     0.765018337933     0.000014668487    12.000000000000
         C           -1.605499813879     1.180309337933    -0.000008331513    12.000000000000
         C           -2.373368813879     0.038744337933    -0.000005331513    12.000000000000
         H            1.027362186121     2.532213337933     0.000004668487     1.007825032230
         H            3.129219186121     1.218172337933    -0.000005331513     1.007825032230
         H            3.087046186121    -1.256620662067    -0.000005331513     1.007825032230
         H            0.933533186121    -2.498358662067    -0.000004331513     1.007825032230
         H           -1.982300813879     2.195258337933    -0.000013331513     1.007825032230
         H           -1.861721813879    -2.027758662067     0.000017668487     1.007825032230
         H           -3.449642813879    -0.078132662067     0.000003668487     1.007825032230

  Basis Set: AUG-CC-PVTZ
    Blend: AUG-CC-PVTZ
  Basis Set: (AUG-CC-PVTZ AUX)
    Blend: AUG-CC-PVTZ-JKFIT
	 Reference Energy          =    -361.5619768689567195 [Eh]
	 Singles Energy            =      -0.0000000000000000 [Eh]
	 Same-Spin Energy          =      -0.4088913185405564 [Eh]
	 Opposite-Spin Energy      =      -1.2490328526427139 [Eh]
	 Correlation Energy        =      -1.6579241711832704 [Eh]
	 Total Energy              =    -363.2199010401399732 [Eh]

	 ================> DF-SCS-MP2 Energies <==================
	-----------------------------------------------------------
	 SCS Same-Spin Scale       =       0.3333333333333333 [-]
	 SCS Opposite-Spin Scale   =       1.2000000000000000 [-]
	 SCS Same-Spin Energy      =      -0.1362971061801855 [Eh]
	 SCS Opposite-Spin Energy  =      -1.4988394231712567 [Eh]
	 SCS Correlation Energy    =      -1.6351365293514422 [Eh]
	 SCS Total Energy          =    -363.1971133983081472 [Eh]
	-----------------------------------------------------------

  Dipole Moment: [D]
     X:    -1.5603      Y:    -1.5751      Z:     0.0000     Total:     2.2171

*** Psi4 exiting successfully. Buy a developer a beer!
