                               Psi4 1.3.2 release

  ==> Input File <==

--------------------------------------------------------------------------
#psi4
#
memory 32 gb

molecule  {
0 1
  N       -1.5631460    -1.0786450     0.0000020
  C        0.9814170     1.4318910     0.0000000
  C        2.1554110     0.6922200     0.0000020
  C        2.1326810    -0.7203310    -0.0000050
  C        0.9343870    -1.4220840     0.0000000
  C       -0.2481830    -0.6706930     0.0000000
  C       -0.2522510     0.7528300     0.0000150
  C       -1.6207120     1.1681210    -0.0000080
  C       -2.3885810     0.0265560    -0.0000050
  H        1.0121500     2.5200250     0.0000050
  H        3.1140070     1.2059840    -0.0000050
  H        3.0718340    -1.2688090    -0.0000050
  H        0.9183210    -2.5105470    -0.0000040
  H       -2.0671211     2.3705659    -0.0000139
  H       -1.8769340    -2.0399470     0.0000180
  H       -3.4648550    -0.0903210     0.0000040
units angstrom
no_reorient  #important for SAPT in psi4, default
symmetry c1  #important for SAPT in psi4, default
}

set PROPERTIES_ORIGIN ["COM"]
properties('MP2/aug-cc-pvtz', properties = ['dipole'])
--------------------------------------------------------------------------

    Molecular point group: c1
  Charge       = 0
  Multiplicity = 1
  Basis Set: AUG-CC-PVTZ
    Blend: AUG-CC-PVTZ
  Basis Set: (AUG-CC-PVTZ AUX)
    Blend: AUG-CC-PVTZ-JKFIT

    Orbital Energies [Eh]
    ---------------------

    Doubly Occupied:

       1A    -15.606949     2A    -11.274875     3A    -11.268681
       4A    -11.239929     5A    -11.234436     6A    -11.232395
       7A    -11.231179     8A    -11.229398     9A    -11.223009
      10A     -1.297695    11A     -1.129325    12A     -1.054516
      13A     -0.997279    14A     -0.973606    15A     -0.842986
      16A     -0.805879    17A     -0.775046    18A     -0.725745
      19A     -0.661560    20A     -0.646334    21A     -0.599038
      22A     -0.594842    23A     -0.585464    24A     -0.560225
      25A     -0.534079    26A     -0.508853    27A     -0.479080
      28A     -0.465726    29A     -0.387252    30A     -0.302530
      31A     -0.283924

  @DF-RHF Final Energy:  -361.56644004967796

   => Energetics <=

    Nuclear Repulsion Energy =            399.0913754691132453
    One-Electron Energy =               -1279.8119607048347461
    Two-Electron Energy =                 519.1541451860435927
    Total Energy =                       -361.5664400496779081
  Basis Set: (AUG-CC-PVTZ AUX)
    Blend: AUG-CC-PVTZ-RI
    Molecular point group: c1

    Geometry (in Angstrom), charge = 0, multiplicity = 1:

       Center              X                  Y                   Z               Mass
    ------------   -----------------  -----------------  -----------------  -----------------
         N           -1.555919797053    -1.080235564311     0.000001871012    14.003074004430
         C            0.988643202947     1.430300435689    -0.000000128988    12.000000000000
         C            2.162637202947     0.690629435689     0.000001871012    12.000000000000
         C            2.139907202947    -0.721921564311    -0.000005128988    12.000000000000
         C            0.941613202947    -1.423674564311    -0.000000128988    12.000000000000
         C           -0.240956797053    -0.672283564311    -0.000000128988    12.000000000000
         C           -0.245024797053     0.751239435689     0.000014871012    12.000000000000
         C           -1.613485797053     1.166530435689    -0.000008128988    12.000000000000
         C           -2.381354797053     0.024965435689    -0.000005128988    12.000000000000
         H            1.019376202947     2.518434435689     0.000004871012     1.007825032230
         H            3.121233202947     1.204393435689    -0.000005128988     1.007825032230
         H            3.079060202947    -1.270399564311    -0.000005128988     1.007825032230
         H            0.925547202947    -2.512137564311    -0.000004128988     1.007825032230
         H           -2.059894897053     2.368975335689    -0.000014028988     1.007825032230
         H           -1.869707797053    -2.041537564311     0.000017871012     1.007825032230
         H           -3.457628797053    -0.091911564311     0.000003871012     1.007825032230

  Basis Set: AUG-CC-PVTZ
    Blend: AUG-CC-PVTZ
  Basis Set: (AUG-CC-PVTZ AUX)
    Blend: AUG-CC-PVTZ-JKFIT
	 Reference Energy          =    -361.5664400496779649 [Eh]
	 Singles Energy            =      -0.0000000000000000 [Eh]
	 Same-Spin Energy          =      -0.4084213435869841 [Eh]
	 Opposite-Spin Energy      =      -1.2500674479419527 [Eh]
	 Correlation Energy        =      -1.6584887915289368 [Eh]
	 Total Energy              =    -363.2249288412069177 [Eh]

	 ================> DF-SCS-MP2 Energies <==================
	-----------------------------------------------------------
	 SCS Same-Spin Scale       =       0.3333333333333333 [-]
	 SCS Opposite-Spin Scale   =       1.2000000000000000 [-]
	 SCS Same-Spin Energy      =      -0.1361404478623280 [Eh]
	 SCS Opposite-Spin Energy  =      -1.5000809375303432 [Eh]
	 SCS Correlation Energy    =      -1.6362213853926713 [Eh]
	 SCS Total Energy          =    -363.2026614350706382 [Eh]
	-----------------------------------------------------------

  Dipole Moment: [D]
     X:    -1.4302      Y:    -1.5876      Z:     0.0000     Total:     2.1368

*** Psi4 exiting successfully. Buy a developer a beer!
