                               Psi4 1.3.2 release

  ==> Input File <==

--------------------------------------------------------------------------
#psi4
#
memory 32 gb

molecule  {
0 1
  N       -1.5631460    -1.0786450     0.0000020
  C        0.9569666     1.4745317    -0.0000016
  C        2.1554110     0.6922200     0.0000020
  C        2.1326810    -0.7203310    -0.0000050
  C        0.9343870    -1.4220840     0.0000000
  C       -0.2481830    -0.6706930     0.0000000
  C       -0.2522510     0.7528300     0.0000150
  C       -1.6207120     1.1681210    -0.0000080
  C       -2.3885810     0.0265560    -0.0000050
  H        1.0121500     2.5200250     0.0000050
  H        3.1140070     1.2059840    -0.0000050
  H        3.0718340    -1.2688090    -0.0000050
  H        0.9183210    -2.5105470    -0.0000040
  H       -1.9975130     2.1830700    -0.0000130
  H       -1.8769340    -2.0399470     0.0000180
  H       -3.4648550    -0.0903210     0.0000040
units angstrom
no_reorient  #important for SAPT in psi4, default
symmetry c1  #important for SAPT in psi4, default
}

set PROPERTIES_ORIGIN ["COM"]
properties('MP2/aug-cc-pvtz', properties = ['dipole'])
--------------------------------------------------------------------------

    Molecular point group: c1
  Charge       = 0
  Multiplicity = 1
  Basis Set: AUG-CC-PVTZ
    Blend: AUG-CC-PVTZ
  Basis Set: (AUG-CC-PVTZ AUX)
    Blend: AUG-CC-PVTZ-JKFIT

    Orbital Energies [Eh]
    ---------------------

    Doubly Occupied:

       1A    -15.605357     2A    -11.273337     3A    -11.268260
       4A    -11.233813     5A    -11.233198     6A    -11.230540
       7A    -11.228650     8A    -11.227050     9A    -11.217644
      10A     -1.296404    11A     -1.124463    12A     -1.056758
      13A     -0.991904    14A     -0.974588    15A     -0.844851
      16A     -0.804799    17A     -0.786744    18A     -0.731339
      19A     -0.662748    20A     -0.644181    21A     -0.602780
      22A     -0.600659    23A     -0.583920    24A     -0.573614
      25A     -0.550274    26A     -0.504173    27A     -0.486652
      28A     -0.461472    29A     -0.386445    30A     -0.298203
      31A     -0.282671

  @DF-RHF Final Energy:  -361.58547765269662

   => Energetics <=

    Nuclear Repulsion Energy =            399.3794996488171023
    One-Electron Energy =               -1280.3949727140754931
    Two-Electron Energy =                 519.4299954125618797
    Total Energy =                       -361.5854776526965679
  Basis Set: (AUG-CC-PVTZ AUX)
    Blend: AUG-CC-PVTZ-RI
    Molecular point group: c1

    Geometry (in Angstrom), charge = 0, multiplicity = 1:

       Center              X                  Y                   Z               Mass
    ------------   -----------------  -----------------  -----------------  -----------------
         N           -1.554012603167    -1.082992537386     0.000002027284    14.003074004430
         C            0.966099996833     1.470184162614    -0.000001572716    12.000000000000
         C            2.164544396833     0.687872462614     0.000002027284    12.000000000000
         C            2.141814396833    -0.724678537386    -0.000004972716    12.000000000000
         C            0.943520396833    -1.426431537386     0.000000027284    12.000000000000
         C           -0.239049603167    -0.675040537386     0.000000027284    12.000000000000
         C           -0.243117603167     0.748482462614     0.000015027284    12.000000000000
         C           -1.611578603167     1.163773462614    -0.000007972716    12.000000000000
         C           -2.379447603167     0.022208462614    -0.000004972716    12.000000000000
         H            1.021283396833     2.515677462614     0.000005027284     1.007825032230
         H            3.123140396833     1.201636462614    -0.000004972716     1.007825032230
         H            3.080967396833    -1.273156537386    -0.000004972716     1.007825032230
         H            0.927454396833    -2.514894537386    -0.000003972716     1.007825032230
         H           -1.988379603167     2.178722462614    -0.000012972716     1.007825032230
         H           -1.867800603167    -2.044294537386     0.000018027284     1.007825032230
         H           -3.455721603167    -0.094668537386     0.000004027284     1.007825032230

  Basis Set: AUG-CC-PVTZ
    Blend: AUG-CC-PVTZ
  Basis Set: (AUG-CC-PVTZ AUX)
    Blend: AUG-CC-PVTZ-JKFIT
	 Reference Energy          =    -361.5854776526966248 [Eh]
	 Singles Energy            =      -0.0000000000000000 [Eh]
	 Same-Spin Energy          =      -0.4080832710868407 [Eh]
	 Opposite-Spin Energy      =      -1.2484162332060238 [Eh]
	 Correlation Energy        =      -1.6564995042928645 [Eh]
	 Total Energy              =    -363.2419771569894920 [Eh]

	 ================> DF-SCS-MP2 Energies <==================
	-----------------------------------------------------------
	 SCS Same-Spin Scale       =       0.3333333333333333 [-]
	 SCS Opposite-Spin Scale   =       1.2000000000000000 [-]
	 SCS Same-Spin Energy      =      -0.1360277570289469 [Eh]
	 SCS Opposite-Spin Energy  =      -1.4980994798472285 [Eh]
	 SCS Correlation Energy    =      -1.6341272368761754 [Eh]
	 SCS Total Energy          =    -363.2196048895727927 [Eh]
	-----------------------------------------------------------

  Dipole Moment: [D]
     X:    -1.4863      Y:    -1.5315      Z:     0.0000     Total:     2.1341

*** Psi4 exiting successfully. Buy a developer a beer!
