                               Psi4 1.3.2 release

  ==> Input File <==

--------------------------------------------------------------------------
#psi4
#
memory 32 gb

molecule  {
0 1
  N       -1.5631460    -1.0786450     0.0000020
  C        0.9814170     1.4318910     0.0000000
  C        2.1554110     0.6922200     0.0000020
  C        2.1326810    -0.7203310    -0.0000050
  C        0.8790919    -1.5027456    -0.0000012
  C       -0.2481830    -0.6706930     0.0000000
  C       -0.2522510     0.7528300     0.0000150
  C       -1.6207120     1.1681210    -0.0000080
  C       -2.3885810     0.0265560    -0.0000050
  H        1.0121500     2.5200250     0.0000050
  H        3.1140070     1.2059840    -0.0000050
  H        3.0718340    -1.2688090    -0.0000050
  H        0.9183210    -2.5105470    -0.0000040
  H       -1.9975130     2.1830700    -0.0000130
  H       -1.8769340    -2.0399470     0.0000180
  H       -3.4648550    -0.0903210     0.0000040
units angstrom
no_reorient  #important for SAPT in psi4, default
symmetry c1  #important for SAPT in psi4, default
}

set PROPERTIES_ORIGIN ["COM"]
properties('MP2/aug-cc-pvtz', properties = ['dipole'])
--------------------------------------------------------------------------

    Molecular point group: c1
  Charge       = 0
  Multiplicity = 1
  Basis Set: AUG-CC-PVTZ
    Blend: AUG-CC-PVTZ
  Basis Set: (AUG-CC-PVTZ AUX)
    Blend: AUG-CC-PVTZ-JKFIT

    Orbital Energies [Eh]
    ---------------------

    Doubly Occupied:

       1A    -15.601917     2A    -11.273718     3A    -11.270237
       4A    -11.240203     5A    -11.234846     6A    -11.233470
       7A    -11.229852     8A    -11.223673     9A    -11.218995
      10A     -1.296049    11A     -1.121260    12A     -1.054611
      13A     -0.998388    14A     -0.967601    15A     -0.847208
      16A     -0.802841    17A     -0.789680    18A     -0.729841
      19A     -0.669140    20A     -0.642392    21A     -0.609882
      22A     -0.599180    23A     -0.583069    24A     -0.572841
      25A     -0.543816    26A     -0.499307    27A     -0.493885
      28A     -0.459325    29A     -0.383747    30A     -0.304220
      31A     -0.276389

  @DF-RHF Final Energy:  -361.57523251175667

   => Energetics <=

    Nuclear Repulsion Energy =            398.8719830778998698
    One-Electron Energy =               -1279.3512640193252992
    Two-Electron Energy =                 518.9040484296688192
    Total Energy =                       -361.5752325117566670
  Basis Set: (AUG-CC-PVTZ AUX)
    Blend: AUG-CC-PVTZ-RI
    Molecular point group: c1

    Geometry (in Angstrom), charge = 0, multiplicity = 1:

       Center              X                  Y                   Z               Mass
    ------------   -----------------  -----------------  -----------------  -----------------
         N           -1.550850607603    -1.070352397406     0.000001986279    14.003074004430
         C            0.993712392397     1.440183602594    -0.000000013721    12.000000000000
         C            2.167706392397     0.700512602594     0.000001986279    12.000000000000
         C            2.144976392397    -0.712038397406    -0.000005013721    12.000000000000
         C            0.891387292397    -1.494452997406    -0.000001213721    12.000000000000
         C           -0.235887607603    -0.662400397406    -0.000000013721    12.000000000000
         C           -0.239955607603     0.761122602594     0.000014986279    12.000000000000
         C           -1.608416607603     1.176413602594    -0.000008013721    12.000000000000
         C           -2.376285607603     0.034848602594    -0.000005013721    12.000000000000
         H            1.024445392397     2.528317602594     0.000004986279     1.007825032230
         H            3.126302392397     1.214276602594    -0.000005013721     1.007825032230
         H            3.084129392397    -1.260516397406    -0.000005013721     1.007825032230
         H            0.930616392397    -2.502254397406    -0.000004013721     1.007825032230
         H           -1.985217607603     2.191362602594    -0.000013013721     1.007825032230
         H           -1.864638607603    -2.031654397406     0.000017986279     1.007825032230
         H           -3.452559607603    -0.082028397406     0.000003986279     1.007825032230

  Basis Set: AUG-CC-PVTZ
    Blend: AUG-CC-PVTZ
  Basis Set: (AUG-CC-PVTZ AUX)
    Blend: AUG-CC-PVTZ-JKFIT
	 Reference Energy          =    -361.5752325117566670 [Eh]
	 Singles Energy            =      -0.0000000000000000 [Eh]
	 Same-Spin Energy          =      -0.4083133869042485 [Eh]
	 Opposite-Spin Energy      =      -1.2492640718752792 [Eh]
	 Correlation Energy        =      -1.6575774587795276 [Eh]
	 Total Energy              =    -363.2328099705362092 [Eh]

	 ================> DF-SCS-MP2 Energies <==================
	-----------------------------------------------------------
	 SCS Same-Spin Scale       =       0.3333333333333333 [-]
	 SCS Opposite-Spin Scale   =       1.2000000000000000 [-]
	 SCS Same-Spin Energy      =      -0.1361044623014162 [Eh]
	 SCS Opposite-Spin Energy  =      -1.4991168862503350 [Eh]
	 SCS Correlation Energy    =      -1.6352213485517511 [Eh]
	 SCS Total Energy          =    -363.2104538603084052 [Eh]
	-----------------------------------------------------------

  Dipole Moment: [D]
     X:    -1.5082      Y:    -1.5261      Z:     0.0000     Total:     2.1456

*** Psi4 exiting successfully. Buy a developer a beer!
