                               Psi4 1.3.2 release

  ==> Input File <==

--------------------------------------------------------------------------
#psi4
#
memory 32 gb

molecule  {
0 1
  N       -1.5631460    -1.0786450     0.0000020
  C        0.9814170     1.4318910     0.0000000
  C        2.1554110     0.6922200     0.0000020
  C        2.1326810    -0.7203310    -0.0000050
  C        0.9343870    -1.4220840     0.0000000
  C       -0.2481830    -0.6706930     0.0000000
  C       -0.2522510     0.7528300     0.0000150
  C       -1.6207120     1.1681210    -0.0000080
  C       -2.3885810     0.0265560    -0.0000050
  H        1.0149733     2.6199851     0.0000055
  H        3.1140070     1.2059840    -0.0000050
  H        3.0718340    -1.2688090    -0.0000050
  H        0.9183210    -2.5105470    -0.0000040
  H       -1.9975130     2.1830700    -0.0000130
  H       -1.8769340    -2.0399470     0.0000180
  H       -3.4648550    -0.0903210     0.0000040
units angstrom
no_reorient  #important for SAPT in psi4, default
symmetry c1  #important for SAPT in psi4, default
}

set PROPERTIES_ORIGIN ["COM"]
properties('MP2/aug-cc-pvtz', properties = ['dipole'])
--------------------------------------------------------------------------

    Molecular point group: c1
  Charge       = 0
  Multiplicity = 1
  Basis Set: AUG-CC-PVTZ
    Blend: AUG-CC-PVTZ
  Basis Set: (AUG-CC-PVTZ AUX)
    Blend: AUG-CC-PVTZ-JKFIT

    Orbital Energies [Eh]
    ---------------------

    Doubly Occupied:

       1A    -15.606151     2A    -11.273470     3A    -11.267990
       4A    -11.242978     5A    -11.234060     6A    -11.231189
       7A    -11.228498     8A    -11.223449     9A    -11.219114
      10A     -1.296756    11A     -1.128581    12A     -1.056067
      13A     -0.995737    14A     -0.973540    15A     -0.839809
      16A     -0.806709    17A     -0.788443    18A     -0.721318
      19A     -0.659766    20A     -0.647866    21A     -0.601937
      22A     -0.584881    23A     -0.584571    24A     -0.573833
      25A     -0.549885    26A     -0.508456    27A     -0.476833
      28A     -0.465642    29A     -0.386517    30A     -0.302139
      31A     -0.283499

  @DF-RHF Final Energy:  -361.58184692351534

   => Energetics <=

    Nuclear Repulsion Energy =            399.5221929549422271
    One-Electron Energy =               -1280.6887063848946582
    Two-Electron Energy =                 519.5846665064369745
    Total Energy =                       -361.5818469235153998
  Basis Set: (AUG-CC-PVTZ AUX)
    Blend: AUG-CC-PVTZ-RI
    Molecular point group: c1

    Geometry (in Angstrom), charge = 0, multiplicity = 1:

       Center              X                  Y                   Z               Mass
    ------------   -----------------  -----------------  -----------------  -----------------
         N           -1.556543404769    -1.079481913266     0.000001858958    14.003074004430
         C            0.988019595231     1.431054086734    -0.000000141042    12.000000000000
         C            2.162013595231     0.691383086734     0.000001858958    12.000000000000
         C            2.139283595231    -0.721167913266    -0.000005141042    12.000000000000
         C            0.940989595231    -1.422920913266    -0.000000141042    12.000000000000
         C           -0.241580404769    -0.671529913266    -0.000000141042    12.000000000000
         C           -0.245648404769     0.751993086734     0.000014858958    12.000000000000
         C           -1.614109404769     1.167284086734    -0.000008141042    12.000000000000
         C           -2.381978404769     0.025719086734    -0.000005141042    12.000000000000
         H            1.021575895231     2.619148186734     0.000005358958     1.007825032230
         H            3.120609595231     1.205147086734    -0.000005141042     1.007825032230
         H            3.078436595231    -1.269645913266    -0.000005141042     1.007825032230
         H            0.924923595231    -2.511383913266    -0.000004141042     1.007825032230
         H           -1.990910404769     2.182233086734    -0.000013141042     1.007825032230
         H           -1.870331404769    -2.040783913266     0.000017858958     1.007825032230
         H           -3.458252404769    -0.091157913266     0.000003858958     1.007825032230

  Basis Set: AUG-CC-PVTZ
    Blend: AUG-CC-PVTZ
  Basis Set: (AUG-CC-PVTZ AUX)
    Blend: AUG-CC-PVTZ-JKFIT
	 Reference Energy          =    -361.5818469235153430 [Eh]
	 Singles Energy            =      -0.0000000000000000 [Eh]
	 Same-Spin Energy          =      -0.4082077072784880 [Eh]
	 Opposite-Spin Energy      =      -1.2487846193085956 [Eh]
	 Correlation Energy        =      -1.6569923265870836 [Eh]
	 Total Energy              =    -363.2388392501024441 [Eh]

	 ================> DF-SCS-MP2 Energies <==================
	-----------------------------------------------------------
	 SCS Same-Spin Scale       =       0.3333333333333333 [-]
	 SCS Opposite-Spin Scale   =       1.2000000000000000 [-]
	 SCS Same-Spin Energy      =      -0.1360692357594960 [Eh]
	 SCS Opposite-Spin Energy  =      -1.4985415431703146 [Eh]
	 SCS Correlation Energy    =      -1.6346107789298105 [Eh]
	 SCS Total Energy          =    -363.2164577024451546 [Eh]
	-----------------------------------------------------------

  Dipole Moment: [D]
     X:    -1.4957      Y:    -1.5957      Z:     0.0000     Total:     2.1871

*** Psi4 exiting successfully. Buy a developer a beer!
