                               Psi4 1.3.2 release

  ==> Input File <==

--------------------------------------------------------------------------
#psi4
#
memory 32 gb

molecule  {
0 1
  N       -1.5631460    -1.0786450     0.0000020
  C        0.9814170     1.4318910     0.0000000
  C        2.1554110     0.6922200     0.0000020
  C        2.1326810    -0.7203310    -0.0000050
  C        0.9343870    -1.4220840     0.0000000
  C       -0.2481830    -0.6706930     0.0000000
  C       -0.2522510     0.7528300     0.0000150
  C       -1.6207120     1.1681210    -0.0000080
  C       -2.3885810     0.0265560    -0.0000050
  H        1.0121500     2.5200250     0.0000050
  H        3.1140070     1.2059840    -0.0000050
  H        3.0718340    -1.2688090    -0.0000050
  H        0.9183210    -2.5105470    -0.0000040
  H       -1.9975130     2.1830700    -0.0000130
  H       -1.9389953    -2.2300743     0.0000212
  H       -3.4648550    -0.0903210     0.0000040
units angstrom
no_reorient  #important for SAPT in psi4, default
symmetry c1  #important for SAPT in psi4, default
}

set PROPERTIES_ORIGIN ["COM"]
properties('MP2/aug-cc-pvtz', properties = ['dipole'])
--------------------------------------------------------------------------

    Molecular point group: c1
  Charge       = 0
  Multiplicity = 1
  Basis Set: AUG-CC-PVTZ
    Blend: AUG-CC-PVTZ
  Basis Set: (AUG-CC-PVTZ AUX)
    Blend: AUG-CC-PVTZ-JKFIT

    Orbital Energies [Eh]
    ---------------------

    Doubly Occupied:

       1A    -15.620609     2A    -11.272733     3A    -11.266686
       4A    -11.232610     5A    -11.231001     6A    -11.229504
       7A    -11.226681     8A    -11.221445     9A    -11.217639
      10A     -1.286066    11A     -1.125119    12A     -1.048863
      13A     -0.990850    14A     -0.971548    15A     -0.838791
      16A     -0.793865    17A     -0.778554    18A     -0.708611
      19A     -0.658337    20A     -0.646472    21A     -0.596529
      22A     -0.584802    23A     -0.581870    24A     -0.569641
      25A     -0.548461    26A     -0.506805    27A     -0.480760
      28A     -0.463400    29A     -0.384715    30A     -0.299851
      31A     -0.281764

  @DF-RHF Final Energy:  -361.55816626614393

   => Energetics <=

    Nuclear Repulsion Energy =            398.9283266557246748
    One-Electron Energy =               -1279.6438250514668198
    Two-Electron Energy =                 519.1573321295981032
    Total Energy =                       -361.5581662661439850
  Basis Set: (AUG-CC-PVTZ AUX)
    Blend: AUG-CC-PVTZ-RI
    Molecular point group: c1

    Geometry (in Angstrom), charge = 0, multiplicity = 1:

       Center              X                  Y                   Z               Mass
    ------------   -----------------  -----------------  -----------------  -----------------
         N           -1.555984772226    -1.076984367435     0.000001835712    14.003074004430
         C            0.988578227774     1.433551632565    -0.000000164288    12.000000000000
         C            2.162572227774     0.693880632565     0.000001835712    12.000000000000
         C            2.139842227774    -0.718670367435    -0.000005164288    12.000000000000
         C            0.941548227774    -1.420423367435    -0.000000164288    12.000000000000
         C           -0.241021772226    -0.669032367435    -0.000000164288    12.000000000000
         C           -0.245089772226     0.754490632565     0.000014835712    12.000000000000
         C           -1.613550772226     1.169781632565    -0.000008164288    12.000000000000
         C           -2.381419772226     0.028216632565    -0.000005164288    12.000000000000
         H            1.019311227774     2.521685632565     0.000004835712     1.007825032230
         H            3.121168227774     1.207644632565    -0.000005164288     1.007825032230
         H            3.078995227774    -1.267148367435    -0.000005164288     1.007825032230
         H            0.925482227774    -2.508886367435    -0.000004164288     1.007825032230
         H           -1.990351772226     2.184730632565    -0.000013164288     1.007825032230
         H           -1.931834072226    -2.228413667435     0.000021035712     1.007825032230
         H           -3.457693772226    -0.088660367435     0.000003835712     1.007825032230

  Basis Set: AUG-CC-PVTZ
    Blend: AUG-CC-PVTZ
  Basis Set: (AUG-CC-PVTZ AUX)
    Blend: AUG-CC-PVTZ-JKFIT
	 Reference Energy          =    -361.5581662661439282 [Eh]
	 Singles Energy            =      -0.0000000000000000 [Eh]
	 Same-Spin Energy          =      -0.4097643395473894 [Eh]
	 Opposite-Spin Energy      =      -1.2524086974028550 [Eh]
	 Correlation Energy        =      -1.6621730369502443 [Eh]
	 Total Energy              =    -363.2203393030941925 [Eh]

	 ================> DF-SCS-MP2 Energies <==================
	-----------------------------------------------------------
	 SCS Same-Spin Scale       =       0.3333333333333333 [-]
	 SCS Opposite-Spin Scale   =       1.2000000000000000 [-]
	 SCS Same-Spin Energy      =      -0.1365881131824631 [Eh]
	 SCS Opposite-Spin Energy  =      -1.5028904368834259 [Eh]
	 SCS Correlation Energy    =      -1.6394785500658891 [Eh]
	 SCS Total Energy          =    -363.1976448162098450 [Eh]
	-----------------------------------------------------------

  Dipole Moment: [D]
     X:    -1.5836      Y:    -1.7632      Z:     0.0000     Total:     2.3700

*** Psi4 exiting successfully. Buy a developer a beer!
