                               Psi4 1.3.2 release

  ==> Input File <==

--------------------------------------------------------------------------
#psi4
#
memory 32 gb

molecule  {
0 1
  N       -1.5631460    -1.0786450     0.0000020
  C        0.9814170     1.4318910     0.0000000
  C        2.1554110     0.6922200     0.0000020
  C        2.1326810    -0.7203310    -0.0000050
  C        0.9343870    -1.4220840     0.0000000
  C       -0.2481830    -0.6706930     0.0000000
  C       -0.2522510     0.7528300     0.0000150
  C       -1.6207120     1.1681210    -0.0000080
  C       -2.3885810     0.0265560    -0.0000050
  H        1.0121500     2.5200250     0.0000050
  H        3.0258678     1.1587454    -0.0000044
  H        3.0718340    -1.2688090    -0.0000050
  H        0.9183210    -2.5105470    -0.0000040
  H       -1.9975130     2.1830700    -0.0000130
  H       -1.8769340    -2.0399470     0.0000180
  H       -3.4648550    -0.0903210     0.0000040
units angstrom
no_reorient  #important for SAPT in psi4, default
symmetry c1  #important for SAPT in psi4, default
}

set PROPERTIES_ORIGIN ["COM"]
properties('MP2/aug-cc-pvtz', properties = ['dipole'])
--------------------------------------------------------------------------

    Molecular point group: c1
  Charge       = 0
  Multiplicity = 1
  Basis Set: AUG-CC-PVTZ
    Blend: AUG-CC-PVTZ
  Basis Set: (AUG-CC-PVTZ AUX)
    Blend: AUG-CC-PVTZ-JKFIT

    Orbital Energies [Eh]
    ---------------------

    Doubly Occupied:

       1A    -15.605429     2A    -11.272839     3A    -11.266794
       4A    -11.232919     5A    -11.230884     6A    -11.229532
       7A    -11.226643     8A    -11.218457     9A    -11.210235
      10A     -1.295947    11A     -1.128860    12A     -1.055583
      13A     -1.000177    14A     -0.973837    15A     -0.845396
      16A     -0.807762    17A     -0.791143    18A     -0.726800
      19A     -0.668569    20A     -0.653853    21A     -0.601279
      22A     -0.595753    23A     -0.583677    24A     -0.574796
      25A     -0.549720    26A     -0.515960    27A     -0.482455
      28A     -0.464313    29A     -0.385605    30A     -0.301150
      31A     -0.282541

  @DF-RHF Final Energy:  -361.58345593438787

   => Energetics <=

    Nuclear Repulsion Energy =            400.5401711466697066
    One-Electron Energy =               -1282.6894336453908636
    Two-Electron Energy =                 520.5658065643332293
    Total Energy =                       -361.5834559343878709
  Basis Set: (AUG-CC-PVTZ AUX)
    Blend: AUG-CC-PVTZ-RI
    Molecular point group: c1

    Geometry (in Angstrom), charge = 0, multiplicity = 1:

       Center              X                  Y                   Z               Mass
    ------------   -----------------  -----------------  -----------------  -----------------
         N           -1.555760251097    -1.078214586593     0.000001858097    14.003074004430
         C            0.988802748903     1.432321413407    -0.000000141903    12.000000000000
         C            2.162796748903     0.692650413407     0.000001858097    12.000000000000
         C            2.140066748903    -0.719900586593    -0.000005141903    12.000000000000
         C            0.941772748903    -1.421653586593    -0.000000141903    12.000000000000
         C           -0.240797251097    -0.670262586593    -0.000000141903    12.000000000000
         C           -0.244865251097     0.753260413407     0.000014858097    12.000000000000
         C           -1.613326251097     1.168551413407    -0.000008141903    12.000000000000
         C           -2.381195251097     0.026986413407    -0.000005141903    12.000000000000
         H            1.019535748903     2.520455413407     0.000004858097     1.007825032230
         H            3.033253548903     1.159175813407    -0.000004541903     1.007825032230
         H            3.079219748903    -1.268378586593    -0.000005141903     1.007825032230
         H            0.925706748903    -2.510116586593    -0.000004141903     1.007825032230
         H           -1.990127251097     2.183500413407    -0.000013141903     1.007825032230
         H           -1.869548251097    -2.039516586593     0.000017858097     1.007825032230
         H           -3.457469251097    -0.089890586593     0.000003858097     1.007825032230

  Basis Set: AUG-CC-PVTZ
    Blend: AUG-CC-PVTZ
  Basis Set: (AUG-CC-PVTZ AUX)
    Blend: AUG-CC-PVTZ-JKFIT
	 Reference Energy          =    -361.5834559343878709 [Eh]
	 Singles Energy            =      -0.0000000000000000 [Eh]
	 Same-Spin Energy          =      -0.4078454974526610 [Eh]
	 Opposite-Spin Energy      =      -1.2473696519055144 [Eh]
	 Correlation Energy        =      -1.6552151493581753 [Eh]
	 Total Energy              =    -363.2386710837460555 [Eh]

	 ================> DF-SCS-MP2 Energies <==================
	-----------------------------------------------------------
	 SCS Same-Spin Scale       =       0.3333333333333333 [-]
	 SCS Opposite-Spin Scale   =       1.2000000000000000 [-]
	 SCS Same-Spin Energy      =      -0.1359484991508870 [Eh]
	 SCS Opposite-Spin Energy  =      -1.4968435822866173 [Eh]
	 SCS Correlation Energy    =      -1.6327920814375043 [Eh]
	 SCS Total Energy          =    -363.2162480158253857 [Eh]
	-----------------------------------------------------------

  Dipole Moment: [D]
     X:    -1.4498      Y:    -1.5278      Z:     0.0000     Total:     2.1062

*** Psi4 exiting successfully. Buy a developer a beer!
