                               Psi4 1.4a3.dev225

  ==> Input File <==

--------------------------------------------------------------------------
#psi4
#
memory 32 gb

molecule  {
0 1
  N       -1.5630850    -1.0784890    -0.0000040
  C        0.9811620     1.4317850    -0.0000050
  C        2.1553110     0.6923450     0.0000000
  C        2.1328040    -0.7200770     0.0000000
  C        0.9346070    -1.4219960     0.0000040
  C       -0.2479390    -0.6706250     0.0000000
  C       -0.2522910     0.7524290     0.0000030
  C       -1.6208000     1.1677860     0.0000050
  C       -2.3888340     0.0267020    -0.0000020
  H        1.0113780     2.5197500    -0.0000020
  H        3.1138040     1.2059540    -0.0000050
  H        3.0720020    -1.2682500     0.0000030
  H        0.9191827    -2.4902341     0.0000020
  H       -1.9966350     2.1828910     0.0000100
  H       -1.8770410    -2.0396260     0.0000000
  H       -3.4649170    -0.0911630    -0.0000050
units angstrom
no_reorient  #important for SAPT in psi4, default
symmetry c1  #important for SAPT in psi4, default
}

set PROPERTIES_ORIGIN ["COM"]
properties('MP2/aug-cc-pvtz', properties = ['dipole'])
--------------------------------------------------------------------------

    Molecular point group: c1
  Charge       = 0
  Multiplicity = 1
  Basis Set: AUG-CC-PVTZ
    Blend: AUG-CC-PVTZ
  Basis Set: (AUG-CC-PVTZ AUX)
    Blend: AUG-CC-PVTZ-JKFIT

    Orbital Energies [Eh]
    ---------------------

    Doubly Occupied:

       1A    -15.605587     2A    -11.273090     3A    -11.266888
       4A    -11.231595     5A    -11.231402     6A    -11.229965
       7A    -11.227044     8A    -11.222220     9A    -11.218709
      10A     -1.296154    11A     -1.128495    12A     -1.056205
      13A     -0.996713    14A     -0.974410    15A     -0.843041
      16A     -0.806114    17A     -0.788692    18A     -0.728173
      19A     -0.662540    20A     -0.648143    21A     -0.601860
      22A     -0.597014    23A     -0.583948    24A     -0.574374
      25A     -0.549918    26A     -0.507669    27A     -0.483422
      28A     -0.464811    29A     -0.385952    30A     -0.301429
      31A     -0.282976

  @DF-RHF Final Energy:  -361.58946266207107

   => Energetics <=

    Nuclear Repulsion Energy =            400.1260784330686988
    One-Electron Energy =               -1281.8939746464586733
    Two-Electron Energy =                 520.1784335513190172
    Total Energy =                       -361.5894626620710142
  Basis Set: (AUG-CC-PVTZ AUX)
    Blend: AUG-CC-PVTZ-RI
    Molecular point group: c1

    Geometry (in Angstrom), charge = 0, multiplicity = 1:

       Center              X                  Y                   Z               Mass
    ------------   -----------------  -----------------  -----------------  -----------------
         N           -1.556456695012    -1.078638497147    -0.000004059895    14.003074004430
         C            0.987790304988     1.431635502853    -0.000005059895    12.000000000000
         C            2.161939304988     0.692195502853    -0.000000059895    12.000000000000
         C            2.139432304988    -0.720226497147    -0.000000059895    12.000000000000
         C            0.941235304988    -1.422145497147     0.000003940105    12.000000000000
         C           -0.241310695012    -0.670774497147    -0.000000059895    12.000000000000
         C           -0.245662695012     0.752279502853     0.000002940105    12.000000000000
         C           -1.614171695012     1.167636502853     0.000004940105    12.000000000000
         C           -2.382205695012     0.026552502853    -0.000002059895    12.000000000000
         H            1.018006304988     2.519600502853    -0.000002059895     1.007825032230
         H            3.120432304988     1.205804502853    -0.000005059895     1.007825032230
         H            3.078630304988    -1.268399497147     0.000002940105     1.007825032230
         H            0.925811004988    -2.490383597147     0.000001940105     1.007825032230
         H           -1.990006695012     2.182741502853     0.000009940105     1.007825032230
         H           -1.870412695012    -2.039775497147    -0.000000059895     1.007825032230
         H           -3.458288695012    -0.091312497147    -0.000005059895     1.007825032230

  Basis Set: AUG-CC-PVTZ
    Blend: AUG-CC-PVTZ
  Basis Set: (AUG-CC-PVTZ AUX)
    Blend: AUG-CC-PVTZ-JKFIT
	 Reference Energy          =    -361.5894626620710710 [Eh]
	 Singles Energy            =      -0.0000000000000000 [Eh]
	 Same-Spin Energy          =      -0.4079246009242009 [Eh]
	 Opposite-Spin Energy      =      -1.2477248063046285 [Eh]
	 Correlation Energy        =      -1.6556494072288293 [Eh]
	 Total Energy              =    -363.2451120692999211 [Eh]

	 ================> DF-SCS-MP2 Energies <==================
	-----------------------------------------------------------
	 SCS Same-Spin Scale       =       0.3333333333333333 [-]
	 SCS Opposite-Spin Scale   =       1.2000000000000000 [-]
	 SCS Same-Spin Energy      =      -0.1359748669747336 [Eh]
	 SCS Opposite-Spin Energy  =      -1.4972697675655542 [Eh]
	 SCS Correlation Energy    =      -1.6332446345402878 [Eh]
	 SCS Total Energy          =    -363.2227072966113610 [Eh]
	-----------------------------------------------------------

  Dipole Moment: [D]
     X:    -1.4837      Y:    -1.5535      Z:     0.0000     Total:     2.1482

*** Psi4 exiting successfully. Buy a developer a beer!
