                               Psi4 1.4a3.dev225

  ==> Input File <==

--------------------------------------------------------------------------
#psi4
#
memory 32 gb

molecule  {
0 1
  N       -1.5630850    -1.0784890    -0.0000040
  C        0.9811620     1.4317850    -0.0000050
  C        2.1553110     0.6923450     0.0000000
  C        2.1328040    -0.7200770     0.0000000
  C        0.9346070    -1.4219960     0.0000040
  C       -0.2479390    -0.6706250     0.0000000
  C       -0.2523522     0.7724289     0.0000030
  C       -1.6208000     1.1677860     0.0000050
  C       -2.3888340     0.0267020    -0.0000020
  H        1.0113780     2.5197500    -0.0000020
  H        3.1138040     1.2059540    -0.0000050
  H        3.0720020    -1.2682500     0.0000030
  H        0.9188940    -2.5102320     0.0000020
  H       -1.9966350     2.1828910     0.0000100
  H       -1.8770410    -2.0396260     0.0000000
  H       -3.4649170    -0.0911630    -0.0000050
units angstrom
no_reorient  #important for SAPT in psi4, default
symmetry c1  #important for SAPT in psi4, default
}

set PROPERTIES_ORIGIN ["COM"]
properties('MP2/aug-cc-pvtz', properties = ['dipole'])
--------------------------------------------------------------------------

    Molecular point group: c1
  Charge       = 0
  Multiplicity = 1
  Basis Set: AUG-CC-PVTZ
    Blend: AUG-CC-PVTZ
  Basis Set: (AUG-CC-PVTZ AUX)
    Blend: AUG-CC-PVTZ-JKFIT

    Orbital Energies [Eh]
    ---------------------

    Doubly Occupied:

       1A    -15.606711     2A    -11.273807     3A    -11.269250
       4A    -11.233127     5A    -11.230734     6A    -11.230294
       7A    -11.228177     8A    -11.222181     9A    -11.219065
      10A     -1.295802    11A     -1.128181    12A     -1.057273
      13A     -0.995531    14A     -0.974696    15A     -0.842196
      16A     -0.807734    17A     -0.788046    18A     -0.726532
      19A     -0.663190    20A     -0.647687    21A     -0.601835
      22A     -0.595166    23A     -0.583504    24A     -0.573970
      25A     -0.550265    26A     -0.510046    27A     -0.479138
      28A     -0.465077    29A     -0.388283    30A     -0.299993
      31A     -0.282708

  @DF-RHF Final Energy:  -361.58825141618195

   => Energetics <=

    Nuclear Repulsion Energy =            399.8118451428841240
    One-Electron Energy =               -1281.2597967224082822
    Two-Electron Energy =                 519.8597001633422678
    Total Energy =                       -361.5882514161819472
  Basis Set: (AUG-CC-PVTZ AUX)
    Blend: AUG-CC-PVTZ-RI
    Molecular point group: c1

    Geometry (in Angstrom), charge = 0, multiplicity = 1:

       Center              X                  Y                   Z               Mass
    ------------   -----------------  -----------------  -----------------  -----------------
         N           -1.556447935590    -1.080516580652    -0.000004059895    14.003074004430
         C            0.987799064410     1.429757419348    -0.000005059895    12.000000000000
         C            2.161948064410     0.690317419348    -0.000000059895    12.000000000000
         C            2.139441064410    -0.722104580652    -0.000000059895    12.000000000000
         C            0.941244064410    -1.424023580652     0.000003940105    12.000000000000
         C           -0.241301935590    -0.672652580652    -0.000000059895    12.000000000000
         C           -0.245715135590     0.770401319348     0.000002940105    12.000000000000
         C           -1.614162935590     1.165758419348     0.000004940105    12.000000000000
         C           -2.382196935590     0.024674419348    -0.000002059895    12.000000000000
         H            1.018015064410     2.517722419348    -0.000002059895     1.007825032230
         H            3.120441064410     1.203926419348    -0.000005059895     1.007825032230
         H            3.078639064410    -1.270277580652     0.000002940105     1.007825032230
         H            0.925531064410    -2.512259580652     0.000001940105     1.007825032230
         H           -1.989997935590     2.180863419348     0.000009940105     1.007825032230
         H           -1.870403935590    -2.041653580652    -0.000000059895     1.007825032230
         H           -3.458279935590    -0.093190580652    -0.000005059895     1.007825032230

  Basis Set: AUG-CC-PVTZ
    Blend: AUG-CC-PVTZ
  Basis Set: (AUG-CC-PVTZ AUX)
    Blend: AUG-CC-PVTZ-JKFIT
	 Reference Energy          =    -361.5882514161819472 [Eh]
	 Singles Energy            =      -0.0000000000000000 [Eh]
	 Same-Spin Energy          =      -0.4082451677284850 [Eh]
	 Opposite-Spin Energy      =      -1.2481214919676926 [Eh]
	 Correlation Energy        =      -1.6563666596961775 [Eh]
	 Total Energy              =    -363.2446180758781225 [Eh]

	 ================> DF-SCS-MP2 Energies <==================
	-----------------------------------------------------------
	 SCS Same-Spin Scale       =       0.3333333333333333 [-]
	 SCS Opposite-Spin Scale   =       1.2000000000000000 [-]
	 SCS Same-Spin Energy      =      -0.1360817225761616 [Eh]
	 SCS Opposite-Spin Energy  =      -1.4977457903612310 [Eh]
	 SCS Correlation Energy    =      -1.6338275129373927 [Eh]
	 SCS Total Energy          =    -363.2220789291193341 [Eh]
	-----------------------------------------------------------

  Dipole Moment: [D]
     X:    -1.5164      Y:    -1.5656      Z:     0.0000     Total:     2.1796

*** Psi4 exiting successfully. Buy a developer a beer!
