                               Psi4 1.3.2 release

  ==> Input File <==

--------------------------------------------------------------------------
#psi4
#
memory 32 gb

molecule  {
0 1
  N       -1.5631460    -1.0786450     0.0000020
  C        0.9814170     1.4318910     0.0000000
  C        2.2262964     0.8189878     0.0000001
  C        2.1326810    -0.7203310    -0.0000050
  C        0.9343870    -1.4220840     0.0000000
  C       -0.2481830    -0.6706930     0.0000000
  C       -0.2522510     0.7528300     0.0000150
  C       -1.6207120     1.1681210    -0.0000080
  C       -2.3885810     0.0265560    -0.0000050
  H        1.0121500     2.5200250     0.0000050
  H        3.1140070     1.2059840    -0.0000050
  H        3.0718340    -1.2688090    -0.0000050
  H        0.9183210    -2.5105470    -0.0000040
  H       -1.9975130     2.1830700    -0.0000130
  H       -1.8769340    -2.0399470     0.0000180
  H       -3.4648550    -0.0903210     0.0000040
units angstrom
no_reorient  #important for SAPT in psi4, default
symmetry c1  #important for SAPT in psi4, default
}

set PROPERTIES_ORIGIN ["COM"]
properties('MP2/aug-cc-pvtz', properties = ['dipole'])
--------------------------------------------------------------------------

    Molecular point group: c1
  Charge       = 0
  Multiplicity = 1
  Basis Set: AUG-CC-PVTZ
    Blend: AUG-CC-PVTZ
  Basis Set: (AUG-CC-PVTZ AUX)
    Blend: AUG-CC-PVTZ-JKFIT

    Orbital Energies [Eh]
    ---------------------

    Doubly Occupied:

       1A    -15.608397     2A    -11.270817     3A    -11.268895
       4A    -11.243030     5A    -11.235456     6A    -11.235167
       7A    -11.226989     8A    -11.225741     9A    -11.220811
      10A     -1.296885    11A     -1.118661    12A     -1.054703
      13A     -0.999996    14A     -0.968351    15A     -0.841659
      16A     -0.808801    17A     -0.793450    18A     -0.724361
      19A     -0.678708    20A     -0.651926    21A     -0.599190
      22A     -0.594829    23A     -0.584104    24A     -0.569384
      25A     -0.540869    26A     -0.538402    27A     -0.461870
      28A     -0.455944    29A     -0.386634    30A     -0.302832
      31A     -0.280006

  @DF-RHF Final Energy:  -361.56234315500564

   => Energetics <=

    Nuclear Repulsion Energy =            397.8837707190712649
    One-Electron Energy =               -1277.3184910013155786
    Two-Electron Energy =                 517.8723771272386784
    Total Energy =                       -361.5623431550056921
  Basis Set: (AUG-CC-PVTZ AUX)
    Blend: AUG-CC-PVTZ-RI
    Molecular point group: c1

    Geometry (in Angstrom), charge = 0, multiplicity = 1:

       Center              X                  Y                   Z               Mass
    ------------   -----------------  -----------------  -----------------  -----------------
         N           -1.563785801697    -1.091616693789     0.000002058038    14.003074004430
         C            0.980777198303     1.418919306211     0.000000058038    12.000000000000
         C            2.225656598303     0.806016106211     0.000000158038    12.000000000000
         C            2.132041198303    -0.733302693789    -0.000004941962    12.000000000000
         C            0.933747198303    -1.435055693789     0.000000058038    12.000000000000
         C           -0.248822801697    -0.683664693789     0.000000058038    12.000000000000
         C           -0.252890801697     0.739858306211     0.000015058038    12.000000000000
         C           -1.621351801697     1.155149306211    -0.000007941962    12.000000000000
         C           -2.389220801697     0.013584306211    -0.000004941962    12.000000000000
         H            1.011510198303     2.507053306211     0.000005058038     1.007825032230
         H            3.113367198303     1.193012306211    -0.000004941962     1.007825032230
         H            3.071194198303    -1.281780693789    -0.000004941962     1.007825032230
         H            0.917681198303    -2.523518693789    -0.000003941962     1.007825032230
         H           -1.998152801697     2.170098306211    -0.000012941962     1.007825032230
         H           -1.877573801697    -2.052918693789     0.000018058038     1.007825032230
         H           -3.465494801697    -0.103292693789     0.000004058038     1.007825032230

  Basis Set: AUG-CC-PVTZ
    Blend: AUG-CC-PVTZ
  Basis Set: (AUG-CC-PVTZ AUX)
    Blend: AUG-CC-PVTZ-JKFIT
	 Reference Energy          =    -361.5623431550056353 [Eh]
	 Singles Energy            =      -0.0000000000000000 [Eh]
	 Same-Spin Energy          =      -0.4075629838934360 [Eh]
	 Opposite-Spin Energy      =      -1.2495435464871167 [Eh]
	 Correlation Energy        =      -1.6571065303805528 [Eh]
	 Total Energy              =    -363.2194496853861665 [Eh]

	 ================> DF-SCS-MP2 Energies <==================
	-----------------------------------------------------------
	 SCS Same-Spin Scale       =       0.3333333333333333 [-]
	 SCS Opposite-Spin Scale   =       1.2000000000000000 [-]
	 SCS Same-Spin Energy      =      -0.1358543279644787 [Eh]
	 SCS Opposite-Spin Energy  =      -1.4994522557845400 [Eh]
	 SCS Correlation Energy    =      -1.6353065837490186 [Eh]
	 SCS Total Energy          =    -363.1976497387546488 [Eh]
	-----------------------------------------------------------

  Dipole Moment: [D]
     X:    -1.5104      Y:    -1.5656      Z:     0.0000     Total:     2.1754

*** Psi4 exiting successfully. Buy a developer a beer!
