                               Psi4 1.3.2 release

  ==> Input File <==

--------------------------------------------------------------------------
#psi4
#
memory 32 gb

molecule  {
0 1
  N       -1.5631460    -1.0786450     0.0000020
  C        0.9814170     1.4318910     0.0000000
  C        2.1554110     0.6922200     0.0000020
  C        2.1202512    -0.6995248    -0.0000050
  C        0.9343870    -1.4220840     0.0000000
  C       -0.2481830    -0.6706930     0.0000000
  C       -0.2522510     0.7528300     0.0000150
  C       -1.6207120     1.1681210    -0.0000080
  C       -2.3885810     0.0265560    -0.0000050
  H        1.0121500     2.5200250     0.0000050
  H        3.1140070     1.2059840    -0.0000050
  H        3.0718340    -1.2688090    -0.0000050
  H        0.9183210    -2.5105470    -0.0000040
  H       -1.9975130     2.1830700    -0.0000130
  H       -1.8769340    -2.0399470     0.0000180
  H       -3.4648550    -0.0903210     0.0000040
units angstrom
no_reorient  #important for SAPT in psi4, default
symmetry c1  #important for SAPT in psi4, default
}

set PROPERTIES_ORIGIN ["COM"]
properties('MP2/aug-cc-pvtz', properties = ['dipole'])
--------------------------------------------------------------------------

    Molecular point group: c1
  Charge       = 0
  Multiplicity = 1
  Basis Set: AUG-CC-PVTZ
    Blend: AUG-CC-PVTZ
  Basis Set: (AUG-CC-PVTZ AUX)
    Blend: AUG-CC-PVTZ-JKFIT

    Orbital Energies [Eh]
    ---------------------

    Doubly Occupied:

       1A    -15.605218     2A    -11.273234     3A    -11.267258
       4A    -11.233025     5A    -11.231812     6A    -11.229996
       7A    -11.227219     8A    -11.220275     9A    -11.218785
      10A     -1.296230    11A     -1.130691    12A     -1.056003
      13A     -0.998112    14A     -0.973770    15A     -0.843757
      16A     -0.804677    17A     -0.788274    18A     -0.727324
      19A     -0.660088    20A     -0.647615    21A     -0.602040
      22A     -0.596662    23A     -0.584096    24A     -0.575389
      25A     -0.547163    26A     -0.505420    27A     -0.483531
      28A     -0.466844    29A     -0.386022    30A     -0.302743
      31A     -0.282577

  @DF-RHF Final Energy:  -361.58857006578916

   => Energetics <=

    Nuclear Repulsion Energy =            400.3857481983804405
    One-Electron Energy =               -1282.4169392186133791
    Two-Electron Energy =                 520.4426209544436688
    Total Energy =                       -361.5885700657892130
  Basis Set: (AUG-CC-PVTZ AUX)
    Blend: AUG-CC-PVTZ-RI
    Molecular point group: c1

    Geometry (in Angstrom), charge = 0, multiplicity = 1:

       Center              X                  Y                   Z               Mass
    ------------   -----------------  -----------------  -----------------  -----------------
         N           -1.555244875936    -1.080754208203     0.000001863263    14.003074004430
         C            0.989318124064     1.429781791797    -0.000000136737    12.000000000000
         C            2.163312124064     0.690110791797     0.000001863263    12.000000000000
         C            2.128152324064    -0.701634008203    -0.000005136737    12.000000000000
         C            0.942288124064    -1.424193208203    -0.000000136737    12.000000000000
         C           -0.240281875936    -0.672802208203    -0.000000136737    12.000000000000
         C           -0.244349875936     0.750720791797     0.000014863263    12.000000000000
         C           -1.612810875936     1.166011791797    -0.000008136737    12.000000000000
         C           -2.380679875936     0.024446791797    -0.000005136737    12.000000000000
         H            1.020051124064     2.517915791797     0.000004863263     1.007825032230
         H            3.121908124064     1.203874791797    -0.000005136737     1.007825032230
         H            3.079735124064    -1.270918208203    -0.000005136737     1.007825032230
         H            0.926222124064    -2.512656208203    -0.000004136737     1.007825032230
         H           -1.989611875936     2.180960791797    -0.000013136737     1.007825032230
         H           -1.869032875936    -2.042056208203     0.000017863263     1.007825032230
         H           -3.456953875936    -0.092430208203     0.000003863263     1.007825032230

  Basis Set: AUG-CC-PVTZ
    Blend: AUG-CC-PVTZ
  Basis Set: (AUG-CC-PVTZ AUX)
    Blend: AUG-CC-PVTZ-JKFIT
	 Reference Energy          =    -361.5885700657891562 [Eh]
	 Singles Energy            =      -0.0000000000000000 [Eh]
	 Same-Spin Energy          =      -0.4080524804435004 [Eh]
	 Opposite-Spin Energy      =      -1.2478514653299386 [Eh]
	 Correlation Energy        =      -1.6559039457734390 [Eh]
	 Total Energy              =    -363.2444740115626018 [Eh]

	 ================> DF-SCS-MP2 Energies <==================
	-----------------------------------------------------------
	 SCS Same-Spin Scale       =       0.3333333333333333 [-]
	 SCS Opposite-Spin Scale   =       1.2000000000000000 [-]
	 SCS Same-Spin Energy      =      -0.1360174934811668 [Eh]
	 SCS Opposite-Spin Energy  =      -1.4974217583959264 [Eh]
	 SCS Correlation Energy    =      -1.6334392518770933 [Eh]
	 SCS Total Energy          =    -363.2220093176662772 [Eh]
	-----------------------------------------------------------

  Dipole Moment: [D]
     X:    -1.4888      Y:    -1.5415      Z:     0.0000     Total:     2.1431

*** Psi4 exiting successfully. Buy a developer a beer!
