                               Psi4 1.3.2 release

  ==> Input File <==

--------------------------------------------------------------------------
#psi4
#
memory 32 gb

molecule  {
0 1
  N       -1.5631460    -1.0786450     0.0000020
  C        1.0079463     1.4724122     0.0000003
  C        2.1554110     0.6922200     0.0000020
  C        2.1326810    -0.7203310    -0.0000050
  C        0.9343870    -1.4220840     0.0000000
  C       -0.2481830    -0.6706930     0.0000000
  C       -0.2522510     0.7528300     0.0000150
  C       -1.6207120     1.1681210    -0.0000080
  C       -2.3885810     0.0265560    -0.0000050
  H        1.0121500     2.5200250     0.0000050
  H        3.1140070     1.2059840    -0.0000050
  H        3.0718340    -1.2688090    -0.0000050
  H        0.9183210    -2.5105470    -0.0000040
  H       -1.9975130     2.1830700    -0.0000130
  H       -1.8769340    -2.0399470     0.0000180
  H       -3.4648550    -0.0903210     0.0000040
units angstrom
no_reorient  #important for SAPT in psi4, default
symmetry c1  #important for SAPT in psi4, default
}

set PROPERTIES_ORIGIN ["COM"]
properties('MP2/aug-cc-pvtz', properties = ['dipole'])
--------------------------------------------------------------------------

    Molecular point group: c1
  Charge       = 0
  Multiplicity = 1
  Basis Set: AUG-CC-PVTZ
    Blend: AUG-CC-PVTZ
  Basis Set: (AUG-CC-PVTZ AUX)
    Blend: AUG-CC-PVTZ-JKFIT

    Orbital Energies [Eh]
    ---------------------

    Doubly Occupied:

       1A    -15.605920     2A    -11.272169     3A    -11.266205
       4A    -11.235358     5A    -11.232696     6A    -11.230743
       7A    -11.230559     8A    -11.223757     9A    -11.218060
      10A     -1.295611    11A     -1.124971    12A     -1.054241
      13A     -0.997900    14A     -0.972022    15A     -0.842605
      16A     -0.804576    17A     -0.786292    18A     -0.730924
      19A     -0.663819    20A     -0.645631    21A     -0.604309
      22A     -0.598124    23A     -0.582993    24A     -0.574126
      25A     -0.548931    26A     -0.500139    27A     -0.489222
      28A     -0.463013    29A     -0.383355    30A     -0.303310
      31A     -0.280810

  @DF-RHF Final Energy:  -361.58592075391158

   => Energetics <=

    Nuclear Repulsion Energy =            399.1558335440960263
    One-Electron Energy =               -1279.9587230715501391
    Two-Electron Energy =                 519.2169687735424759
    Total Energy =                       -361.5859207539116369
  Basis Set: (AUG-CC-PVTZ AUX)
    Blend: AUG-CC-PVTZ-RI
    Molecular point group: c1

    Geometry (in Angstrom), charge = 0, multiplicity = 1:

       Center              X                  Y                   Z               Mass
    ------------   -----------------  -----------------  -----------------  -----------------
         N           -1.559238706363    -1.082775260201     0.000001832509    14.003074004430
         C            1.011853593637     1.468281939799     0.000000132509    12.000000000000
         C            2.159318293637     0.688089739799     0.000001832509    12.000000000000
         C            2.136588293637    -0.724461260201    -0.000005167491    12.000000000000
         C            0.938294293637    -1.426214260201    -0.000000167491    12.000000000000
         C           -0.244275706363    -0.674823260201    -0.000000167491    12.000000000000
         C           -0.248343706363     0.748699739799     0.000014832509    12.000000000000
         C           -1.616804706363     1.163990739799    -0.000008167491    12.000000000000
         C           -2.384673706363     0.022425739799    -0.000005167491    12.000000000000
         H            1.016057293637     2.515894739799     0.000004832509     1.007825032230
         H            3.117914293637     1.201853739799    -0.000005167491     1.007825032230
         H            3.075741293637    -1.272939260201    -0.000005167491     1.007825032230
         H            0.922228293637    -2.514677260201    -0.000004167491     1.007825032230
         H           -1.993605706363     2.178939739799    -0.000013167491     1.007825032230
         H           -1.873026706363    -2.044077260201     0.000017832509     1.007825032230
         H           -3.460947706363    -0.094451260201     0.000003832509     1.007825032230

  Basis Set: AUG-CC-PVTZ
    Blend: AUG-CC-PVTZ
  Basis Set: (AUG-CC-PVTZ AUX)
    Blend: AUG-CC-PVTZ-JKFIT
	 Reference Energy          =    -361.5859207539115801 [Eh]
	 Singles Energy            =      -0.0000000000000000 [Eh]
	 Same-Spin Energy          =      -0.4079212882747349 [Eh]
	 Opposite-Spin Energy      =      -1.2482730565809095 [Eh]
	 Correlation Energy        =      -1.6561943448556444 [Eh]
	 Total Energy              =    -363.2421150987672149 [Eh]

	 ================> DF-SCS-MP2 Energies <==================
	-----------------------------------------------------------
	 SCS Same-Spin Scale       =       0.3333333333333333 [-]
	 SCS Opposite-Spin Scale   =       1.2000000000000000 [-]
	 SCS Same-Spin Energy      =      -0.1359737627582450 [Eh]
	 SCS Opposite-Spin Energy  =      -1.4979276678970914 [Eh]
	 SCS Correlation Energy    =      -1.6339014306553363 [Eh]
	 SCS Total Energy          =    -363.2198221845669082 [Eh]
	-----------------------------------------------------------

  Dipole Moment: [D]
     X:    -1.4642      Y:    -1.5304      Z:     0.0000     Total:     2.1180

*** Psi4 exiting successfully. Buy a developer a beer!
