                               Psi4 1.3.2 release

  ==> Input File <==

--------------------------------------------------------------------------
#psi4
#
memory 32 gb

molecule  {
0 1
  N       -1.5631460    -1.0786450     0.0000020
  C        0.9814170     1.4318910     0.0000000
  C        2.1554110     0.6922200     0.0000020
  C        2.1326810    -0.7203310    -0.0000050
  C        0.9343870    -1.4220840     0.0000000
  C       -0.2730275    -0.6705472    -0.0000005
  C       -0.2522510     0.7528300     0.0000150
  C       -1.6207120     1.1681210    -0.0000080
  C       -2.3885810     0.0265560    -0.0000050
  H        1.0121500     2.5200250     0.0000050
  H        3.1140070     1.2059840    -0.0000050
  H        3.0718340    -1.2688090    -0.0000050
  H        0.9183210    -2.5105470    -0.0000040
  H       -1.9975130     2.1830700    -0.0000130
  H       -1.8769340    -2.0399470     0.0000180
  H       -3.4648550    -0.0903210     0.0000040
units angstrom
no_reorient  #important for SAPT in psi4, default
symmetry c1  #important for SAPT in psi4, default
}

set PROPERTIES_ORIGIN ["COM"]
properties('MP2/aug-cc-pvtz', properties = ['dipole'])
--------------------------------------------------------------------------

    Molecular point group: c1
  Charge       = 0
  Multiplicity = 1
  Basis Set: AUG-CC-PVTZ
    Blend: AUG-CC-PVTZ
  Basis Set: (AUG-CC-PVTZ AUX)
    Blend: AUG-CC-PVTZ-JKFIT

    Orbital Energies [Eh]
    ---------------------

    Doubly Occupied:

       1A    -15.607645     2A    -11.271735     3A    -11.267515
       4A    -11.234860     5A    -11.231967     6A    -11.230560
       7A    -11.225955     8A    -11.221686     9A    -11.219480
      10A     -1.303760    11A     -1.126488    12A     -1.056366
      13A     -0.994620    14A     -0.974833    15A     -0.843748
      16A     -0.805536    17A     -0.788999    18A     -0.728540
      19A     -0.664957    20A     -0.647165    21A     -0.600479
      22A     -0.594437    23A     -0.587743    24A     -0.573586
      25A     -0.550862    26A     -0.507684    27A     -0.480870
      28A     -0.464138    29A     -0.385958    30A     -0.298529
      31A     -0.284509

  @DF-RHF Final Energy:  -361.58845116855173

   => Energetics <=

    Nuclear Repulsion Energy =            400.0527977840615108
    One-Electron Energy =               -1281.7320773638984974
    Two-Electron Energy =                 520.0908284112852016
    Total Energy =                       -361.5884511685517282
  Basis Set: (AUG-CC-PVTZ AUX)
    Blend: AUG-CC-PVTZ-RI
    Molecular point group: c1

    Geometry (in Angstrom), charge = 0, multiplicity = 1:

       Center              X                  Y                   Z               Mass
    ------------   -----------------  -----------------  -----------------  -----------------
         N           -1.553972202630    -1.078636240022     0.000001914520    14.003074004430
         C            0.990590797370     1.431899759978    -0.000000085480    12.000000000000
         C            2.164584797370     0.692228759978     0.000001914520    12.000000000000
         C            2.141854797370    -0.720322240022    -0.000005085480    12.000000000000
         C            0.943560797370    -1.422075240022    -0.000000085480    12.000000000000
         C           -0.263853702630    -0.670538440022    -0.000000585480    12.000000000000
         C           -0.243077202630     0.752838759978     0.000014914520    12.000000000000
         C           -1.611538202630     1.168129759978    -0.000008085480    12.000000000000
         C           -2.379407202630     0.026564759978    -0.000005085480    12.000000000000
         H            1.021323797370     2.520033759978     0.000004914520     1.007825032230
         H            3.123180797370     1.205992759978    -0.000005085480     1.007825032230
         H            3.081007797370    -1.268800240022    -0.000005085480     1.007825032230
         H            0.927494797370    -2.510538240022    -0.000004085480     1.007825032230
         H           -1.988339202630     2.183078759978    -0.000013085480     1.007825032230
         H           -1.867760202630    -2.039938240022     0.000017914520     1.007825032230
         H           -3.455681202630    -0.090312240022     0.000003914520     1.007825032230

  Basis Set: AUG-CC-PVTZ
    Blend: AUG-CC-PVTZ
  Basis Set: (AUG-CC-PVTZ AUX)
    Blend: AUG-CC-PVTZ-JKFIT
	 Reference Energy          =    -361.5884511685517282 [Eh]
	 Singles Energy            =      -0.0000000000000000 [Eh]
	 Same-Spin Energy          =      -0.4079826956450930 [Eh]
	 Opposite-Spin Energy      =      -1.2478914949662050 [Eh]
	 Correlation Energy        =      -1.6558741906112979 [Eh]
	 Total Energy              =    -363.2443253591630423 [Eh]

	 ================> DF-SCS-MP2 Energies <==================
	-----------------------------------------------------------
	 SCS Same-Spin Scale       =       0.3333333333333333 [-]
	 SCS Opposite-Spin Scale   =       1.2000000000000000 [-]
	 SCS Same-Spin Energy      =      -0.1359942318816977 [Eh]
	 SCS Opposite-Spin Energy  =      -1.4974697939594459 [Eh]
	 SCS Correlation Energy    =      -1.6334640258411435 [Eh]
	 SCS Total Energy          =    -363.2219151943928637 [Eh]
	-----------------------------------------------------------

  Dipole Moment: [D]
     X:    -1.5418      Y:    -1.5716      Z:     0.0000     Total:     2.2016

*** Psi4 exiting successfully. Buy a developer a beer!
