                               Psi4 1.3.2 release

  ==> Input File <==

--------------------------------------------------------------------------
#psi4
#
memory 32 gb

molecule  {
0 1
  N       -1.4521429    -0.9863091     0.0000019
  C        0.9814170     1.4318910     0.0000000
  C        2.1554110     0.6922200     0.0000020
  C        2.1326810    -0.7203310    -0.0000050
  C        0.9343870    -1.4220840     0.0000000
  C       -0.2481830    -0.6706930     0.0000000
  C       -0.2522510     0.7528300     0.0000150
  C       -1.6207120     1.1681210    -0.0000080
  C       -2.3885810     0.0265560    -0.0000050
  H        1.0121500     2.5200250     0.0000050
  H        3.1140070     1.2059840    -0.0000050
  H        3.0718340    -1.2688090    -0.0000050
  H        0.9183210    -2.5105470    -0.0000040
  H       -1.9975130     2.1830700    -0.0000130
  H       -1.8769340    -2.0399470     0.0000180
  H       -3.4648550    -0.0903210     0.0000040
units angstrom
no_reorient  #important for SAPT in psi4, default
symmetry c1  #important for SAPT in psi4, default
}

set PROPERTIES_ORIGIN ["COM"]
properties('MP2/aug-cc-pvtz', properties = ['dipole'])
--------------------------------------------------------------------------

    Molecular point group: c1
  Charge       = 0
  Multiplicity = 1
  Basis Set: AUG-CC-PVTZ
    Blend: AUG-CC-PVTZ
  Basis Set: (AUG-CC-PVTZ AUX)
    Blend: AUG-CC-PVTZ-JKFIT

    Orbital Energies [Eh]
    ---------------------

    Doubly Occupied:

       1A    -15.616511     2A    -11.267146     3A    -11.256985
       4A    -11.231766     5A    -11.231513     6A    -11.228180
       7A    -11.220527     8A    -11.218108     9A    -11.215406
      10A     -1.335624    11A     -1.122913    12A     -1.059121
      13A     -0.992306    14A     -0.979112    15A     -0.852738
      16A     -0.797018    17A     -0.784497    18A     -0.719500
      19A     -0.682408    20A     -0.645589    21A     -0.609583
      22A     -0.598413    23A     -0.578532    24A     -0.564201
      25A     -0.556106    26A     -0.504670    27A     -0.476978
      28A     -0.460927    29A     -0.390415    30A     -0.289021
      31A     -0.286385

  @DF-RHF Final Energy:  -361.55248474223947

   => Energetics <=

    Nuclear Repulsion Energy =            403.4198210290704196
    One-Electron Energy =               -1288.4002137553159173
    Two-Electron Energy =                 523.4279079840060831
    Total Energy =                       -361.5524847422394714
  Basis Set: (AUG-CC-PVTZ AUX)
    Blend: AUG-CC-PVTZ-RI
    Molecular point group: c1

    Geometry (in Angstrom), charge = 0, multiplicity = 1:

       Center              X                  Y                   Z               Mass
    ------------   -----------------  -----------------  -----------------  -----------------
         N           -1.458794770333    -0.997331098314     0.000001775225    14.003074004430
         C            0.974765129667     1.420869001686    -0.000000124775    12.000000000000
         C            2.148759129667     0.681198001686     0.000001875225    12.000000000000
         C            2.126029129667    -0.731352998314    -0.000005124775    12.000000000000
         C            0.927735129667    -1.433105998314    -0.000000124775    12.000000000000
         C           -0.254834870333    -0.681714998314    -0.000000124775    12.000000000000
         C           -0.258902870333     0.741808001686     0.000014875225    12.000000000000
         C           -1.627363870333     1.157099001686    -0.000008124775    12.000000000000
         C           -2.395232870333     0.015534001686    -0.000005124775    12.000000000000
         H            1.005498129667     2.509003001686     0.000004875225     1.007825032230
         H            3.107355129667     1.194962001686    -0.000005124775     1.007825032230
         H            3.065182129667    -1.279830998314    -0.000005124775     1.007825032230
         H            0.911669129667    -2.521568998314    -0.000004124775     1.007825032230
         H           -2.004164870333     2.172048001686    -0.000013124775     1.007825032230
         H           -1.883585870333    -2.050968998314     0.000017875225     1.007825032230
         H           -3.471506870333    -0.101342998314     0.000003875225     1.007825032230

  Basis Set: AUG-CC-PVTZ
    Blend: AUG-CC-PVTZ
  Basis Set: (AUG-CC-PVTZ AUX)
    Blend: AUG-CC-PVTZ-JKFIT
	 Reference Energy          =    -361.5524847422394714 [Eh]
	 Singles Energy            =      -0.0000000000000000 [Eh]
	 Same-Spin Energy          =      -0.4102858669466223 [Eh]
	 Opposite-Spin Energy      =      -1.2507453506612762 [Eh]
	 Correlation Energy        =      -1.6610312176078985 [Eh]
	 Total Energy              =    -363.2135159598473706 [Eh]

	 ================> DF-SCS-MP2 Energies <==================
	-----------------------------------------------------------
	 SCS Same-Spin Scale       =       0.3333333333333333 [-]
	 SCS Opposite-Spin Scale   =       1.2000000000000000 [-]
	 SCS Same-Spin Energy      =      -0.1367619556488741 [Eh]
	 SCS Opposite-Spin Energy  =      -1.5008944207935315 [Eh]
	 SCS Correlation Energy    =      -1.6376563764424057 [Eh]
	 SCS Total Energy          =    -363.1901411186818791 [Eh]
	-----------------------------------------------------------

  Dipole Moment: [D]
     X:    -1.8625      Y:    -1.7261      Z:     0.0000     Total:     2.5394

*** Psi4 exiting successfully. Buy a developer a beer!
