                               Psi4 1.3.2 release

  ==> Input File <==

--------------------------------------------------------------------------
#psi4
#
memory 32 gb

molecule  {
0 1
  N       -1.5631460    -1.0786450     0.0000020
  C        0.9814170     1.4318910     0.0000000
  C        2.1554110     0.6922200     0.0000020
  C        2.1326810    -0.7203310    -0.0000050
  C        0.9343870    -1.4220840     0.0000000
  C       -0.2481830    -0.6706930     0.0000000
  C       -0.2516795     0.5528308     0.0000129
  C       -1.6207120     1.1681210    -0.0000080
  C       -2.3885810     0.0265560    -0.0000050
  H        1.0121500     2.5200250     0.0000050
  H        3.1140070     1.2059840    -0.0000050
  H        3.0718340    -1.2688090    -0.0000050
  H        0.9183210    -2.5105470    -0.0000040
  H       -1.9975130     2.1830700    -0.0000130
  H       -1.8769340    -2.0399470     0.0000180
  H       -3.4648550    -0.0903210     0.0000040
units angstrom
no_reorient  #important for SAPT in psi4, default
symmetry c1  #important for SAPT in psi4, default
}

set PROPERTIES_ORIGIN ["COM"]
properties('MP2/aug-cc-pvtz', properties = ['dipole'])
--------------------------------------------------------------------------

    Molecular point group: c1
  Charge       = 0
  Multiplicity = 1
  Basis Set: AUG-CC-PVTZ
    Blend: AUG-CC-PVTZ
  Basis Set: (AUG-CC-PVTZ AUX)
    Blend: AUG-CC-PVTZ-JKFIT

    Orbital Energies [Eh]
    ---------------------

    Doubly Occupied:

       1A    -15.593239     2A    -11.267974     3A    -11.241904
       4A    -11.239405     5A    -11.237569     6A    -11.232630
       7A    -11.224790     8A    -11.216987     9A    -11.214922
      10A     -1.303554    11A     -1.134695    12A     -1.042461
      13A     -1.014327    14A     -0.969438    15A     -0.848223
      16A     -0.795005    17A     -0.784162    18A     -0.733730
      19A     -0.652070    20A     -0.646545    21A     -0.606058
      22A     -0.594712    23A     -0.593028    24A     -0.579846
      25A     -0.543266    26A     -0.506624    27A     -0.470673
      28A     -0.464656    29A     -0.362889    30A     -0.325951
      31A     -0.285899

  @DF-RHF Final Energy:  -361.53701287944250

   => Energetics <=

    Nuclear Repulsion Energy =            402.3519344374870457
    One-Electron Energy =               -1286.3234322866974253
    Two-Electron Energy =                 522.4344849697679365
    Total Energy =                       -361.5370128794425000
  Basis Set: (AUG-CC-PVTZ AUX)
    Blend: AUG-CC-PVTZ-RI
    Molecular point group: c1

    Geometry (in Angstrom), charge = 0, multiplicity = 1:

       Center              X                  Y                   Z               Mass
    ------------   -----------------  -----------------  -----------------  -----------------
         N           -1.556577683612    -1.058118692367     0.000002078541    14.003074004430
         C            0.987985316388     1.452417307633     0.000000078541    12.000000000000
         C            2.161979316388     0.712746307633     0.000002078541    12.000000000000
         C            2.139249316388    -0.699804692367    -0.000004921459    12.000000000000
         C            0.940955316388    -1.401557692367     0.000000078541    12.000000000000
         C           -0.241614683612    -0.650166692367     0.000000078541    12.000000000000
         C           -0.245111183612     0.573357107633     0.000012978541    12.000000000000
         C           -1.614143683612     1.188647307633    -0.000007921459    12.000000000000
         C           -2.382012683612     0.047082307633    -0.000004921459    12.000000000000
         H            1.018718316388     2.540551307633     0.000005078541     1.007825032230
         H            3.120575316388     1.226510307633    -0.000004921459     1.007825032230
         H            3.078402316388    -1.248282692367    -0.000004921459     1.007825032230
         H            0.924889316388    -2.490020692367    -0.000003921459     1.007825032230
         H           -1.990944683612     2.203596307633    -0.000012921459     1.007825032230
         H           -1.870365683612    -2.019420692367     0.000018078541     1.007825032230
         H           -3.458286683612    -0.069794692367     0.000004078541     1.007825032230

  Basis Set: AUG-CC-PVTZ
    Blend: AUG-CC-PVTZ
  Basis Set: (AUG-CC-PVTZ AUX)
    Blend: AUG-CC-PVTZ-JKFIT
	 Reference Energy          =    -361.5370128794425000 [Eh]
	 Singles Energy            =      -0.0000000000000000 [Eh]
	 Same-Spin Energy          =      -0.4054256008255699 [Eh]
	 Opposite-Spin Energy      =      -1.2475913445476814 [Eh]
	 Correlation Energy        =      -1.6530169453732513 [Eh]
	 Total Energy              =    -363.1900298248157242 [Eh]

	 ================> DF-SCS-MP2 Energies <==================
	-----------------------------------------------------------
	 SCS Same-Spin Scale       =       0.3333333333333333 [-]
	 SCS Opposite-Spin Scale   =       1.2000000000000000 [-]
	 SCS Same-Spin Energy      =      -0.1351418669418566 [Eh]
	 SCS Opposite-Spin Energy  =      -1.4971096134572177 [Eh]
	 SCS Correlation Energy    =      -1.6322514803990744 [Eh]
	 SCS Total Energy          =    -363.1692643598415771 [Eh]
	-----------------------------------------------------------

  Dipole Moment: [D]
     X:    -1.0632      Y:    -1.3572      Z:     0.0000     Total:     1.7240

*** Psi4 exiting successfully. Buy a developer a beer!
