                               Psi4 1.3.2 release

  ==> Input File <==

--------------------------------------------------------------------------
#psi4
#
memory 32 gb

molecule  {
0 1
  N       -1.5250779    -1.0491645     0.0000020
  C        0.9814170     1.4318910     0.0000000
  C        2.1554110     0.6922200     0.0000020
  C        2.1326810    -0.7203310    -0.0000050
  C        0.9343870    -1.4220840     0.0000000
  C       -0.2481830    -0.6706930     0.0000000
  C       -0.2522510     0.7528300     0.0000150
  C       -1.6207120     1.1681210    -0.0000080
  C       -2.3885810     0.0265560    -0.0000050
  H        1.0121500     2.5200250     0.0000050
  H        3.1140070     1.2059840    -0.0000050
  H        3.0718340    -1.2688090    -0.0000050
  H        0.9183210    -2.5105470    -0.0000040
  H       -1.9975130     2.1830700    -0.0000130
  H       -1.8769340    -2.0399470     0.0000180
  H       -3.4648550    -0.0903210     0.0000040
units angstrom
no_reorient  #important for SAPT in psi4, default
symmetry c1  #important for SAPT in psi4, default
}

set PROPERTIES_ORIGIN ["COM"]
properties('MP2/aug-cc-pvtz', properties = ['dipole'])
--------------------------------------------------------------------------

    Molecular point group: c1
  Charge       = 0
  Multiplicity = 1
  Basis Set: AUG-CC-PVTZ
    Blend: AUG-CC-PVTZ
  Basis Set: (AUG-CC-PVTZ AUX)
    Blend: AUG-CC-PVTZ-JKFIT

    Orbital Energies [Eh]
    ---------------------

    Doubly Occupied:

       1A    -15.609300     2A    -11.270896     3A    -11.263759
       4A    -11.231987     5A    -11.231433     6A    -11.230409
       7A    -11.224153     8A    -11.220096     9A    -11.219038
      10A     -1.307609    11A     -1.126399    12A     -1.055807
      13A     -0.994263    14A     -0.976372    15A     -0.845688
      16A     -0.800413    17A     -0.788496    18A     -0.725098
      19A     -0.668712    20A     -0.646812    21A     -0.597735
      22A     -0.591468    23A     -0.590801    24A     -0.573439
      25A     -0.552721    26A     -0.506760    27A     -0.481218
      28A     -0.463476    29A     -0.387224    30A     -0.296825
      31A     -0.284394

  @DF-RHF Final Energy:  -361.58473541954476

   => Energetics <=

    Nuclear Repulsion Energy =            401.0924651763999691
    One-Electron Energy =               -1283.8287971071340507
    Two-Electron Energy =                 521.1515965111893820
    Total Energy =                       -361.5847354195446997
  Basis Set: (AUG-CC-PVTZ AUX)
    Blend: AUG-CC-PVTZ-RI
    Molecular point group: c1

    Geometry (in Angstrom), charge = 0, multiplicity = 1:

       Center              X                  Y                   Z               Mass
    ------------   -----------------  -----------------  -----------------  -----------------
         N           -1.523004903020    -1.052667405629     0.000001863263    14.003074004430
         C            0.983489996980     1.428388094371    -0.000000136737    12.000000000000
         C            2.157483996980     0.688717094371     0.000001863263    12.000000000000
         C            2.134753996980    -0.723833905629    -0.000005136737    12.000000000000
         C            0.936459996980    -1.425586905629    -0.000000136737    12.000000000000
         C           -0.246110003020    -0.674195905629    -0.000000136737    12.000000000000
         C           -0.250178003020     0.749327094371     0.000014863263    12.000000000000
         C           -1.618639003020     1.164618094371    -0.000008136737    12.000000000000
         C           -2.386508003020     0.023053094371    -0.000005136737    12.000000000000
         H            1.014222996980     2.516522094371     0.000004863263     1.007825032230
         H            3.116079996980     1.202481094371    -0.000005136737     1.007825032230
         H            3.073906996980    -1.272311905629    -0.000005136737     1.007825032230
         H            0.920393996980    -2.514049905629    -0.000004136737     1.007825032230
         H           -1.995440003020     2.179567094371    -0.000013136737     1.007825032230
         H           -1.874861003020    -2.043449905629     0.000017863263     1.007825032230
         H           -3.462782003020    -0.093823905629     0.000003863263     1.007825032230

  Basis Set: AUG-CC-PVTZ
    Blend: AUG-CC-PVTZ
  Basis Set: (AUG-CC-PVTZ AUX)
    Blend: AUG-CC-PVTZ-JKFIT
	 Reference Energy          =    -361.5847354195447565 [Eh]
	 Singles Energy            =      -0.0000000000000000 [Eh]
	 Same-Spin Energy          =      -0.4086509792053664 [Eh]
	 Opposite-Spin Energy      =      -1.2485216280558109 [Eh]
	 Correlation Energy        =      -1.6571726072611774 [Eh]
	 Total Energy              =    -363.2419080268059588 [Eh]

	 ================> DF-SCS-MP2 Energies <==================
	-----------------------------------------------------------
	 SCS Same-Spin Scale       =       0.3333333333333333 [-]
	 SCS Opposite-Spin Scale   =       1.2000000000000000 [-]
	 SCS Same-Spin Energy      =      -0.1362169930684555 [Eh]
	 SCS Opposite-Spin Energy  =      -1.4982259536669731 [Eh]
	 SCS Correlation Energy    =      -1.6344429467354287 [Eh]
	 SCS Total Energy          =    -363.2191783662801754 [Eh]
	-----------------------------------------------------------

  Dipole Moment: [D]
     X:    -1.6234      Y:    -1.6197      Z:     0.0000     Total:     2.2932

*** Psi4 exiting successfully. Buy a developer a beer!
