                               Psi4 1.3.2 release

  ==> Input File <==

--------------------------------------------------------------------------
#psi4
#
memory 32 gb

molecule  {
0 1
  N       -1.5631460    -1.0786450     0.0000020
  C        0.9814170     1.4318910     0.0000000
  C        2.1554110     0.6922200     0.0000020
  C        2.1326810    -0.7203310    -0.0000050
  C        0.9343870    -1.4220840     0.0000000
  C       -0.2481830    -0.6706930     0.0000000
  C       -0.2522510     0.7528300     0.0000150
  C       -1.6207120     1.1681210    -0.0000080
  C       -2.3885810     0.0265560    -0.0000050
  H        1.0121500     2.5200250     0.0000050
  H        3.1140070     1.2059840    -0.0000050
  H        3.0718340    -1.2688090    -0.0000050
  H        0.9183210    -2.5105470    -0.0000040
  H       -1.9975130     2.1830700    -0.0000130
  H       -1.9079647    -2.1350107     0.0000196
  H       -3.4648550    -0.0903210     0.0000040
units angstrom
no_reorient  #important for SAPT in psi4, default
symmetry c1  #important for SAPT in psi4, default
}

set PROPERTIES_ORIGIN ["COM"]
properties('MP2/aug-cc-pvtz', properties = ['dipole'])
--------------------------------------------------------------------------

    Molecular point group: c1
  Charge       = 0
  Multiplicity = 1
  Basis Set: AUG-CC-PVTZ
    Blend: AUG-CC-PVTZ
  Basis Set: (AUG-CC-PVTZ AUX)
    Blend: AUG-CC-PVTZ-JKFIT

    Orbital Energies [Eh]
    ---------------------

    Doubly Occupied:

       1A    -15.613998     2A    -11.272915     3A    -11.266862
       4A    -11.233079     5A    -11.231318     6A    -11.229940
       7A    -11.226928     8A    -11.221901     9A    -11.218182
      10A     -1.290284    11A     -1.126515    12A     -1.051823
      13A     -0.993250    14A     -0.972851    15A     -0.840095
      16A     -0.797542    17A     -0.784216    18A     -0.718219
      19A     -0.660137    20A     -0.646938    21A     -0.597864
      22A     -0.591470    23A     -0.582874    24A     -0.572746
      25A     -0.549285    26A     -0.507261    27A     -0.481743
      28A     -0.464109    29A     -0.385346    30A     -0.300635
      31A     -0.282345

  @DF-RHF Final Energy:  -361.57824479328639

   => Energetics <=

    Nuclear Repulsion Energy =            399.4327481466020231
    One-Electron Energy =               -1280.5966414138229084
    Two-Electron Energy =                 519.5856484739344978
    Total Energy =                       -361.5782447932863306
  Basis Set: (AUG-CC-PVTZ AUX)
    Blend: AUG-CC-PVTZ-RI
    Molecular point group: c1

    Geometry (in Angstrom), charge = 0, multiplicity = 1:

       Center              X                  Y                   Z               Mass
    ------------   -----------------  -----------------  -----------------  -----------------
         N           -1.556251934280    -1.077802830070     0.000001849488    14.003074004430
         C            0.988311065720     1.432733169930    -0.000000150512    12.000000000000
         C            2.162305065720     0.693062169930     0.000001849488    12.000000000000
         C            2.139575065720    -0.719488830070    -0.000005150512    12.000000000000
         C            0.941281065720    -1.421241830070    -0.000000150512    12.000000000000
         C           -0.241288934280    -0.669850830070    -0.000000150512    12.000000000000
         C           -0.245356934280     0.753672169930     0.000014849488    12.000000000000
         C           -1.613817934280     1.168963169930    -0.000008150512    12.000000000000
         C           -2.381686934280     0.027398169930    -0.000005150512    12.000000000000
         H            1.019044065720     2.520867169930     0.000004849488     1.007825032230
         H            3.120901065720     1.206826169930    -0.000005150512     1.007825032230
         H            3.078728065720    -1.267966830070    -0.000005150512     1.007825032230
         H            0.925215065720    -2.509704830070    -0.000004150512     1.007825032230
         H           -1.990618934280     2.183912169930    -0.000013150512     1.007825032230
         H           -1.901070634280    -2.134168530070     0.000019449488     1.007825032230
         H           -3.457960934280    -0.089478830070     0.000003849488     1.007825032230

  Basis Set: AUG-CC-PVTZ
    Blend: AUG-CC-PVTZ
  Basis Set: (AUG-CC-PVTZ AUX)
    Blend: AUG-CC-PVTZ-JKFIT
	 Reference Energy          =    -361.5782447932863874 [Eh]
	 Singles Energy            =      -0.0000000000000000 [Eh]
	 Same-Spin Energy          =      -0.4088501006445537 [Eh]
	 Opposite-Spin Energy      =      -1.2499941192149930 [Eh]
	 Correlation Energy        =      -1.6588442198595468 [Eh]
	 Total Energy              =    -363.2370890131459191 [Eh]

	 ================> DF-SCS-MP2 Energies <==================
	-----------------------------------------------------------
	 SCS Same-Spin Scale       =       0.3333333333333333 [-]
	 SCS Opposite-Spin Scale   =       1.2000000000000000 [-]
	 SCS Same-Spin Energy      =      -0.1362833668815179 [Eh]
	 SCS Opposite-Spin Energy  =      -1.4999929430579917 [Eh]
	 SCS Correlation Energy    =      -1.6362763099395097 [Eh]
	 SCS Total Energy          =    -363.2145211032258771 [Eh]
	-----------------------------------------------------------

  Dipole Moment: [D]
     X:    -1.5365      Y:    -1.6572      Z:     0.0000     Total:     2.2599

*** Psi4 exiting successfully. Buy a developer a beer!
