                               Psi4 1.3.2 release

  ==> Input File <==

--------------------------------------------------------------------------
#psi4
#
memory 32 gb

molecule  {
0 1
  N       -1.5631460    -1.0786450     0.0000020
  C        0.9814170     1.4318910     0.0000000
  C        2.1554110     0.6922200     0.0000020
  C        2.1326810    -0.7203310    -0.0000050
  C        0.9343870    -1.4220840     0.0000000
  C       -0.2481830    -0.6706930     0.0000000
  C       -0.2266153     0.8493006     0.0000142
  C       -1.6207120     1.1681210    -0.0000080
  C       -2.3885810     0.0265560    -0.0000050
  H        1.0121500     2.5200250     0.0000050
  H        3.1140070     1.2059840    -0.0000050
  H        3.0718340    -1.2688090    -0.0000050
  H        0.9183210    -2.5105470    -0.0000040
  H       -1.9975130     2.1830700    -0.0000130
  H       -1.8769340    -2.0399470     0.0000180
  H       -3.4648550    -0.0903210     0.0000040
units angstrom
no_reorient  #important for SAPT in psi4, default
symmetry c1  #important for SAPT in psi4, default
}

set PROPERTIES_ORIGIN ["COM"]
properties('MP2/aug-cc-pvtz', properties = ['dipole'])
--------------------------------------------------------------------------

    Molecular point group: c1
  Charge       = 0
  Multiplicity = 1
  Basis Set: AUG-CC-PVTZ
    Blend: AUG-CC-PVTZ
  Basis Set: (AUG-CC-PVTZ AUX)
    Blend: AUG-CC-PVTZ-JKFIT

    Orbital Energies [Eh]
    ---------------------

    Doubly Occupied:

       1A    -15.609537     2A    -11.277205     3A    -11.276880
       4A    -11.232369     5A    -11.231339     6A    -11.230082
       7A    -11.224491     8A    -11.222398     9A    -11.221210
      10A     -1.293626    11A     -1.129918    12A     -1.059067
      13A     -0.993401    14A     -0.976917    15A     -0.843705
      16A     -0.811766    17A     -0.786063    18A     -0.724528
      19A     -0.667675    20A     -0.648327    21A     -0.602125
      22A     -0.596093    23A     -0.581358    24A     -0.576047
      25A     -0.547457    26A     -0.516710    27A     -0.467782
      28A     -0.461620    29A     -0.395450    30A     -0.293896
      31A     -0.284151

  @DF-RHF Final Energy:  -361.57557221021773

   => Energetics <=

    Nuclear Repulsion Energy =            399.0336301278737778
    One-Electron Energy =               -1279.6520132606842708
    Two-Electron Energy =                 519.0428109225928210
    Total Energy =                       -361.5755722102177288
  Basis Set: (AUG-CC-PVTZ AUX)
    Blend: AUG-CC-PVTZ-RI
    Molecular point group: c1

    Geometry (in Angstrom), charge = 0, multiplicity = 1:

       Center              X                  Y                   Z               Mass
    ------------   -----------------  -----------------  -----------------  -----------------
         N           -1.559147100375    -1.088510824321     0.000001945274    14.003074004430
         C            0.985415899625     1.422025175679    -0.000000054726    12.000000000000
         C            2.159409899625     0.682354175679     0.000001945274    12.000000000000
         C            2.136679899625    -0.730196824321    -0.000005054726    12.000000000000
         C            0.938385899625    -1.431949824321    -0.000000054726    12.000000000000
         C           -0.244184100375    -0.680558824321    -0.000000054726    12.000000000000
         C           -0.222616400375     0.839434775679     0.000014145274    12.000000000000
         C           -1.616713100375     1.158255175679    -0.000008054726    12.000000000000
         C           -2.384582100375     0.016690175679    -0.000005054726    12.000000000000
         H            1.016148899625     2.510159175679     0.000004945274     1.007825032230
         H            3.118005899625     1.196118175679    -0.000005054726     1.007825032230
         H            3.075832899625    -1.278674824321    -0.000005054726     1.007825032230
         H            0.922319899625    -2.520412824321    -0.000004054726     1.007825032230
         H           -1.993514100375     2.173204175679    -0.000013054726     1.007825032230
         H           -1.872935100375    -2.049812824321     0.000017945274     1.007825032230
         H           -3.460856100375    -0.100186824321     0.000003945274     1.007825032230

  Basis Set: AUG-CC-PVTZ
    Blend: AUG-CC-PVTZ
  Basis Set: (AUG-CC-PVTZ AUX)
    Blend: AUG-CC-PVTZ-JKFIT
	 Reference Energy          =    -361.5755722102177288 [Eh]
	 Singles Energy            =      -0.0000000000000000 [Eh]
	 Same-Spin Energy          =      -0.4089204729404525 [Eh]
	 Opposite-Spin Energy      =      -1.2490570434770829 [Eh]
	 Correlation Energy        =      -1.6579775164175354 [Eh]
	 Total Energy              =    -363.2335497266352604 [Eh]

	 ================> DF-SCS-MP2 Energies <==================
	-----------------------------------------------------------
	 SCS Same-Spin Scale       =       0.3333333333333333 [-]
	 SCS Opposite-Spin Scale   =       1.2000000000000000 [-]
	 SCS Same-Spin Energy      =      -0.1363068243134842 [Eh]
	 SCS Opposite-Spin Energy  =      -1.4988684521724995 [Eh]
	 SCS Correlation Energy    =      -1.6351752764859837 [Eh]
	 SCS Total Energy          =    -363.2107474867037240 [Eh]
	-----------------------------------------------------------

  Dipole Moment: [D]
     X:    -1.5904      Y:    -1.6353      Z:     0.0000     Total:     2.2811

*** Psi4 exiting successfully. Buy a developer a beer!
