                               Psi4 1.3.2 release

  ==> Input File <==

--------------------------------------------------------------------------
#psi4
#
memory 32 gb

molecule  {
0 1
  N       -1.5631460    -1.0786450     0.0000020
  C        0.9814170     1.4318910     0.0000000
  C        2.1554110     0.6922200     0.0000020
  C        2.1326810    -0.7203310    -0.0000050
  C        0.9343870    -1.4220840     0.0000000
  C       -0.2798435    -0.5799596    -0.0000006
  C       -0.2522510     0.7528300     0.0000150
  C       -1.6207120     1.1681210    -0.0000080
  C       -2.3885810     0.0265560    -0.0000050
  H        1.0121500     2.5200250     0.0000050
  H        3.1140070     1.2059840    -0.0000050
  H        3.0718340    -1.2688090    -0.0000050
  H        0.9183210    -2.5105470    -0.0000040
  H       -1.9975130     2.1830700    -0.0000130
  H       -1.8769340    -2.0399470     0.0000180
  H       -3.4648550    -0.0903210     0.0000040
units angstrom
no_reorient  #important for SAPT in psi4, default
symmetry c1  #important for SAPT in psi4, default
}

set PROPERTIES_ORIGIN ["COM"]
properties('MP2/aug-cc-pvtz', properties = ['dipole'])
--------------------------------------------------------------------------

    Molecular point group: c1
  Charge       = 0
  Multiplicity = 1
  Basis Set: AUG-CC-PVTZ
    Blend: AUG-CC-PVTZ
  Basis Set: (AUG-CC-PVTZ AUX)
    Blend: AUG-CC-PVTZ-JKFIT

    Orbital Energies [Eh]
    ---------------------

    Doubly Occupied:

       1A    -15.602698     2A    -11.268548     3A    -11.263634
       4A    -11.240816     5A    -11.234223     6A    -11.231301
       7A    -11.223697     8A    -11.216685     9A    -11.215685
      10A     -1.299882    11A     -1.131041    12A     -1.056049
      13A     -0.993732    14A     -0.974203    15A     -0.844474
      16A     -0.801569    17A     -0.787795    18A     -0.730843
      19A     -0.661655    20A     -0.647807    21A     -0.606253
      22A     -0.589279    23A     -0.586898    24A     -0.571327
      25A     -0.548823    26A     -0.505893    27A     -0.487381
      28A     -0.464949    29A     -0.379048    30A     -0.304581
      31A     -0.287378

  @DF-RHF Final Energy:  -361.57858677088393

   => Energetics <=

    Nuclear Repulsion Energy =            400.8603613048446732
    One-Electron Energy =               -1283.3616042571823073
    Two-Electron Energy =                 520.9226561814537035
    Total Energy =                       -361.5785867708839305
  Basis Set: (AUG-CC-PVTZ AUX)
    Blend: AUG-CC-PVTZ-RI
    Molecular point group: c1

    Geometry (in Angstrom), charge = 0, multiplicity = 1:

       Center              X                  Y                   Z               Mass
    ------------   -----------------  -----------------  -----------------  -----------------
         N           -1.553273471186    -1.087922684350     0.000001924771    14.003074004430
         C            0.991289528814     1.422613315650    -0.000000075229    12.000000000000
         C            2.165283528814     0.682942315650     0.000001924771    12.000000000000
         C            2.142553528814    -0.729608684350    -0.000005075229    12.000000000000
         C            0.944259528814    -1.431361684350    -0.000000075229    12.000000000000
         C           -0.269970971186    -0.589237284350    -0.000000675229    12.000000000000
         C           -0.242378471186     0.743552315650     0.000014924771    12.000000000000
         C           -1.610839471186     1.158843315650    -0.000008075229    12.000000000000
         C           -2.378708471186     0.017278315650    -0.000005075229    12.000000000000
         H            1.022022528814     2.510747315650     0.000004924771     1.007825032230
         H            3.123879528814     1.196706315650    -0.000005075229     1.007825032230
         H            3.081706528814    -1.278086684350    -0.000005075229     1.007825032230
         H            0.928193528814    -2.519824684350    -0.000004075229     1.007825032230
         H           -1.987640471186     2.173792315650    -0.000013075229     1.007825032230
         H           -1.867061471186    -2.049224684350     0.000017924771     1.007825032230
         H           -3.454982471186    -0.099598684350     0.000003924771     1.007825032230

  Basis Set: AUG-CC-PVTZ
    Blend: AUG-CC-PVTZ
  Basis Set: (AUG-CC-PVTZ AUX)
    Blend: AUG-CC-PVTZ-JKFIT
	 Reference Energy          =    -361.5785867708839305 [Eh]
	 Singles Energy            =      -0.0000000000000000 [Eh]
	 Same-Spin Energy          =      -0.4067554152348257 [Eh]
	 Opposite-Spin Energy      =      -1.2475982609480343 [Eh]
	 Correlation Energy        =      -1.6543536761828599 [Eh]
	 Total Energy              =    -363.2329404470667669 [Eh]

	 ================> DF-SCS-MP2 Energies <==================
	-----------------------------------------------------------
	 SCS Same-Spin Scale       =       0.3333333333333333 [-]
	 SCS Opposite-Spin Scale   =       1.2000000000000000 [-]
	 SCS Same-Spin Energy      =      -0.1355851384116086 [Eh]
	 SCS Opposite-Spin Energy  =      -1.4971179131376411 [Eh]
	 SCS Correlation Energy    =      -1.6327030515492496 [Eh]
	 SCS Total Energy          =    -363.2112898224331730 [Eh]
	-----------------------------------------------------------

  Dipole Moment: [D]
     X:    -1.3185      Y:    -1.5881      Z:     0.0000     Total:     2.0641

*** Psi4 exiting successfully. Buy a developer a beer!
