                               Psi4 1.3.2 release

  ==> Input File <==

--------------------------------------------------------------------------
#psi4
#
memory 32 gb

molecule  {
0 1
  N       -1.5631460    -1.0786450     0.0000020
  C        0.9814170     1.4318910     0.0000000
  C        2.1288817     0.6516988     0.0000026
  C        2.1326810    -0.7203310    -0.0000050
  C        0.9343870    -1.4220840     0.0000000
  C       -0.2481830    -0.6706930     0.0000000
  C       -0.2522510     0.7528300     0.0000150
  C       -1.6207120     1.1681210    -0.0000080
  C       -2.3885810     0.0265560    -0.0000050
  H        1.0121500     2.5200250     0.0000050
  H        3.1140070     1.2059840    -0.0000050
  H        3.0718340    -1.2688090    -0.0000050
  H        0.9183210    -2.5105470    -0.0000040
  H       -1.9975130     2.1830700    -0.0000130
  H       -1.8769340    -2.0399470     0.0000180
  H       -3.4648550    -0.0903210     0.0000040
units angstrom
no_reorient  #important for SAPT in psi4, default
symmetry c1  #important for SAPT in psi4, default
}

set PROPERTIES_ORIGIN ["COM"]
properties('MP2/aug-cc-pvtz', properties = ['dipole'])
--------------------------------------------------------------------------

    Molecular point group: c1
  Charge       = 0
  Multiplicity = 1
  Basis Set: AUG-CC-PVTZ
    Blend: AUG-CC-PVTZ
  Basis Set: (AUG-CC-PVTZ AUX)
    Blend: AUG-CC-PVTZ-JKFIT

    Orbital Energies [Eh]
    ---------------------

    Doubly Occupied:

       1A    -15.604986     2A    -11.274151     3A    -11.266730
       4A    -11.233016     5A    -11.231139     6A    -11.227625
       7A    -11.225841     8A    -11.221626     9A    -11.218294
      10A     -1.296262    11A     -1.132940    12A     -1.056869
      13A     -0.995919    14A     -0.976580    15A     -0.844554
      16A     -0.805305    17A     -0.786177    18A     -0.728816
      19A     -0.660995    20A     -0.643004    21A     -0.604704
      22A     -0.595091    23A     -0.584268    24A     -0.575826
      25A     -0.552639    26A     -0.494567    27A     -0.486668
      28A     -0.468827    29A     -0.386154    30A     -0.302563
      31A     -0.283213

  @DF-RHF Final Energy:  -361.58623146124171

   => Energetics <=

    Nuclear Repulsion Energy =            400.7807667974166748
    One-Electron Energy =               -1283.2032970831144212
    Two-Electron Energy =                 520.8362988244560938
    Total Energy =                       -361.5862314612417094
  Basis Set: (AUG-CC-PVTZ AUX)
    Blend: AUG-CC-PVTZ-RI
    Molecular point group: c1

    Geometry (in Angstrom), charge = 0, multiplicity = 1:

       Center              X                  Y                   Z               Mass
    ------------   -----------------  -----------------  -----------------  -----------------
         N           -1.553799488026    -1.074467326932     0.000001801755    14.003074004430
         C            0.990763511974     1.436068673068    -0.000000198245    12.000000000000
         C            2.138228211974     0.655876473068     0.000002401755    12.000000000000
         C            2.142027511974    -0.716153326932    -0.000005198245    12.000000000000
         C            0.943733511974    -1.417906326932    -0.000000198245    12.000000000000
         C           -0.238836488026    -0.666515326932    -0.000000198245    12.000000000000
         C           -0.242904488026     0.757007673068     0.000014801755    12.000000000000
         C           -1.611365488026     1.172298673068    -0.000008198245    12.000000000000
         C           -2.379234488026     0.030733673068    -0.000005198245    12.000000000000
         H            1.021496511974     2.524202673068     0.000004801755     1.007825032230
         H            3.123353511974     1.210161673068    -0.000005198245     1.007825032230
         H            3.081180511974    -1.264631326932    -0.000005198245     1.007825032230
         H            0.927667511974    -2.506369326932    -0.000004198245     1.007825032230
         H           -1.988166488026     2.187247673068    -0.000013198245     1.007825032230
         H           -1.867587488026    -2.035769326932     0.000017801755     1.007825032230
         H           -3.455508488026    -0.086143326932     0.000003801755     1.007825032230

  Basis Set: AUG-CC-PVTZ
    Blend: AUG-CC-PVTZ
  Basis Set: (AUG-CC-PVTZ AUX)
    Blend: AUG-CC-PVTZ-JKFIT
	 Reference Energy          =    -361.5862314612417094 [Eh]
	 Singles Energy            =      -0.0000000000000000 [Eh]
	 Same-Spin Energy          =      -0.4082316908158333 [Eh]
	 Opposite-Spin Energy      =      -1.2479759608011602 [Eh]
	 Correlation Energy        =      -1.6562076516169935 [Eh]
	 Total Energy              =    -363.2424391128586763 [Eh]

	 ================> DF-SCS-MP2 Energies <==================
	-----------------------------------------------------------
	 SCS Same-Spin Scale       =       0.3333333333333333 [-]
	 SCS Opposite-Spin Scale   =       1.2000000000000000 [-]
	 SCS Same-Spin Energy      =      -0.1360772302719444 [Eh]
	 SCS Opposite-Spin Energy  =      -1.4975711529613922 [Eh]
	 SCS Correlation Energy    =      -1.6336483832333366 [Eh]
	 SCS Total Energy          =    -363.2198798444750309 [Eh]
	-----------------------------------------------------------

  Dipole Moment: [D]
     X:    -1.4970      Y:    -1.5491      Z:     0.0000     Total:     2.1543

*** Psi4 exiting successfully. Buy a developer a beer!
