                               Psi4 1.4a3.dev225

  ==> Input File <==

--------------------------------------------------------------------------
#psi4
#
memory 32 gb

molecule  {
0 1
  N       -1.5630850    -1.0784890    -0.0000040
  C        0.9811620     1.4317850    -0.0000050
  C        2.1553110     0.6923450     0.0000000
  C        2.1328040    -0.7200770     0.0000000
  C        0.9346070    -1.4219960     0.0000040
  C       -0.2479390    -0.6706250     0.0000000
  C       -0.2522910     0.7524290     0.0000030
  C       -1.6208000     1.1677860     0.0000050
  C       -2.3888340     0.0267020    -0.0000020
  H        1.0113780     2.5197500    -0.0000020
  H        3.1138040     1.2059540    -0.0000050
  H        3.0720020    -1.2682500     0.0000030
  H        0.9188940    -2.5102320     0.0000020
  H       -1.9966350     2.1828910     0.0000100
  H       -1.8708309    -2.0206146    -0.0000001
  H       -3.4649170    -0.0911630    -0.0000050
units angstrom
no_reorient  #important for SAPT in psi4, default
symmetry c1  #important for SAPT in psi4, default
}

set PROPERTIES_ORIGIN ["COM"]
properties('MP2/aug-cc-pvtz', properties = ['dipole'])
--------------------------------------------------------------------------

    Molecular point group: c1
  Charge       = 0
  Multiplicity = 1
  Basis Set: AUG-CC-PVTZ
    Blend: AUG-CC-PVTZ
  Basis Set: (AUG-CC-PVTZ AUX)
    Blend: AUG-CC-PVTZ-JKFIT

    Orbital Energies [Eh]
    ---------------------

    Doubly Occupied:

       1A    -15.603763     2A    -11.273221     3A    -11.267151
       4A    -11.233638     5A    -11.231742     6A    -11.230473
       7A    -11.227273     8A    -11.222466     9A    -11.218910
      10A     -1.297681    11A     -1.128979    12A     -1.057034
      13A     -0.997234    14A     -0.974639    15A     -0.842905
      16A     -0.808577    17A     -0.789020    18A     -0.728859
      19A     -0.662107    20A     -0.647582    21A     -0.602801
      22A     -0.595666    23A     -0.584274    24A     -0.574679
      25A     -0.550172    26A     -0.507877    27A     -0.482846
      28A     -0.465092    29A     -0.386186    30A     -0.301720
      31A     -0.283189

  @DF-RHF Final Energy:  -361.58978832655839

   => Energetics <=

    Nuclear Repulsion Energy =            400.1463276356273013
    One-Electron Energy =               -1281.9167237532083163
    Two-Electron Energy =                 520.1806077910225667
    Total Energy =                       -361.5897883265583914
  Basis Set: (AUG-CC-PVTZ AUX)
    Blend: AUG-CC-PVTZ-RI
    Molecular point group: c1

    Geometry (in Angstrom), charge = 0, multiplicity = 1:

       Center              X                  Y                   Z               Mass
    ------------   -----------------  -----------------  -----------------  -----------------
         N           -1.556507676088    -1.078630003745    -0.000004059034    14.003074004430
         C            0.987739323912     1.431643996255    -0.000005059034    12.000000000000
         C            2.161888323912     0.692203996255    -0.000000059034    12.000000000000
         C            2.139381323912    -0.720218003745    -0.000000059034    12.000000000000
         C            0.941184323912    -1.422137003745     0.000003940966    12.000000000000
         C           -0.241361676088    -0.670766003745    -0.000000059034    12.000000000000
         C           -0.245713676088     0.752287996255     0.000002940966    12.000000000000
         C           -1.614222676088     1.167644996255     0.000004940966    12.000000000000
         C           -2.382256676088     0.026560996255    -0.000002059034    12.000000000000
         H            1.017955323912     2.519608996255    -0.000002059034     1.007825032230
         H            3.120381323912     1.205812996255    -0.000005059034     1.007825032230
         H            3.078579323912    -1.268391003745     0.000002940966     1.007825032230
         H            0.925471323912    -2.510373003745     0.000001940966     1.007825032230
         H           -1.990057676088     2.182749996255     0.000009940966     1.007825032230
         H           -1.864253576088    -2.020755603745    -0.000000159034     1.007825032230
         H           -3.458339676088    -0.091304003745    -0.000005059034     1.007825032230

  Basis Set: AUG-CC-PVTZ
    Blend: AUG-CC-PVTZ
  Basis Set: (AUG-CC-PVTZ AUX)
    Blend: AUG-CC-PVTZ-JKFIT
	 Reference Energy          =    -361.5897883265583914 [Eh]
	 Singles Energy            =      -0.0000000000000000 [Eh]
	 Same-Spin Energy          =      -0.4077969883296486 [Eh]
	 Opposite-Spin Energy      =      -1.2474832180708482 [Eh]
	 Correlation Energy        =      -1.6552802064004968 [Eh]
	 Total Energy              =    -363.2450685329588964 [Eh]

	 ================> DF-SCS-MP2 Energies <==================
	-----------------------------------------------------------
	 SCS Same-Spin Scale       =       0.3333333333333333 [-]
	 SCS Opposite-Spin Scale   =       1.2000000000000000 [-]
	 SCS Same-Spin Energy      =      -0.1359323294432162 [Eh]
	 SCS Opposite-Spin Energy  =      -1.4969798616850178 [Eh]
	 SCS Correlation Energy    =      -1.6329121911282340 [Eh]
	 SCS Total Energy          =    -363.2227005176866328 [Eh]
	-----------------------------------------------------------

  Dipole Moment: [D]
     X:    -1.4737      Y:    -1.5235      Z:     0.0000     Total:     2.1197

*** Psi4 exiting successfully. Buy a developer a beer!
