                               Psi4 1.3.2 release

  ==> Input File <==

--------------------------------------------------------------------------
#psi4
#
memory 32 gb

molecule  {
0 1
  N       -1.5631460    -1.0786450     0.0000020
  C        0.9814170     1.4318910     0.0000000
  C        2.1554110     0.6922200     0.0000020
  C        2.0808102    -0.6384517    -0.0000052
  C        0.9343870    -1.4220840     0.0000000
  C       -0.2481830    -0.6706930     0.0000000
  C       -0.2522510     0.7528300     0.0000150
  C       -1.6207120     1.1681210    -0.0000080
  C       -2.3885810     0.0265560    -0.0000050
  H        1.0121500     2.5200250     0.0000050
  H        3.1140070     1.2059840    -0.0000050
  H        3.0718340    -1.2688090    -0.0000050
  H        0.9183210    -2.5105470    -0.0000040
  H       -1.9975130     2.1830700    -0.0000130
  H       -1.8769340    -2.0399470     0.0000180
  H       -3.4648550    -0.0903210     0.0000040
units angstrom
no_reorient  #important for SAPT in psi4, default
symmetry c1  #important for SAPT in psi4, default
}

set PROPERTIES_ORIGIN ["COM"]
properties('MP2/aug-cc-pvtz', properties = ['dipole'])
--------------------------------------------------------------------------

    Molecular point group: c1
  Charge       = 0
  Multiplicity = 1
  Basis Set: AUG-CC-PVTZ
    Blend: AUG-CC-PVTZ
  Basis Set: (AUG-CC-PVTZ AUX)
    Blend: AUG-CC-PVTZ-JKFIT

    Orbital Energies [Eh]
    ---------------------

    Doubly Occupied:

       1A    -15.603822     2A    -11.273512     3A    -11.267844
       4A    -11.232436     5A    -11.231929     6A    -11.229056
       7A    -11.227218     8A    -11.218812     9A    -11.213821
      10A     -1.296252    11A     -1.138489    12A     -1.056171
      13A     -1.003992    14A     -0.972243    15A     -0.848810
      16A     -0.800920    17A     -0.787722    18A     -0.727225
      19A     -0.658356    20A     -0.646678    21A     -0.606461
      22A     -0.598561    23A     -0.584466    24A     -0.577772
      25A     -0.541894    26A     -0.501707    27A     -0.476095
      28A     -0.473419    29A     -0.386144    30A     -0.307189
      31A     -0.281154

  @DF-RHF Final Energy:  -361.57737331945441

   => Energetics <=

    Nuclear Repulsion Energy =            401.5874327852990291
    One-Electron Energy =               -1284.7892719366102483
    Two-Electron Energy =                 521.6244658318568099
    Total Energy =                       -361.5773733194544093
  Basis Set: (AUG-CC-PVTZ AUX)
    Blend: AUG-CC-PVTZ-RI
    Molecular point group: c1

    Geometry (in Angstrom), charge = 0, multiplicity = 1:

       Center              X                  Y                   Z               Mass
    ------------   -----------------  -----------------  -----------------  -----------------
         N           -1.551201644294    -1.087015020313     0.000001883766    14.003074004430
         C            0.993361355706     1.423520979687    -0.000000116234    12.000000000000
         C            2.167355355706     0.683849979687     0.000001883766    12.000000000000
         C            2.092754555706    -0.646821720313    -0.000005316234    12.000000000000
         C            0.946331355706    -1.430454020313    -0.000000116234    12.000000000000
         C           -0.236238644294    -0.679063020313    -0.000000116234    12.000000000000
         C           -0.240306644294     0.744459979687     0.000014883766    12.000000000000
         C           -1.608767644294     1.159750979687    -0.000008116234    12.000000000000
         C           -2.376636644294     0.018185979687    -0.000005116234    12.000000000000
         H            1.024094355706     2.511654979687     0.000004883766     1.007825032230
         H            3.125951355706     1.197613979687    -0.000005116234     1.007825032230
         H            3.083778355706    -1.277179020313    -0.000005116234     1.007825032230
         H            0.930265355706    -2.518917020313    -0.000004116234     1.007825032230
         H           -1.985568644294     2.174699979687    -0.000013116234     1.007825032230
         H           -1.864989644294    -2.048317020313     0.000017883766     1.007825032230
         H           -3.452910644294    -0.098691020313     0.000003883766     1.007825032230

  Basis Set: AUG-CC-PVTZ
    Blend: AUG-CC-PVTZ
  Basis Set: (AUG-CC-PVTZ AUX)
    Blend: AUG-CC-PVTZ-JKFIT
	 Reference Energy          =    -361.5773733194544093 [Eh]
	 Singles Energy            =      -0.0000000000000000 [Eh]
	 Same-Spin Energy          =      -0.4083631179934314 [Eh]
	 Opposite-Spin Energy      =      -1.2482326426147834 [Eh]
	 Correlation Energy        =      -1.6565957606082149 [Eh]
	 Total Energy              =    -363.2339690800626499 [Eh]

	 ================> DF-SCS-MP2 Energies <==================
	-----------------------------------------------------------
	 SCS Same-Spin Scale       =       0.3333333333333333 [-]
	 SCS Opposite-Spin Scale   =       1.2000000000000000 [-]
	 SCS Same-Spin Energy      =      -0.1361210393311438 [Eh]
	 SCS Opposite-Spin Energy  =      -1.4978791711377399 [Eh]
	 SCS Correlation Energy    =      -1.6340002104688838 [Eh]
	 SCS Total Energy          =    -363.2113735299233213 [Eh]
	-----------------------------------------------------------

  Dipole Moment: [D]
     X:    -1.5163      Y:    -1.5137      Z:     0.0000     Total:     2.1425

*** Psi4 exiting successfully. Buy a developer a beer!
