                               Psi4 1.3.2 release

  ==> Input File <==

--------------------------------------------------------------------------
#psi4
#
memory 32 gb

molecule  {
0 1
  N       -1.5631460    -1.0786450     0.0000020
  C        0.9814170     1.4318910     0.0000000
  C        2.1681412     0.7128217     0.0000017
  C        2.1326810    -0.7203310    -0.0000050
  C        0.9343870    -1.4220840     0.0000000
  C       -0.2481830    -0.6706930     0.0000000
  C       -0.2522510     0.7528300     0.0000150
  C       -1.6207120     1.1681210    -0.0000080
  C       -2.3885810     0.0265560    -0.0000050
  H        1.0121500     2.5200250     0.0000050
  H        3.1140070     1.2059840    -0.0000050
  H        3.0718340    -1.2688090    -0.0000050
  H        0.9183210    -2.5105470    -0.0000040
  H       -1.9975130     2.1830700    -0.0000130
  H       -1.8769340    -2.0399470     0.0000180
  H       -3.4648550    -0.0903210     0.0000040
units angstrom
no_reorient  #important for SAPT in psi4, default
symmetry c1  #important for SAPT in psi4, default
}

set PROPERTIES_ORIGIN ["COM"]
properties('MP2/aug-cc-pvtz', properties = ['dipole'])
--------------------------------------------------------------------------

    Molecular point group: c1
  Charge       = 0
  Multiplicity = 1
  Basis Set: AUG-CC-PVTZ
    Blend: AUG-CC-PVTZ
  Basis Set: (AUG-CC-PVTZ AUX)
    Blend: AUG-CC-PVTZ-JKFIT

    Orbital Energies [Eh]
    ---------------------

    Doubly Occupied:

       1A    -15.606133     2A    -11.272737     3A    -11.267369
       4A    -11.234043     5A    -11.232491     6A    -11.232082
       7A    -11.227151     8A    -11.222834     9A    -11.219116
      10A     -1.296323    11A     -1.126458    12A     -1.055657
      13A     -0.996874    14A     -0.973164    15A     -0.841349
      16A     -0.806730    17A     -0.789503    18A     -0.726506
      19A     -0.663104    20A     -0.649197    21A     -0.600694
      22A     -0.595399    23A     -0.583991    24A     -0.573469
      25A     -0.548571    26A     -0.513986    27A     -0.479936
      28A     -0.463140    29A     -0.386070    30A     -0.301290
      31A     -0.282719

  @DF-RHF Final Energy:  -361.58850460778672

   => Energetics <=

    Nuclear Repulsion Energy =            399.6268312041560762
    One-Electron Energy =               -1280.8944988945768273
    Two-Electron Energy =                 519.6791630826339770
    Total Energy =                       -361.5885046077867173
  Basis Set: (AUG-CC-PVTZ AUX)
    Blend: AUG-CC-PVTZ-RI
    Molecular point group: c1

    Geometry (in Angstrom), charge = 0, multiplicity = 1:

       Center              X                  Y                   Z               Mass
    ------------   -----------------  -----------------  -----------------  -----------------
         N           -1.557824113484    -1.080733244210     0.000001894017    14.003074004430
         C            0.986738886516     1.429802755790    -0.000000105983    12.000000000000
         C            2.173463086516     0.710733455790     0.000001594017    12.000000000000
         C            2.138002886516    -0.722419244210    -0.000005105983    12.000000000000
         C            0.939708886516    -1.424172244210    -0.000000105983    12.000000000000
         C           -0.242861113484    -0.672781244210    -0.000000105983    12.000000000000
         C           -0.246929113484     0.750741755790     0.000014894017    12.000000000000
         C           -1.615390113484     1.166032755790    -0.000008105983    12.000000000000
         C           -2.383259113484     0.024467755790    -0.000005105983    12.000000000000
         H            1.017471886516     2.517936755790     0.000004894017     1.007825032230
         H            3.119328886516     1.203895755790    -0.000005105983     1.007825032230
         H            3.077155886516    -1.270897244210    -0.000005105983     1.007825032230
         H            0.923642886516    -2.512635244210    -0.000004105983     1.007825032230
         H           -1.992191113484     2.180981755790    -0.000013105983     1.007825032230
         H           -1.871612113484    -2.042035244210     0.000017894017     1.007825032230
         H           -3.459533113484    -0.092409244210     0.000003894017     1.007825032230

  Basis Set: AUG-CC-PVTZ
    Blend: AUG-CC-PVTZ
  Basis Set: (AUG-CC-PVTZ AUX)
    Blend: AUG-CC-PVTZ-JKFIT
	 Reference Energy          =    -361.5885046077867173 [Eh]
	 Singles Energy            =      -0.0000000000000000 [Eh]
	 Same-Spin Energy          =      -0.4078681646259604 [Eh]
	 Opposite-Spin Energy      =      -1.2479572432405792 [Eh]
	 Correlation Energy        =      -1.6558254078665395 [Eh]
	 Total Energy              =    -363.2443300156532473 [Eh]

	 ================> DF-SCS-MP2 Energies <==================
	-----------------------------------------------------------
	 SCS Same-Spin Scale       =       0.3333333333333333 [-]
	 SCS Opposite-Spin Scale   =       1.2000000000000000 [-]
	 SCS Same-Spin Energy      =      -0.1359560548753201 [Eh]
	 SCS Opposite-Spin Energy  =      -1.4975486918886951 [Eh]
	 SCS Correlation Energy    =      -1.6335047467640151 [Eh]
	 SCS Total Energy          =    -363.2220093545507211 [Eh]
	-----------------------------------------------------------

  Dipole Moment: [D]
     X:    -1.4841      Y:    -1.5478      Z:     0.0000     Total:     2.1443

*** Psi4 exiting successfully. Buy a developer a beer!
