                               Psi4 1.3.2 release

  ==> Input File <==

--------------------------------------------------------------------------
#psi4
#
memory 32 gb

molecule  {
0 1
  N       -1.5631460    -1.0786450     0.0000020
  C        0.9814170     1.4318910     0.0000000
  C        2.2046945     0.6905662     0.0000016
  C        2.1326810    -0.7203310    -0.0000050
  C        0.9343870    -1.4220840     0.0000000
  C       -0.2481830    -0.6706930     0.0000000
  C       -0.2522510     0.7528300     0.0000150
  C       -1.6207120     1.1681210    -0.0000080
  C       -2.3885810     0.0265560    -0.0000050
  H        1.0121500     2.5200250     0.0000050
  H        3.1140070     1.2059840    -0.0000050
  H        3.0718340    -1.2688090    -0.0000050
  H        0.9183210    -2.5105470    -0.0000040
  H       -1.9975130     2.1830700    -0.0000130
  H       -1.8769340    -2.0399470     0.0000180
  H       -3.4648550    -0.0903210     0.0000040
units angstrom
no_reorient  #important for SAPT in psi4, default
symmetry c1  #important for SAPT in psi4, default
}

set PROPERTIES_ORIGIN ["COM"]
properties('MP2/aug-cc-pvtz', properties = ['dipole'])
--------------------------------------------------------------------------

    Molecular point group: c1
  Charge       = 0
  Multiplicity = 1
  Basis Set: AUG-CC-PVTZ
    Blend: AUG-CC-PVTZ
  Basis Set: (AUG-CC-PVTZ AUX)
    Blend: AUG-CC-PVTZ-JKFIT

    Orbital Energies [Eh]
    ---------------------

    Doubly Occupied:

       1A    -15.605761     2A    -11.274039     3A    -11.268799
       4A    -11.236883     5A    -11.232929     6A    -11.230915
       7A    -11.228235     8A    -11.223342     9A    -11.219524
      10A     -1.296876    11A     -1.124407    12A     -1.056268
      13A     -0.994369    14A     -0.973207    15A     -0.844725
      16A     -0.805529    17A     -0.789664    18A     -0.726260
      19A     -0.665900    20A     -0.649504    21A     -0.599789
      22A     -0.593794    23A     -0.584176    24A     -0.575166
      25A     -0.549646    26A     -0.514959    27A     -0.479688
      28A     -0.461631    29A     -0.386222    30A     -0.299872
      31A     -0.282408

  @DF-RHF Final Energy:  -361.58560155656016

   => Energetics <=

    Nuclear Repulsion Energy =            399.1832260361866247
    One-Electron Energy =               -1279.9886769914410252
    Two-Electron Energy =                 519.2198493986942367
    Total Energy =                       -361.5856015565601638
  Basis Set: (AUG-CC-PVTZ AUX)
    Blend: AUG-CC-PVTZ-RI
    Molecular point group: c1

    Geometry (in Angstrom), charge = 0, multiplicity = 1:

       Center              X                  Y                   Z               Mass
    ------------   -----------------  -----------------  -----------------  -----------------
         N           -1.561571317135    -1.078451756879     0.000001904268    14.003074004430
         C            0.982991682865     1.432084243121    -0.000000095732    12.000000000000
         C            2.206269182865     0.690759443121     0.000001504268    12.000000000000
         C            2.134255682865    -0.720137756879    -0.000005095732    12.000000000000
         C            0.935961682865    -1.421890756879    -0.000000095732    12.000000000000
         C           -0.246608317135    -0.670499756879    -0.000000095732    12.000000000000
         C           -0.250676317135     0.753023243121     0.000014904268    12.000000000000
         C           -1.619137317135     1.168314243121    -0.000008095732    12.000000000000
         C           -2.387006317135     0.026749243121    -0.000005095732    12.000000000000
         H            1.013724682865     2.520218243121     0.000004904268     1.007825032230
         H            3.115581682865     1.206177243121    -0.000005095732     1.007825032230
         H            3.073408682865    -1.268615756879    -0.000005095732     1.007825032230
         H            0.919895682865    -2.510353756879    -0.000004095732     1.007825032230
         H           -1.995938317135     2.183263243121    -0.000013095732     1.007825032230
         H           -1.875359317135    -2.039753756879     0.000017904268     1.007825032230
         H           -3.463280317135    -0.090127756879     0.000003904268     1.007825032230

  Basis Set: AUG-CC-PVTZ
    Blend: AUG-CC-PVTZ
  Basis Set: (AUG-CC-PVTZ AUX)
    Blend: AUG-CC-PVTZ-JKFIT
	 Reference Energy          =    -361.5856015565601638 [Eh]
	 Singles Energy            =      -0.0000000000000000 [Eh]
	 Same-Spin Energy          =      -0.4079773813453342 [Eh]
	 Opposite-Spin Energy      =      -1.2482219166999766 [Eh]
	 Correlation Energy        =      -1.6561992980453109 [Eh]
	 Total Energy              =    -363.2418008546054580 [Eh]

	 ================> DF-SCS-MP2 Energies <==================
	-----------------------------------------------------------
	 SCS Same-Spin Scale       =       0.3333333333333333 [-]
	 SCS Opposite-Spin Scale   =       1.2000000000000000 [-]
	 SCS Same-Spin Energy      =      -0.1359924604484447 [Eh]
	 SCS Opposite-Spin Energy  =      -1.4978663000399719 [Eh]
	 SCS Correlation Energy    =      -1.6338587604884167 [Eh]
	 SCS Total Energy          =    -363.2194603170485721 [Eh]
	-----------------------------------------------------------

  Dipole Moment: [D]
     X:    -1.5102      Y:    -1.5391      Z:     0.0000     Total:     2.1562

*** Psi4 exiting successfully. Buy a developer a beer!
