                               Psi4 1.3.2 release

  ==> Input File <==

--------------------------------------------------------------------------
#psi4
#
memory 32 gb

molecule  {
0 1
  N       -1.5631460    -1.0786450     0.0000020
  C        0.9814170     1.4318910     0.0000000
  C        2.1554110     0.6922200     0.0000020
  C        2.1326810    -0.7203310    -0.0000050
  C        0.9343870    -1.4220840     0.0000000
  C       -0.2481830    -0.6706930     0.0000000
  C       -0.2525368     0.8528296     0.0000161
  C       -1.6207120     1.1681210    -0.0000080
  C       -2.3885810     0.0265560    -0.0000050
  H        1.0121500     2.5200250     0.0000050
  H        3.1140070     1.2059840    -0.0000050
  H        3.0718340    -1.2688090    -0.0000050
  H        0.9183210    -2.5105470    -0.0000040
  H       -1.9975130     2.1830700    -0.0000130
  H       -1.8769340    -2.0399470     0.0000180
  H       -3.4648550    -0.0903210     0.0000040
units angstrom
no_reorient  #important for SAPT in psi4, default
symmetry c1  #important for SAPT in psi4, default
}

set PROPERTIES_ORIGIN ["COM"]
properties('MP2/aug-cc-pvtz', properties = ['dipole'])
--------------------------------------------------------------------------

    Molecular point group: c1
  Charge       = 0
  Multiplicity = 1
  Basis Set: AUG-CC-PVTZ
    Blend: AUG-CC-PVTZ
  Basis Set: (AUG-CC-PVTZ AUX)
    Blend: AUG-CC-PVTZ-JKFIT

    Orbital Energies [Eh]
    ---------------------

    Doubly Occupied:

       1A    -15.610737     2A    -11.276585     3A    -11.276547
       4A    -11.232659     5A    -11.231636     6A    -11.230160
       7A    -11.226857     8A    -11.221591     9A    -11.220589
      10A     -1.294600    11A     -1.127296    12A     -1.061919
      13A     -0.993529    14A     -0.975485    15A     -0.842784
      16A     -0.813487    17A     -0.786220    18A     -0.723481
      19A     -0.669168    20A     -0.648586    21A     -0.602654
      22A     -0.594090    23A     -0.581838    24A     -0.575121
      25A     -0.548619    26A     -0.517182    27A     -0.465984
      28A     -0.462131    29A     -0.396906    30A     -0.295437
      31A     -0.281020

  @DF-RHF Final Energy:  -361.57578911488531

   => Energetics <=

    Nuclear Repulsion Energy =            398.9697494916116511
    One-Electron Energy =               -1279.5212820781250684
    Two-Electron Energy =                 518.9757434716281068
    Total Energy =                       -361.5757891148853105
  Basis Set: (AUG-CC-PVTZ AUX)
    Blend: AUG-CC-PVTZ-RI
    Molecular point group: c1

    Geometry (in Angstrom), charge = 0, multiplicity = 1:

       Center              X                  Y                   Z               Mass
    ------------   -----------------  -----------------  -----------------  -----------------
         N           -1.556489798860    -1.088872594166     0.000001750498    14.003074004430
         C            0.988073201140     1.421663405834    -0.000000249502    12.000000000000
         C            2.162067201140     0.681992405834     0.000001750498    12.000000000000
         C            2.139337201140    -0.730558594166    -0.000005249502    12.000000000000
         C            0.941043201140    -1.432311594166    -0.000000249502    12.000000000000
         C           -0.241526798860    -0.680920594166    -0.000000249502    12.000000000000
         C           -0.245880598860     0.842602005834     0.000015850498    12.000000000000
         C           -1.614055798860     1.157893405834    -0.000008249502    12.000000000000
         C           -2.381924798860     0.016328405834    -0.000005249502    12.000000000000
         H            1.018806201140     2.509797405834     0.000004750498     1.007825032230
         H            3.120663201140     1.195756405834    -0.000005249502     1.007825032230
         H            3.078490201140    -1.279036594166    -0.000005249502     1.007825032230
         H            0.924977201140    -2.520774594166    -0.000004249502     1.007825032230
         H           -1.990856798860     2.172842405834    -0.000013249502     1.007825032230
         H           -1.870277798860    -2.050174594166     0.000017750498     1.007825032230
         H           -3.458198798860    -0.100548594166     0.000003750498     1.007825032230

  Basis Set: AUG-CC-PVTZ
    Blend: AUG-CC-PVTZ
  Basis Set: (AUG-CC-PVTZ AUX)
    Blend: AUG-CC-PVTZ-JKFIT
	 Reference Energy          =    -361.5757891148853105 [Eh]
	 Singles Energy            =      -0.0000000000000000 [Eh]
	 Same-Spin Energy          =      -0.4094311901961875 [Eh]
	 Opposite-Spin Energy      =      -1.2496008797013540 [Eh]
	 Correlation Energy        =      -1.6590320698975414 [Eh]
	 Total Energy              =    -363.2348211847828452 [Eh]

	 ================> DF-SCS-MP2 Energies <==================
	-----------------------------------------------------------
	 SCS Same-Spin Scale       =       0.3333333333333333 [-]
	 SCS Opposite-Spin Scale   =       1.2000000000000000 [-]
	 SCS Same-Spin Energy      =      -0.1364770633987291 [Eh]
	 SCS Opposite-Spin Energy  =      -1.4995210556416247 [Eh]
	 SCS Correlation Energy    =      -1.6359981190403539 [Eh]
	 SCS Total Energy          =    -363.2117872339256905 [Eh]
	-----------------------------------------------------------

  Dipole Moment: [D]
     X:    -1.6273      Y:    -1.6441      Z:     0.0000     Total:     2.3132

*** Psi4 exiting successfully. Buy a developer a beer!
