                               Psi4 1.3.2 release

  ==> Input File <==

--------------------------------------------------------------------------
#psi4
#
memory 32 gb

molecule  {
0 1
  N       -1.5631460    -1.0786450     0.0000020
  C        1.0043644     1.3884229    -0.0000009
  C        2.1554110     0.6922200     0.0000020
  C        2.1326810    -0.7203310    -0.0000050
  C        0.9343870    -1.4220840     0.0000000
  C       -0.2481830    -0.6706930     0.0000000
  C       -0.2522510     0.7528300     0.0000150
  C       -1.6207120     1.1681210    -0.0000080
  C       -2.3885810     0.0265560    -0.0000050
  H        1.0121500     2.5200250     0.0000050
  H        3.1140070     1.2059840    -0.0000050
  H        3.0718340    -1.2688090    -0.0000050
  H        0.9183210    -2.5105470    -0.0000040
  H       -1.9975130     2.1830700    -0.0000130
  H       -1.8769340    -2.0399470     0.0000180
  H       -3.4648550    -0.0903210     0.0000040
units angstrom
no_reorient  #important for SAPT in psi4, default
symmetry c1  #important for SAPT in psi4, default
}

set PROPERTIES_ORIGIN ["COM"]
properties('MP2/aug-cc-pvtz', properties = ['dipole'])
--------------------------------------------------------------------------

    Molecular point group: c1
  Charge       = 0
  Multiplicity = 1
  Basis Set: AUG-CC-PVTZ
    Blend: AUG-CC-PVTZ
  Basis Set: (AUG-CC-PVTZ AUX)
    Blend: AUG-CC-PVTZ-JKFIT

    Orbital Energies [Eh]
    ---------------------

    Doubly Occupied:

       1A    -15.606140     2A    -11.273084     3A    -11.266149
       4A    -11.233429     5A    -11.230426     6A    -11.230278
       7A    -11.226316     8A    -11.220079     9A    -11.217560
      10A     -1.296239    11A     -1.133213    12A     -1.055372
      13A     -1.001546    14A     -0.974018    15A     -0.839943
      16A     -0.807932    17A     -0.790243    18A     -0.723944
      19A     -0.661014    20A     -0.651169    21A     -0.602538
      22A     -0.588654    23A     -0.584321    24A     -0.574959
      25A     -0.549633    26A     -0.513196    27A     -0.473924
      28A     -0.468927    29A     -0.385848    30A     -0.305527
      31A     -0.282928

  @DF-RHF Final Energy:  -361.58644793823299

   => Energetics <=

    Nuclear Repulsion Energy =            400.6666622775275073
    One-Electron Energy =               -1282.9691280401755193
    Two-Electron Energy =                 520.7160178244150757
    Total Energy =                       -361.5864479382329364
  Basis Set: (AUG-CC-PVTZ AUX)
    Blend: AUG-CC-PVTZ-RI
    Molecular point group: c1

    Geometry (in Angstrom), charge = 0, multiplicity = 1:

       Center              X                  Y                   Z               Mass
    ------------   -----------------  -----------------  -----------------  -----------------
         N           -1.558871513558    -1.074165230146     0.000001955525    14.003074004430
         C            1.008638886442     1.392902669854    -0.000000944475    12.000000000000
         C            2.159685486442     0.696699769854     0.000001955525    12.000000000000
         C            2.136955486442    -0.715851230146    -0.000005044475    12.000000000000
         C            0.938661486442    -1.417604230146    -0.000000044475    12.000000000000
         C           -0.243908513558    -0.666213230146    -0.000000044475    12.000000000000
         C           -0.247976513558     0.757309769854     0.000014955525    12.000000000000
         C           -1.616437513558     1.172600769854    -0.000008044475    12.000000000000
         C           -2.384306513558     0.031035769854    -0.000005044475    12.000000000000
         H            1.016424486442     2.524504769854     0.000004955525     1.007825032230
         H            3.118281486442     1.210463769854    -0.000005044475     1.007825032230
         H            3.076108486442    -1.264329230146    -0.000005044475     1.007825032230
         H            0.922595486442    -2.506067230146    -0.000004044475     1.007825032230
         H           -1.993238513558     2.187549769854    -0.000013044475     1.007825032230
         H           -1.872659513558    -2.035467230146     0.000017955525     1.007825032230
         H           -3.460580513558    -0.085841230146     0.000003955525     1.007825032230

  Basis Set: AUG-CC-PVTZ
    Blend: AUG-CC-PVTZ
  Basis Set: (AUG-CC-PVTZ AUX)
    Blend: AUG-CC-PVTZ-JKFIT
	 Reference Energy          =    -361.5864479382329932 [Eh]
	 Singles Energy            =      -0.0000000000000000 [Eh]
	 Same-Spin Energy          =      -0.4079560246083743 [Eh]
	 Opposite-Spin Energy      =      -1.2476864527921694 [Eh]
	 Correlation Energy        =      -1.6556424774005438 [Eh]
	 Total Energy              =    -363.2420904156335268 [Eh]

	 ================> DF-SCS-MP2 Energies <==================
	-----------------------------------------------------------
	 SCS Same-Spin Scale       =       0.3333333333333333 [-]
	 SCS Opposite-Spin Scale   =       1.2000000000000000 [-]
	 SCS Same-Spin Energy      =      -0.1359853415361248 [Eh]
	 SCS Opposite-Spin Energy  =      -1.4972237433506033 [Eh]
	 SCS Correlation Energy    =      -1.6332090848867280 [Eh]
	 SCS Total Energy          =    -363.2196570231197370 [Eh]
	-----------------------------------------------------------

  Dipole Moment: [D]
     X:    -1.4860      Y:    -1.5752      Z:     0.0000     Total:     2.1655

*** Psi4 exiting successfully. Buy a developer a beer!
