                               Psi4 1.4a3.dev225

  ==> Input File <==

--------------------------------------------------------------------------
#psi4
#
memory 32 gb

molecule  {
0 1
  N       -1.5630850    -1.0784890    -0.0000040
  C        0.9811620     1.4317850    -0.0000050
  C        2.1553110     0.6923450     0.0000000
  C        2.1328040    -0.7200770     0.0000000
  C        0.9346070    -1.4219960     0.0000040
  C       -0.2479390    -0.6706250     0.0000000
  C       -0.2522910     0.7524290     0.0000030
  C       -1.6208000     1.1677860     0.0000050
  C       -2.3888340     0.0267020    -0.0000020
  H        1.0113780     2.5197500    -0.0000020
  H        3.1138040     1.2059540    -0.0000050
  H        3.0547289    -1.2581684     0.0000029
  H        0.9188940    -2.5102320     0.0000020
  H       -1.9966350     2.1828910     0.0000100
  H       -1.8770410    -2.0396260     0.0000000
  H       -3.4649170    -0.0911630    -0.0000050
units angstrom
no_reorient  #important for SAPT in psi4, default
symmetry c1  #important for SAPT in psi4, default
}

set PROPERTIES_ORIGIN ["COM"]
properties('MP2/aug-cc-pvtz', properties = ['dipole'])
--------------------------------------------------------------------------

    Molecular point group: c1
  Charge       = 0
  Multiplicity = 1
  Basis Set: AUG-CC-PVTZ
    Blend: AUG-CC-PVTZ
  Basis Set: (AUG-CC-PVTZ AUX)
    Blend: AUG-CC-PVTZ-JKFIT

    Orbital Energies [Eh]
    ---------------------

    Doubly Occupied:

       1A    -15.605536     2A    -11.273093     3A    -11.266952
       4A    -11.233303     5A    -11.231524     6A    -11.228055
       7A    -11.227113     8A    -11.222156     9A    -11.218706
      10A     -1.296117    11A     -1.128539    12A     -1.056066
      13A     -0.996387    14A     -0.974891    15A     -0.842492
      16A     -0.807083    17A     -0.788556    18A     -0.727519
      19A     -0.662996    20A     -0.648041    21A     -0.601816
      22A     -0.595226    23A     -0.583928    24A     -0.574341
      25A     -0.551469    26A     -0.508381    27A     -0.482923
      28A     -0.464788    29A     -0.385940    30A     -0.301423
      31A     -0.282972

  @DF-RHF Final Energy:  -361.58944631055618

   => Energetics <=

    Nuclear Repulsion Energy =            400.1252267021161515
    One-Electron Energy =               -1281.8926828268379268
    Two-Electron Energy =                 520.1780098141655344
    Total Energy =                       -361.5894463105562409
  Basis Set: (AUG-CC-PVTZ AUX)
    Blend: AUG-CC-PVTZ-RI
    Molecular point group: c1

    Geometry (in Angstrom), charge = 0, multiplicity = 1:

       Center              X                  Y                   Z               Mass
    ------------   -----------------  -----------------  -----------------  -----------------
         N           -1.556305494373    -1.078553121451    -0.000004059034    14.003074004430
         C            0.987941505627     1.431720878549    -0.000005059034    12.000000000000
         C            2.162090505627     0.692280878549    -0.000000059034    12.000000000000
         C            2.139583505627    -0.720141121451    -0.000000059034    12.000000000000
         C            0.941386505627    -1.422060121451     0.000003940966    12.000000000000
         C           -0.241159494373    -0.670689121451    -0.000000059034    12.000000000000
         C           -0.245511494373     0.752364878549     0.000002940966    12.000000000000
         C           -1.614020494373     1.167721878549     0.000004940966    12.000000000000
         C           -2.382054494373     0.026637878549    -0.000002059034    12.000000000000
         H            1.018157505627     2.519685878549    -0.000002059034     1.007825032230
         H            3.120583505627     1.205889878549    -0.000005059034     1.007825032230
         H            3.061508405627    -1.258232521451     0.000002840966     1.007825032230
         H            0.925673505627    -2.510296121451     0.000001940966     1.007825032230
         H           -1.989855494373     2.182826878549     0.000009940966     1.007825032230
         H           -1.870261494373    -2.039690121451    -0.000000059034     1.007825032230
         H           -3.458137494373    -0.091227121451    -0.000005059034     1.007825032230

  Basis Set: AUG-CC-PVTZ
    Blend: AUG-CC-PVTZ
  Basis Set: (AUG-CC-PVTZ AUX)
    Blend: AUG-CC-PVTZ-JKFIT
	 Reference Energy          =    -361.5894463105561840 [Eh]
	 Singles Energy            =      -0.0000000000000000 [Eh]
	 Same-Spin Energy          =      -0.4079315831210728 [Eh]
	 Opposite-Spin Energy      =      -1.2477234776313320 [Eh]
	 Correlation Energy        =      -1.6556550607524048 [Eh]
	 Total Energy              =    -363.2451013713085786 [Eh]

	 ================> DF-SCS-MP2 Energies <==================
	-----------------------------------------------------------
	 SCS Same-Spin Scale       =       0.3333333333333333 [-]
	 SCS Opposite-Spin Scale   =       1.2000000000000000 [-]
	 SCS Same-Spin Energy      =      -0.1359771943736909 [Eh]
	 SCS Opposite-Spin Energy  =      -1.4972681731575983 [Eh]
	 SCS Correlation Energy    =      -1.6332453675312892 [Eh]
	 SCS Total Energy          =    -363.2226916780874717 [Eh]
	-----------------------------------------------------------

  Dipole Moment: [D]
     X:    -1.4765      Y:    -1.5508      Z:     0.0000     Total:     2.1413

*** Psi4 exiting successfully. Buy a developer a beer!
