                               Psi4 1.3.2 release

  ==> Input File <==

--------------------------------------------------------------------------
#psi4
#
memory 32 gb

molecule  {
0 1
  N       -1.5985851    -0.9389591     0.0000018
  C        0.9814170     1.4318910     0.0000000
  C        2.1554110     0.6922200     0.0000020
  C        2.1326810    -0.7203310    -0.0000050
  C        0.9343870    -1.4220840     0.0000000
  C       -0.2481830    -0.6706930     0.0000000
  C       -0.2522510     0.7528300     0.0000150
  C       -1.6207120     1.1681210    -0.0000080
  C       -2.3885810     0.0265560    -0.0000050
  H        1.0121500     2.5200250     0.0000050
  H        3.1140070     1.2059840    -0.0000050
  H        3.0718340    -1.2688090    -0.0000050
  H        0.9183210    -2.5105470    -0.0000040
  H       -1.9975130     2.1830700    -0.0000130
  H       -1.8769340    -2.0399470     0.0000180
  H       -3.4648550    -0.0903210     0.0000040
units angstrom
no_reorient  #important for SAPT in psi4, default
symmetry c1  #important for SAPT in psi4, default
}

set PROPERTIES_ORIGIN ["COM"]
properties('MP2/aug-cc-pvtz', properties = ['dipole'])
--------------------------------------------------------------------------

    Molecular point group: c1
  Charge       = 0
  Multiplicity = 1
  Basis Set: AUG-CC-PVTZ
    Blend: AUG-CC-PVTZ
  Basis Set: (AUG-CC-PVTZ AUX)
    Blend: AUG-CC-PVTZ-JKFIT

    Orbital Energies [Eh]
    ---------------------

    Doubly Occupied:

       1A    -15.619628     2A    -11.263887     3A    -11.262196
       4A    -11.239540     5A    -11.229242     6A    -11.228192
       7A    -11.223721     8A    -11.223306     9A    -11.203234
      10A     -1.335694    11A     -1.132107    12A     -1.044802
      13A     -1.006195    14A     -0.973448    15A     -0.853275
      16A     -0.795848    17A     -0.785152    18A     -0.726868
      19A     -0.669427    20A     -0.649116    21A     -0.607381
      22A     -0.606795    23A     -0.587477    24A     -0.559907
      25A     -0.545601    26A     -0.508188    27A     -0.474892
      28A     -0.472167    29A     -0.378622    30A     -0.308298
      31A     -0.272474

  @DF-RHF Final Energy:  -361.55265184345654

   => Energetics <=

    Nuclear Repulsion Energy =            402.3969051314825833
    One-Electron Energy =               -1286.3257535503221334
    Two-Electron Energy =                 522.3761965753830054
    Total Energy =                       -361.5526518434566015
  Basis Set: (AUG-CC-PVTZ AUX)
    Blend: AUG-CC-PVTZ-RI
    Molecular point group: c1

    Geometry (in Angstrom), charge = 0, multiplicity = 1:

       Center              X                  Y                   Z               Mass
    ------------   -----------------  -----------------  -----------------  -----------------
         N           -1.587718786141    -0.955645353709     0.000001687188    14.003074004430
         C            0.992283313859     1.415204746291    -0.000000112812    12.000000000000
         C            2.166277313859     0.675533746291     0.000001887188    12.000000000000
         C            2.143547313859    -0.737017253709    -0.000005112812    12.000000000000
         C            0.945253313859    -1.438770253709    -0.000000112812    12.000000000000
         C           -0.237316686141    -0.687379253709    -0.000000112812    12.000000000000
         C           -0.241384686141     0.736143746291     0.000014887188    12.000000000000
         C           -1.609845686141     1.151434746291    -0.000008112812    12.000000000000
         C           -2.377714686141     0.009869746291    -0.000005112812    12.000000000000
         H            1.023016313859     2.503338746291     0.000004887188     1.007825032230
         H            3.124873313859     1.189297746291    -0.000005112812     1.007825032230
         H            3.082700313859    -1.285495253709    -0.000005112812     1.007825032230
         H            0.929187313859    -2.527233253709    -0.000004112812     1.007825032230
         H           -1.986646686141     2.166383746291    -0.000013112812     1.007825032230
         H           -1.866067686141    -2.056633253709     0.000017887188     1.007825032230
         H           -3.453988686141    -0.107007253709     0.000003887188     1.007825032230

  Basis Set: AUG-CC-PVTZ
    Blend: AUG-CC-PVTZ
  Basis Set: (AUG-CC-PVTZ AUX)
    Blend: AUG-CC-PVTZ-JKFIT
	 Reference Energy          =    -361.5526518434565446 [Eh]
	 Singles Energy            =      -0.0000000000000000 [Eh]
	 Same-Spin Energy          =      -0.4103748795333392 [Eh]
	 Opposite-Spin Energy      =      -1.2498664830683683 [Eh]
	 Correlation Energy        =      -1.6602413626017076 [Eh]
	 Total Energy              =    -363.2128932060582542 [Eh]

	 ================> DF-SCS-MP2 Energies <==================
	-----------------------------------------------------------
	 SCS Same-Spin Scale       =       0.3333333333333333 [-]
	 SCS Opposite-Spin Scale   =       1.2000000000000000 [-]
	 SCS Same-Spin Energy      =      -0.1367916265111131 [Eh]
	 SCS Opposite-Spin Energy  =      -1.4998397796820420 [Eh]
	 SCS Correlation Energy    =      -1.6366314061931551 [Eh]
	 SCS Total Energy          =    -363.1892832496496908 [Eh]
	-----------------------------------------------------------

  Dipole Moment: [D]
     X:    -1.5563      Y:    -1.8989      Z:     0.0000     Total:     2.4552

*** Psi4 exiting successfully. Buy a developer a beer!
