                               Psi4 1.3.2 release

  ==> Input File <==

--------------------------------------------------------------------------
#psi4
#
memory 32 gb

molecule  {
0 1
  N       -1.5631460    -1.0786450     0.0000020
  C        0.9814170     1.4318910     0.0000000
  C        2.1554110     0.6922200     0.0000020
  C        2.1326810    -0.7203310    -0.0000050
  C        0.9343870    -1.4220840     0.0000000
  C       -0.1488930    -0.6669416     0.0000020
  C       -0.2522510     0.7528300     0.0000150
  C       -1.6207120     1.1681210    -0.0000080
  C       -2.3885810     0.0265560    -0.0000050
  H        1.0121500     2.5200250     0.0000050
  H        3.1140070     1.2059840    -0.0000050
  H        3.0718340    -1.2688090    -0.0000050
  H        0.9183210    -2.5105470    -0.0000040
  H       -1.9975130     2.1830700    -0.0000130
  H       -1.8769340    -2.0399470     0.0000180
  H       -3.4648550    -0.0903210     0.0000040
units angstrom
no_reorient  #important for SAPT in psi4, default
symmetry c1  #important for SAPT in psi4, default
}

set PROPERTIES_ORIGIN ["COM"]
properties('MP2/aug-cc-pvtz', properties = ['dipole'])
--------------------------------------------------------------------------

    Molecular point group: c1
  Charge       = 0
  Multiplicity = 1
  Basis Set: AUG-CC-PVTZ
    Blend: AUG-CC-PVTZ
  Basis Set: (AUG-CC-PVTZ AUX)
    Blend: AUG-CC-PVTZ-JKFIT

    Orbital Energies [Eh]
    ---------------------

    Doubly Occupied:

       1A    -15.597228     2A    -11.278118     3A    -11.266193
       4A    -11.232926     5A    -11.230599     6A    -11.230444
       7A    -11.227694     8A    -11.224909     9A    -11.216311
      10A     -1.271012    11A     -1.138386    12A     -1.056793
      13A     -1.002973    14A     -0.971878    15A     -0.838802
      16A     -0.808292    17A     -0.786292    18A     -0.723383
      19A     -0.652660    20A     -0.645334    21A     -0.614776
      22A     -0.592782    23A     -0.574741    24A     -0.572652
      25A     -0.545051    26A     -0.509264    27A     -0.483050
      28A     -0.468644    29A     -0.387438    30A     -0.312835
      31A     -0.277142

  @DF-RHF Final Energy:  -361.57537027166637

   => Energetics <=

    Nuclear Repulsion Energy =            399.9764173232130702
    One-Electron Energy =               -1281.6263675590168987
    Two-Electron Energy =                 520.0745799641373424
    Total Energy =                       -361.5753702716664293
  Basis Set: (AUG-CC-PVTZ AUX)
    Blend: AUG-CC-PVTZ-RI
    Molecular point group: c1

    Geometry (in Angstrom), charge = 0, multiplicity = 1:

       Center              X                  Y                   Z               Mass
    ------------   -----------------  -----------------  -----------------  -----------------
         N           -1.566697654274    -1.079005862395     0.000001658236    14.003074004430
         C            0.977865345726     1.431530137605    -0.000000341764    12.000000000000
         C            2.151859345726     0.691859137605     0.000001658236    12.000000000000
         C            2.129129345726    -0.720691862395    -0.000005341764    12.000000000000
         C            0.930835345726    -1.422444862395    -0.000000341764    12.000000000000
         C           -0.152444654274    -0.667302462395     0.000001658236    12.000000000000
         C           -0.255802654274     0.752469137605     0.000014658236    12.000000000000
         C           -1.624263654274     1.167760137605    -0.000008341764    12.000000000000
         C           -2.392132654274     0.026195137605    -0.000005341764    12.000000000000
         H            1.008598345726     2.519664137605     0.000004658236     1.007825032230
         H            3.110455345726     1.205623137605    -0.000005341764     1.007825032230
         H            3.068282345726    -1.269169862395    -0.000005341764     1.007825032230
         H            0.914769345726    -2.510907862395    -0.000004341764     1.007825032230
         H           -2.001064654274     2.182709137605    -0.000013341764     1.007825032230
         H           -1.880485654274    -2.040307862395     0.000017658236     1.007825032230
         H           -3.468406654274    -0.090681862395     0.000003658236     1.007825032230

  Basis Set: AUG-CC-PVTZ
    Blend: AUG-CC-PVTZ
  Basis Set: (AUG-CC-PVTZ AUX)
    Blend: AUG-CC-PVTZ-JKFIT
	 Reference Energy          =    -361.5753702716663724 [Eh]
	 Singles Energy            =      -0.0000000000000000 [Eh]
	 Same-Spin Energy          =      -0.4080662354001277 [Eh]
	 Opposite-Spin Energy      =      -1.2484211553304470 [Eh]
	 Correlation Energy        =      -1.6564873907305746 [Eh]
	 Total Energy              =    -363.2318576623969193 [Eh]

	 ================> DF-SCS-MP2 Energies <==================
	-----------------------------------------------------------
	 SCS Same-Spin Scale       =       0.3333333333333333 [-]
	 SCS Opposite-Spin Scale   =       1.2000000000000000 [-]
	 SCS Same-Spin Energy      =      -0.1360220784667092 [Eh]
	 SCS Opposite-Spin Energy  =      -1.4981053863965363 [Eh]
	 SCS Correlation Energy    =      -1.6341274648632456 [Eh]
	 SCS Total Energy          =    -363.2094977365296131 [Eh]
	-----------------------------------------------------------

  Dipole Moment: [D]
     X:    -1.2384      Y:    -1.4689      Z:     0.0000     Total:     1.9213

*** Psi4 exiting successfully. Buy a developer a beer!
