                               Psi4 1.4a3.dev225

  ==> Input File <==

--------------------------------------------------------------------------
#psi4
#
memory 32 gb

molecule  {
0 1
  N       -1.5630850    -1.0784890    -0.0000040
  C        0.9811620     1.4317850    -0.0000050
  C        2.1553110     0.6923450     0.0000000
  C        2.1328040    -0.7200770     0.0000000
  C        0.9346070    -1.4219960     0.0000040
  C       -0.2479390    -0.6706250     0.0000000
  C       -0.2522910     0.7524290     0.0000030
  C       -1.6208000     1.1677860     0.0000050
  C       -2.3888340     0.0267020    -0.0000020
  H        1.0113780     2.5197500    -0.0000020
  H        3.1138040     1.2059540    -0.0000050
  H        3.1151848    -1.2934541     0.0000031
  H        0.9188940    -2.5102320     0.0000020
  H       -1.9966350     2.1828910     0.0000100
  H       -1.8770410    -2.0396260     0.0000000
  H       -3.4649170    -0.0911630    -0.0000050
units angstrom
no_reorient  #important for SAPT in psi4, default
symmetry c1  #important for SAPT in psi4, default
}

set PROPERTIES_ORIGIN ["COM"]
properties('MP2/aug-cc-pvtz', properties = ['dipole'])
--------------------------------------------------------------------------

    Molecular point group: c1
  Charge       = 0
  Multiplicity = 1
  Basis Set: AUG-CC-PVTZ
    Blend: AUG-CC-PVTZ
  Basis Set: (AUG-CC-PVTZ AUX)
    Blend: AUG-CC-PVTZ-JKFIT

    Orbital Energies [Eh]
    ---------------------

    Doubly Occupied:

       1A    -15.605854     2A    -11.273336     3A    -11.267451
       4A    -11.236492     5A    -11.233758     6A    -11.232042
       7A    -11.227422     8A    -11.222908     9A    -11.218954
      10A     -1.296428    11A     -1.128505    12A     -1.055940
      13A     -0.996777    14A     -0.973187    15A     -0.841957
      16A     -0.804333    17A     -0.788246    18A     -0.726705
      19A     -0.659495    20A     -0.645711    21A     -0.601600
      22A     -0.595570    23A     -0.584267    24A     -0.574714
      25A     -0.546452    26A     -0.506060    27A     -0.481836
      28A     -0.465291    29A     -0.386300    30A     -0.301839
      31A     -0.283289

  @DF-RHF Final Energy:  -361.58685340101903

   => Energetics <=

    Nuclear Repulsion Energy =            399.7778198955397215
    One-Electron Energy =               -1281.2039061422221948
    Two-Electron Energy =                 519.8392328456634459
    Total Energy =                       -361.5868534010189705
  Basis Set: (AUG-CC-PVTZ AUX)
    Blend: AUG-CC-PVTZ-RI
    Molecular point group: c1

    Geometry (in Angstrom), charge = 0, multiplicity = 1:

       Center              X                  Y                   Z               Mass
    ------------   -----------------  -----------------  -----------------  -----------------
         N           -1.556825997438    -1.078249324551    -0.000004060756    14.003074004430
         C            0.987421002562     1.432024675449    -0.000005060756    12.000000000000
         C            2.161570002562     0.692584675449    -0.000000060756    12.000000000000
         C            2.139063002562    -0.719837324551    -0.000000060756    12.000000000000
         C            0.940866002562    -1.421756324551     0.000003939244    12.000000000000
         C           -0.241679997438    -0.670385324551    -0.000000060756    12.000000000000
         C           -0.246031997438     0.752668675449     0.000002939244    12.000000000000
         C           -1.614540997438     1.168025675449     0.000004939244    12.000000000000
         C           -2.382574997438     0.026941675449    -0.000002060756    12.000000000000
         H            1.017637002562     2.519989675449    -0.000002060756     1.007825032230
         H            3.120063002562     1.206193675449    -0.000005060756     1.007825032230
         H            3.121443802562    -1.293214424551     0.000003039244     1.007825032230
         H            0.925153002562    -2.509992324551     0.000001939244     1.007825032230
         H           -1.990375997438     2.183130675449     0.000009939244     1.007825032230
         H           -1.870781997438    -2.039386324551    -0.000000060756     1.007825032230
         H           -3.458657997438    -0.090923324551    -0.000005060756     1.007825032230

  Basis Set: AUG-CC-PVTZ
    Blend: AUG-CC-PVTZ
  Basis Set: (AUG-CC-PVTZ AUX)
    Blend: AUG-CC-PVTZ-JKFIT
	 Reference Energy          =    -361.5868534010190274 [Eh]
	 Singles Energy            =      -0.0000000000000000 [Eh]
	 Same-Spin Energy          =      -0.4080597163716428 [Eh]
	 Opposite-Spin Energy      =      -1.2482864243364078 [Eh]
	 Correlation Energy        =      -1.6563461407080506 [Eh]
	 Total Energy              =    -363.2431995417270514 [Eh]

	 ================> DF-SCS-MP2 Energies <==================
	-----------------------------------------------------------
	 SCS Same-Spin Scale       =       0.3333333333333333 [-]
	 SCS Opposite-Spin Scale   =       1.2000000000000000 [-]
	 SCS Same-Spin Energy      =      -0.1360199054572143 [Eh]
	 SCS Opposite-Spin Energy  =      -1.4979437092036894 [Eh]
	 SCS Correlation Energy    =      -1.6339636146609036 [Eh]
	 SCS Total Energy          =    -363.2208170156799270 [Eh]
	-----------------------------------------------------------

  Dipole Moment: [D]
     X:    -1.5063      Y:    -1.5320      Z:     0.0000     Total:     2.1485

*** Psi4 exiting successfully. Buy a developer a beer!
