                               Psi4 1.4a3.dev225

  ==> Input File <==

--------------------------------------------------------------------------
#psi4
#
memory 32 gb

molecule  {
0 1
  N       -1.5630850    -1.0784890    -0.0000040
  C        0.9811620     1.4317850    -0.0000050
  C        2.1553110     0.6923450     0.0000000
  C        2.1328040    -0.7200770     0.0000000
  C        0.9346070    -1.4219960     0.0000040
  C       -0.2479390    -0.6706250     0.0000000
  C       -0.2522910     0.7524290     0.0000030
  C       -1.6208000     1.1677860     0.0000050
  C       -2.3888340     0.0267020    -0.0000020
  H        1.0113780     2.5197500    -0.0000020
  H        3.1138040     1.2059540    -0.0000050
  H        3.0720020    -1.2682500     0.0000030
  H        0.9188940    -2.5102320     0.0000020
  H       -1.9966350     2.1828910     0.0000100
  H       -1.8770410    -2.0396260     0.0000000
  H       -3.4152143    -0.0857190    -0.0000049
units angstrom
no_reorient  #important for SAPT in psi4, default
symmetry c1  #important for SAPT in psi4, default
}

set PROPERTIES_ORIGIN ["COM"]
properties('MP2/aug-cc-pvtz', properties = ['dipole'])
--------------------------------------------------------------------------

    Molecular point group: c1
  Charge       = 0
  Multiplicity = 1
  Basis Set: AUG-CC-PVTZ
    Blend: AUG-CC-PVTZ
  Basis Set: (AUG-CC-PVTZ AUX)
    Blend: AUG-CC-PVTZ-JKFIT

    Orbital Energies [Eh]
    ---------------------

    Doubly Occupied:

       1A    -15.605249     2A    -11.267438     3A    -11.266916
       4A    -11.233412     5A    -11.231570     6A    -11.230323
       7A    -11.226954     8A    -11.222266     9A    -11.218530
      10A     -1.296051    11A     -1.128487    12A     -1.055994
      13A     -0.996725    14A     -0.975858    15A     -0.844873
      16A     -0.807914    17A     -0.788874    18A     -0.729125
      19A     -0.664893    20A     -0.649878    21A     -0.601848
      22A     -0.595285    23A     -0.583770    24A     -0.575462
      25A     -0.552494    26A     -0.507795    27A     -0.482621
      28A     -0.464797    29A     -0.385863    30A     -0.301404
      31A     -0.282972

  @DF-RHF Final Energy:  -361.58849963725157

   => Energetics <=

    Nuclear Repulsion Energy =            400.2880270219433214
    One-Electron Energy =               -1282.2017752037609171
    Two-Electron Energy =                 520.3252485445660795
    Total Energy =                       -361.5884996372515161
  Basis Set: (AUG-CC-PVTZ AUX)
    Blend: AUG-CC-PVTZ-RI
    Molecular point group: c1

    Geometry (in Angstrom), charge = 0, multiplicity = 1:

       Center              X                  Y                   Z               Mass
    ------------   -----------------  -----------------  -----------------  -----------------
         N           -1.556882131379    -1.078513193421    -0.000004060756    14.003074004430
         C            0.987364868621     1.431760806579    -0.000005060756    12.000000000000
         C            2.161513868621     0.692320806579    -0.000000060756    12.000000000000
         C            2.139006868621    -0.720101193421    -0.000000060756    12.000000000000
         C            0.940809868621    -1.422020193421     0.000003939244    12.000000000000
         C           -0.241736131379    -0.670649193421    -0.000000060756    12.000000000000
         C           -0.246088131379     0.752404806579     0.000002939244    12.000000000000
         C           -1.614597131379     1.167761806579     0.000004939244    12.000000000000
         C           -2.382631131379     0.026677806579    -0.000002060756    12.000000000000
         H            1.017580868621     2.519725806579    -0.000002060756     1.007825032230
         H            3.120006868621     1.205929806579    -0.000005060756     1.007825032230
         H            3.078204868621    -1.268274193421     0.000002939244     1.007825032230
         H            0.925096868621    -2.510256193421     0.000001939244     1.007825032230
         H           -1.990432131379     2.182866806579     0.000009939244     1.007825032230
         H           -1.870838131379    -2.039650193421    -0.000000060756     1.007825032230
         H           -3.409011431379    -0.085743193421    -0.000004960756     1.007825032230

  Basis Set: AUG-CC-PVTZ
    Blend: AUG-CC-PVTZ
  Basis Set: (AUG-CC-PVTZ AUX)
    Blend: AUG-CC-PVTZ-JKFIT
	 Reference Energy          =    -361.5884996372515729 [Eh]
	 Singles Energy            =      -0.0000000000000000 [Eh]
	 Same-Spin Energy          =      -0.4078659093751375 [Eh]
	 Opposite-Spin Energy      =      -1.2475193810554126 [Eh]
	 Correlation Energy        =      -1.6553852904305502 [Eh]
	 Total Energy              =    -363.2438849276821315 [Eh]

	 ================> DF-SCS-MP2 Energies <==================
	-----------------------------------------------------------
	 SCS Same-Spin Scale       =       0.3333333333333333 [-]
	 SCS Opposite-Spin Scale   =       1.2000000000000000 [-]
	 SCS Same-Spin Energy      =      -0.1359553031250458 [Eh]
	 SCS Opposite-Spin Energy  =      -1.4970232572664950 [Eh]
	 SCS Correlation Energy    =      -1.6329785603915408 [Eh]
	 SCS Total Energy          =    -363.2214781976431368 [Eh]
	-----------------------------------------------------------

  Dipole Moment: [D]
     X:    -1.4877      Y:    -1.5458      Z:     0.0000     Total:     2.1454

*** Psi4 exiting successfully. Buy a developer a beer!
