                               Psi4 1.4a3.dev225

  ==> Input File <==

--------------------------------------------------------------------------
#psi4
#
memory 32 gb

molecule  {
0 1
  N       -1.5630850    -1.0784890    -0.0000040
  C        0.9811620     1.4317850    -0.0000050
  C        2.1553110     0.6923450     0.0000000
  C        2.1328040    -0.7200770     0.0000000
  C        0.9346070    -1.4219960     0.0000040
  C       -0.2479390    -0.6706250     0.0000000
  C       -0.2522910     0.7524290     0.0000030
  C       -1.6208000     1.1677860     0.0000050
  C       -2.3888340     0.0267020    -0.0000020
  H        1.0113780     2.5197500    -0.0000020
  H        3.1138040     1.2059540    -0.0000050
  H        3.0720020    -1.2682500     0.0000030
  H        0.9188940    -2.5102320     0.0000020
  H       -1.9966350     2.1828910     0.0000100
  H       -1.8615158    -1.9920974    -0.0000002
  H       -3.4649170    -0.0911630    -0.0000050
units angstrom
no_reorient  #important for SAPT in psi4, default
symmetry c1  #important for SAPT in psi4, default
}

set PROPERTIES_ORIGIN ["COM"]
properties('MP2/aug-cc-pvtz', properties = ['dipole'])
--------------------------------------------------------------------------

    Molecular point group: c1
  Charge       = 0
  Multiplicity = 1
  Basis Set: AUG-CC-PVTZ
    Blend: AUG-CC-PVTZ
  Basis Set: (AUG-CC-PVTZ AUX)
    Blend: AUG-CC-PVTZ-JKFIT

    Orbital Energies [Eh]
    ---------------------

    Doubly Occupied:

       1A    -15.600855     2A    -11.273326     3A    -11.267257
       4A    -11.233789     5A    -11.231861     6A    -11.230616
       7A    -11.227400     8A    -11.222624     9A    -11.219124
      10A     -1.300123    11A     -1.129765    12A     -1.058713
      13A     -0.998426    14A     -0.975084    15A     -0.844023
      16A     -0.812368    17A     -0.789724    18A     -0.731113
      19A     -0.662578    20A     -0.647726    21A     -0.604405
      22A     -0.596073    23A     -0.584671    24A     -0.575010
      25A     -0.550382    26A     -0.508035    27A     -0.483090
      28A     -0.465356    29A     -0.386417    30A     -0.302007
      31A     -0.283396

  @DF-RHF Final Energy:  -361.58903145515973

   => Energetics <=

    Nuclear Repulsion Energy =            400.3379848013963169
    One-Electron Energy =               -1282.2633566985566631
    Two-Electron Energy =                 520.3363404420006191
    Total Energy =                       -361.5890314551597839
  Basis Set: (AUG-CC-PVTZ AUX)
    Blend: AUG-CC-PVTZ-RI
    Molecular point group: c1

    Geometry (in Angstrom), charge = 0, multiplicity = 1:

       Center              X                  Y                   Z               Mass
    ------------   -----------------  -----------------  -----------------  -----------------
         N           -1.556587875673    -1.078875526349    -0.000004058173    14.003074004430
         C            0.987659124327     1.431398473651    -0.000005058173    12.000000000000
         C            2.161808124327     0.691958473651    -0.000000058173    12.000000000000
         C            2.139301124327    -0.720463526349    -0.000000058173    12.000000000000
         C            0.941104124327    -1.422382526349     0.000003941827    12.000000000000
         C           -0.241441875673    -0.671011526349    -0.000000058173    12.000000000000
         C           -0.245793875673     0.752042473651     0.000002941827    12.000000000000
         C           -1.614302875673     1.167399473651     0.000004941827    12.000000000000
         C           -2.382336875673     0.026315473651    -0.000002058173    12.000000000000
         H            1.017875124327     2.519363473651    -0.000002058173     1.007825032230
         H            3.120301124327     1.205567473651    -0.000005058173     1.007825032230
         H            3.078499124327    -1.268636526349     0.000002941827     1.007825032230
         H            0.925391124327    -2.510618526349     0.000001941827     1.007825032230
         H           -1.990137875673     2.182504473651     0.000009941827     1.007825032230
         H           -1.855018675673    -1.992483926349    -0.000000258173     1.007825032230
         H           -3.458419875673    -0.091549526349    -0.000005058173     1.007825032230

  Basis Set: AUG-CC-PVTZ
    Blend: AUG-CC-PVTZ
  Basis Set: (AUG-CC-PVTZ AUX)
    Blend: AUG-CC-PVTZ-JKFIT
	 Reference Energy          =    -361.5890314551597271 [Eh]
	 Singles Energy            =      -0.0000000000000000 [Eh]
	 Same-Spin Energy          =      -0.4075518383189732 [Eh]
	 Opposite-Spin Energy      =      -1.2469454995624383 [Eh]
	 Correlation Energy        =      -1.6544973378814114 [Eh]
	 Total Energy              =    -363.2435287930411505 [Eh]

	 ================> DF-SCS-MP2 Energies <==================
	-----------------------------------------------------------
	 SCS Same-Spin Scale       =       0.3333333333333333 [-]
	 SCS Opposite-Spin Scale   =       1.2000000000000000 [-]
	 SCS Same-Spin Energy      =      -0.1358506127729910 [Eh]
	 SCS Opposite-Spin Energy  =      -1.4963345994749260 [Eh]
	 SCS Correlation Energy    =      -1.6321852122479170 [Eh]
	 SCS Total Energy          =    -363.2212166674076457 [Eh]
	-----------------------------------------------------------

  Dipole Moment: [D]
     X:    -1.4578      Y:    -1.4900      Z:     0.0000     Total:     2.0845

*** Psi4 exiting successfully. Buy a developer a beer!
