                               Psi4 1.3.2 release

  ==> Input File <==

--------------------------------------------------------------------------
#psi4
#
memory 32 gb

molecule  {
0 1
  N       -1.5631460    -1.0786450     0.0000020
  C        0.9814170     1.4318910     0.0000000
  C        2.1554110     0.6922200     0.0000020
  C        2.1326810    -0.7203310    -0.0000050
  C        0.9343870    -1.4220840     0.0000000
  C       -0.2481830    -0.6706930     0.0000000
  C       -0.2522510     0.7528300     0.0000150
  C       -1.6207120     1.1681210    -0.0000080
  C       -2.3885810     0.0265560    -0.0000050
  H        1.0121500     2.5200250     0.0000050
  H        3.1140070     1.2059840    -0.0000050
  H        3.2445386    -1.3696708    -0.0000050
  H        0.9183210    -2.5105470    -0.0000040
  H       -1.9975130     2.1830700    -0.0000130
  H       -1.8769340    -2.0399470     0.0000180
  H       -3.4648550    -0.0903210     0.0000040
units angstrom
no_reorient  #important for SAPT in psi4, default
symmetry c1  #important for SAPT in psi4, default
}

set PROPERTIES_ORIGIN ["COM"]
properties('MP2/aug-cc-pvtz', properties = ['dipole'])
--------------------------------------------------------------------------

    Molecular point group: c1
  Charge       = 0
  Multiplicity = 1
  Basis Set: AUG-CC-PVTZ
    Blend: AUG-CC-PVTZ
  Basis Set: (AUG-CC-PVTZ AUX)
    Blend: AUG-CC-PVTZ-JKFIT

    Orbital Energies [Eh]
    ---------------------

    Doubly Occupied:

       1A    -15.606881     2A    -11.274140     3A    -11.268859
       4A    -11.252535     5A    -11.235875     6A    -11.233445
       7A    -11.228470     8A    -11.224941     9A    -11.219742
      10A     -1.297414    11A     -1.129148    12A     -1.056297
      13A     -0.997992    14A     -0.971168    15A     -0.841915
      16A     -0.801112    17A     -0.787812    18A     -0.725919
      19A     -0.657247    20A     -0.639192    21A     -0.601515
      22A     -0.596576    23A     -0.585273    24A     -0.575681
      25A     -0.537465    26A     -0.500234    27A     -0.475265
      28A     -0.466721    29A     -0.387377    30A     -0.302980
      31A     -0.284247

  @DF-RHF Final Energy:  -361.56710664367432

   => Energetics <=

    Nuclear Repulsion Energy =            399.0984504659247136
    One-Electron Energy =               -1279.8042372725458335
    Two-Electron Energy =                 519.1386801629467982
    Total Energy =                       -361.5671066436742649
  Basis Set: (AUG-CC-PVTZ AUX)
    Blend: AUG-CC-PVTZ-RI
    Molecular point group: c1

    Geometry (in Angstrom), charge = 0, multiplicity = 1:

       Center              X                  Y                   Z               Mass
    ------------   -----------------  -----------------  -----------------  -----------------
         N           -1.558006020286    -1.077752910562     0.000001863263    14.003074004430
         C            0.986556979714     1.432783089438    -0.000000136737    12.000000000000
         C            2.160550979714     0.693112089438     0.000001863263    12.000000000000
         C            2.137820979714    -0.719438910562    -0.000005136737    12.000000000000
         C            0.939526979714    -1.421191910562    -0.000000136737    12.000000000000
         C           -0.243043020286    -0.669800910562    -0.000000136737    12.000000000000
         C           -0.247111020286     0.753722089438     0.000014863263    12.000000000000
         C           -1.615572020286     1.169013089438    -0.000008136737    12.000000000000
         C           -2.383441020286     0.027448089438    -0.000005136737    12.000000000000
         H            1.017289979714     2.520917089438     0.000004863263     1.007825032230
         H            3.119146979714     1.206876089438    -0.000005136737     1.007825032230
         H            3.249678579714    -1.368778710562    -0.000005136737     1.007825032230
         H            0.923460979714    -2.509654910562    -0.000004136737     1.007825032230
         H           -1.992373020286     2.183962089438    -0.000013136737     1.007825032230
         H           -1.871794020286    -2.039054910562     0.000017863263     1.007825032230
         H           -3.459715020286    -0.089428910562     0.000003863263     1.007825032230

  Basis Set: AUG-CC-PVTZ
    Blend: AUG-CC-PVTZ
  Basis Set: (AUG-CC-PVTZ AUX)
    Blend: AUG-CC-PVTZ-JKFIT
	 Reference Energy          =    -361.5671066436743217 [Eh]
	 Singles Energy            =      -0.0000000000000000 [Eh]
	 Same-Spin Energy          =      -0.4084288619082192 [Eh]
	 Opposite-Spin Energy      =      -1.2500887237854110 [Eh]
	 Correlation Energy        =      -1.6585175856936303 [Eh]
	 Total Energy              =    -363.2256242293679520 [Eh]

	 ================> DF-SCS-MP2 Energies <==================
	-----------------------------------------------------------
	 SCS Same-Spin Scale       =       0.3333333333333333 [-]
	 SCS Opposite-Spin Scale   =       1.2000000000000000 [-]
	 SCS Same-Spin Energy      =      -0.1361429539694064 [Eh]
	 SCS Opposite-Spin Energy  =      -1.5001064685424932 [Eh]
	 SCS Correlation Energy    =      -1.6362494225118995 [Eh]
	 SCS Total Energy          =    -363.2033560661862452 [Eh]
	-----------------------------------------------------------

  Dipole Moment: [D]
     X:    -1.5991      Y:    -1.4780      Z:     0.0000     Total:     2.1775

*** Psi4 exiting successfully. Buy a developer a beer!
