                               Psi4 1.3.2 release

  ==> Input File <==

--------------------------------------------------------------------------
#psi4
#
memory 32 gb

molecule  {
0 1
  N       -1.5631460    -1.0786450     0.0000020
  C        0.9814170     1.4318910     0.0000000
  C        2.3029383     0.6821060     0.0000009
  C        2.1326810    -0.7203310    -0.0000050
  C        0.9343870    -1.4220840     0.0000000
  C       -0.2481830    -0.6706930     0.0000000
  C       -0.2522510     0.7528300     0.0000150
  C       -1.6207120     1.1681210    -0.0000080
  C       -2.3885810     0.0265560    -0.0000050
  H        1.0121500     2.5200250     0.0000050
  H        3.1140070     1.2059840    -0.0000050
  H        3.0718340    -1.2688090    -0.0000050
  H        0.9183210    -2.5105470    -0.0000040
  H       -1.9975130     2.1830700    -0.0000130
  H       -1.8769340    -2.0399470     0.0000180
  H       -3.4648550    -0.0903210     0.0000040
units angstrom
no_reorient  #important for SAPT in psi4, default
symmetry c1  #important for SAPT in psi4, default
}

set PROPERTIES_ORIGIN ["COM"]
properties('MP2/aug-cc-pvtz', properties = ['dipole'])
--------------------------------------------------------------------------

    Molecular point group: c1
  Charge       = 0
  Multiplicity = 1
  Basis Set: AUG-CC-PVTZ
    Blend: AUG-CC-PVTZ
  Basis Set: (AUG-CC-PVTZ AUX)
    Blend: AUG-CC-PVTZ-JKFIT

    Orbital Energies [Eh]
    ---------------------

    Doubly Occupied:

       1A    -15.606090     2A    -11.275934     3A    -11.272475
       4A    -11.246474     5A    -11.233611     6A    -11.231277
       7A    -11.230288     8A    -11.225593     9A    -11.221073
      10A     -1.298366    11A     -1.118170    12A     -1.057254
      13A     -0.993398    14A     -0.969882    15A     -0.850726
      16A     -0.805233    17A     -0.792880    18A     -0.724816
      19A     -0.680487    20A     -0.648469    21A     -0.599239
      22A     -0.591198    23A     -0.584792    24A     -0.577059
      25A     -0.551970    26A     -0.523234    27A     -0.466551
      28A     -0.456507    29A     -0.387082    30A     -0.299475
      31A     -0.279417

  @DF-RHF Final Energy:  -361.55894548683216

   => Energetics <=

    Nuclear Repulsion Energy =            397.6590783416936006
    One-Electron Energy =               -1276.8380136096466231
    Two-Electron Energy =                 517.6199897811208075
    Total Energy =                       -361.5589454868321582
  Basis Set: (AUG-CC-PVTZ AUX)
    Blend: AUG-CC-PVTZ-RI
    Molecular point group: c1

    Geometry (in Angstrom), charge = 0, multiplicity = 1:

       Center              X                  Y                   Z               Mass
    ------------   -----------------  -----------------  -----------------  -----------------
         N           -1.571642624678    -1.077584472876     0.000001976028    14.003074004430
         C            0.972920375322     1.432951527124    -0.000000023972    12.000000000000
         C            2.294441675322     0.683166527124     0.000000876028    12.000000000000
         C            2.124184375322    -0.719270472876    -0.000005023972    12.000000000000
         C            0.925890375322    -1.421023472876    -0.000000023972    12.000000000000
         C           -0.256679624678    -0.669632472876    -0.000000023972    12.000000000000
         C           -0.260747624678     0.753890527124     0.000014976028    12.000000000000
         C           -1.629208624678     1.169181527124    -0.000008023972    12.000000000000
         C           -2.397077624678     0.027616527124    -0.000005023972    12.000000000000
         H            1.003653375322     2.521085527124     0.000004976028     1.007825032230
         H            3.105510375322     1.207044527124    -0.000005023972     1.007825032230
         H            3.063337375322    -1.267748472876    -0.000005023972     1.007825032230
         H            0.909824375322    -2.509486472876    -0.000004023972     1.007825032230
         H           -2.006009624678     2.184130527124    -0.000013023972     1.007825032230
         H           -1.885430624678    -2.038886472876     0.000017976028     1.007825032230
         H           -3.473351624678    -0.089260472876     0.000003976028     1.007825032230

  Basis Set: AUG-CC-PVTZ
    Blend: AUG-CC-PVTZ
  Basis Set: (AUG-CC-PVTZ AUX)
    Blend: AUG-CC-PVTZ-JKFIT
	 Reference Energy          =    -361.5589454868321582 [Eh]
	 Singles Energy            =      -0.0000000000000000 [Eh]
	 Same-Spin Energy          =      -0.4081472957639287 [Eh]
	 Opposite-Spin Energy      =      -1.2499409356505269 [Eh]
	 Correlation Energy        =      -1.6580882314144556 [Eh]
	 Total Energy              =    -363.2170337182466255 [Eh]

	 ================> DF-SCS-MP2 Energies <==================
	-----------------------------------------------------------
	 SCS Same-Spin Scale       =       0.3333333333333333 [-]
	 SCS Opposite-Spin Scale   =       1.2000000000000000 [-]
	 SCS Same-Spin Energy      =      -0.1360490985879762 [Eh]
	 SCS Opposite-Spin Energy  =      -1.4999291227806322 [Eh]
	 SCS Correlation Energy    =      -1.6359782213686085 [Eh]
	 SCS Total Energy          =    -363.1949237082007471 [Eh]
	-----------------------------------------------------------

  Dipole Moment: [D]
     X:    -1.5861      Y:    -1.5403      Z:     0.0000     Total:     2.2109

*** Psi4 exiting successfully. Buy a developer a beer!
