                               Psi4 1.4a3.dev225

  ==> Input File <==

--------------------------------------------------------------------------
#psi4
#
memory 32 gb

molecule  {
0 1
  N       -1.5630850    -1.0784890    -0.0000040
  C        0.9811620     1.4317850    -0.0000050
  C        2.1553110     0.6923450     0.0000000
  C        2.1328040    -0.7200770     0.0000000
  C        0.9346070    -1.4219960     0.0000040
  C       -0.2479390    -0.6706250     0.0000000
  C       -0.2522910     0.7524290     0.0000030
  C       -1.6208000     1.1677860     0.0000050
  C       -2.3888340     0.0267020    -0.0000020
  H        1.0113780     2.5197500    -0.0000020
  H        3.1138040     1.2059540    -0.0000050
  H        3.0288192    -1.2430459     0.0000029
  H        0.9188940    -2.5102320     0.0000020
  H       -1.9966350     2.1828910     0.0000100
  H       -1.8770410    -2.0396260     0.0000000
  H       -3.4649170    -0.0911630    -0.0000050
units angstrom
no_reorient  #important for SAPT in psi4, default
symmetry c1  #important for SAPT in psi4, default
}

set PROPERTIES_ORIGIN ["COM"]
properties('MP2/aug-cc-pvtz', properties = ['dipole'])
--------------------------------------------------------------------------

    Molecular point group: c1
  Charge       = 0
  Multiplicity = 1
  Basis Set: AUG-CC-PVTZ
    Blend: AUG-CC-PVTZ
  Basis Set: (AUG-CC-PVTZ AUX)
    Blend: AUG-CC-PVTZ-JKFIT

    Orbital Energies [Eh]
    ---------------------

    Doubly Occupied:

       1A    -15.605422     2A    -11.273012     3A    -11.266764
       4A    -11.233026     5A    -11.231325     6A    -11.227008
       7A    -11.224515     8A    -11.221821     9A    -11.218617
      10A     -1.296005    11A     -1.128640    12A     -1.056190
      13A     -0.996263    14A     -0.975812    15A     -0.842884
      16A     -0.808543    17A     -0.788694    18A     -0.727969
      19A     -0.665100    20A     -0.648708    21A     -0.601935
      22A     -0.595103    23A     -0.583805    24A     -0.574209
      25A     -0.553594    26A     -0.509208    27A     -0.483216
      28A     -0.464605    29A     -0.385811    30A     -0.301267
      31A     -0.282867

  @DF-RHF Final Energy:  -361.58853827687511

   => Energetics <=

    Nuclear Repulsion Energy =            400.2834115980073193
    One-Electron Energy =               -1282.2000242558219725
    Two-Electron Energy =                 520.3280743809394835
    Total Energy =                       -361.5885382768751697
  Basis Set: (AUG-CC-PVTZ AUX)
    Blend: AUG-CC-PVTZ-RI
    Molecular point group: c1

    Geometry (in Angstrom), charge = 0, multiplicity = 1:

       Center              X                  Y                   Z               Mass
    ------------   -----------------  -----------------  -----------------  -----------------
         N           -1.556082421384    -1.078683320615    -0.000004059034    14.003074004430
         C            0.988164578616     1.431590679385    -0.000005059034    12.000000000000
         C            2.162313578616     0.692150679385    -0.000000059034    12.000000000000
         C            2.139806578616    -0.720271320615    -0.000000059034    12.000000000000
         C            0.941609578616    -1.422190320615     0.000003940966    12.000000000000
         C           -0.240936421384    -0.670819320615    -0.000000059034    12.000000000000
         C           -0.245288421384     0.752234679385     0.000002940966    12.000000000000
         C           -1.613797421384     1.167591679385     0.000004940966    12.000000000000
         C           -2.381831421384     0.026507679385    -0.000002059034    12.000000000000
         H            1.018380578616     2.519555679385    -0.000002059034     1.007825032230
         H            3.120806578616     1.205759679385    -0.000005059034     1.007825032230
         H            3.035821778616    -1.243240220615     0.000002840966     1.007825032230
         H            0.925896578616    -2.510426320615     0.000001940966     1.007825032230
         H           -1.989632421384     2.182696679385     0.000009940966     1.007825032230
         H           -1.870038421384    -2.039820320615    -0.000000059034     1.007825032230
         H           -3.457914421384    -0.091357320615    -0.000005059034     1.007825032230

  Basis Set: AUG-CC-PVTZ
    Blend: AUG-CC-PVTZ
  Basis Set: (AUG-CC-PVTZ AUX)
    Blend: AUG-CC-PVTZ-JKFIT
	 Reference Energy          =    -361.5885382768751128 [Eh]
	 Singles Energy            =      -0.0000000000000000 [Eh]
	 Same-Spin Energy          =      -0.4078883340646349 [Eh]
	 Opposite-Spin Energy      =      -1.2475515852666759 [Eh]
	 Correlation Energy        =      -1.6554399193313107 [Eh]
	 Total Energy              =    -363.2439781962063989 [Eh]

	 ================> DF-SCS-MP2 Energies <==================
	-----------------------------------------------------------
	 SCS Same-Spin Scale       =       0.3333333333333333 [-]
	 SCS Opposite-Spin Scale   =       1.2000000000000000 [-]
	 SCS Same-Spin Energy      =      -0.1359627780215449 [Eh]
	 SCS Opposite-Spin Energy  =      -1.4970619023200109 [Eh]
	 SCS Correlation Energy    =      -1.6330246803415558 [Eh]
	 SCS Total Energy          =    -363.2215629572166904 [Eh]
	-----------------------------------------------------------

  Dipole Moment: [D]
     X:    -1.4663      Y:    -1.5574      Z:     0.0000     Total:     2.1391

*** Psi4 exiting successfully. Buy a developer a beer!
