                               Psi4 1.4a3.dev225

  ==> Input File <==

--------------------------------------------------------------------------
#psi4
#
memory 32 gb

molecule  {
0 1
  N       -1.5630850    -1.0784890    -0.0000040
  C        0.9811620     1.4317850    -0.0000050
  C        2.1553110     0.6923450     0.0000000
  C        2.1328040    -0.7200770     0.0000000
  C        0.9346070    -1.4219960     0.0000040
  C       -0.2479390    -0.6706250     0.0000000
  C       -0.2522910     0.7524290     0.0000030
  C       -1.6208000     1.1677860     0.0000050
  C       -2.3888340     0.0267020    -0.0000020
  H        1.0113780     2.5197500    -0.0000020
  H        3.1138040     1.2059540    -0.0000050
  H        3.0720020    -1.2682500     0.0000030
  H        0.9188940    -2.5102320     0.0000020
  H       -1.9896908     2.1641352     0.0000099
  H       -1.8770410    -2.0396260     0.0000000
  H       -3.4649170    -0.0911630    -0.0000050
units angstrom
no_reorient  #important for SAPT in psi4, default
symmetry c1  #important for SAPT in psi4, default
}

set PROPERTIES_ORIGIN ["COM"]
properties('MP2/aug-cc-pvtz', properties = ['dipole'])
--------------------------------------------------------------------------

    Molecular point group: c1
  Charge       = 0
  Multiplicity = 1
  Basis Set: AUG-CC-PVTZ
    Blend: AUG-CC-PVTZ
  Basis Set: (AUG-CC-PVTZ AUX)
    Blend: AUG-CC-PVTZ-JKFIT

    Orbital Energies [Eh]
    ---------------------

    Doubly Occupied:

       1A    -15.605537     2A    -11.273046     3A    -11.266963
       4A    -11.233473     5A    -11.231610     6A    -11.230318
       7A    -11.227013     8A    -11.222319     9A    -11.216475
      10A     -1.296095    11A     -1.128440    12A     -1.056329
      13A     -0.996436    14A     -0.974520    15A     -0.842251
      16A     -0.806527    17A     -0.790283    18A     -0.727453
      19A     -0.661904    20A     -0.647716    21A     -0.602556
      22A     -0.595396    23A     -0.583912    24A     -0.576396
      25A     -0.550430    26A     -0.507687    27A     -0.482853
      28A     -0.464861    29A     -0.385958    30A     -0.301458
      31A     -0.282996

  @DF-RHF Final Energy:  -361.58943448851034

   => Energetics <=

    Nuclear Repulsion Energy =            400.1260474354385792
    One-Electron Energy =               -1281.8925405373699959
    Two-Electron Energy =                 520.1770586134211953
    Total Energy =                       -361.5894344885102782
  Basis Set: (AUG-CC-PVTZ AUX)
    Blend: AUG-CC-PVTZ-RI
    Molecular point group: c1

    Geometry (in Angstrom), charge = 0, multiplicity = 1:

       Center              X                  Y                   Z               Mass
    ------------   -----------------  -----------------  -----------------  -----------------
         N           -1.556513996419    -1.078304842042    -0.000004059034    14.003074004430
         C            0.987733003581     1.431969157958    -0.000005059034    12.000000000000
         C            2.161882003581     0.692529157958    -0.000000059034    12.000000000000
         C            2.139375003581    -0.719892842042    -0.000000059034    12.000000000000
         C            0.941178003581    -1.421811842042     0.000003940966    12.000000000000
         C           -0.241367996419    -0.670440842042    -0.000000059034    12.000000000000
         C           -0.245719996419     0.752613157958     0.000002940966    12.000000000000
         C           -1.614228996419     1.167970157958     0.000004940966    12.000000000000
         C           -2.382262996419     0.026886157958    -0.000002059034    12.000000000000
         H            1.017949003581     2.519934157958    -0.000002059034     1.007825032230
         H            3.120375003581     1.206138157958    -0.000005059034     1.007825032230
         H            3.078573003581    -1.268065842042     0.000002940966     1.007825032230
         H            0.925465003581    -2.510047842042     0.000001940966     1.007825032230
         H           -1.983119796419     2.164319357958     0.000009840966     1.007825032230
         H           -1.870469996419    -2.039441842042    -0.000000059034     1.007825032230
         H           -3.458345996419    -0.090978842042    -0.000005059034     1.007825032230

  Basis Set: AUG-CC-PVTZ
    Blend: AUG-CC-PVTZ
  Basis Set: (AUG-CC-PVTZ AUX)
    Blend: AUG-CC-PVTZ-JKFIT
	 Reference Energy          =    -361.5894344885103351 [Eh]
	 Singles Energy            =      -0.0000000000000000 [Eh]
	 Same-Spin Energy          =      -0.4079304966334847 [Eh]
	 Opposite-Spin Energy      =      -1.2477167441746710 [Eh]
	 Correlation Energy        =      -1.6556472408081557 [Eh]
	 Total Energy              =    -363.2450817293184855 [Eh]

	 ================> DF-SCS-MP2 Energies <==================
	-----------------------------------------------------------
	 SCS Same-Spin Scale       =       0.3333333333333333 [-]
	 SCS Opposite-Spin Scale   =       1.2000000000000000 [-]
	 SCS Same-Spin Energy      =      -0.1359768322111616 [Eh]
	 SCS Opposite-Spin Energy  =      -1.4972600930096052 [Eh]
	 SCS Correlation Energy    =      -1.6332369252207668 [Eh]
	 SCS Total Energy          =    -363.2226714137311205 [Eh]
	-----------------------------------------------------------

  Dipole Moment: [D]
     X:    -1.4883      Y:    -1.5440      Z:     0.0000     Total:     2.1445

*** Psi4 exiting successfully. Buy a developer a beer!
