                               Psi4 1.3.2 release

  ==> Input File <==

--------------------------------------------------------------------------
#psi4
#
memory 32 gb

molecule  {
0 1
  N       -1.5631460    -1.0786450     0.0000020
  C        0.9326799     1.3481955    -0.0000006
  C        2.1554110     0.6922200     0.0000020
  C        2.1326810    -0.7203310    -0.0000050
  C        0.9343870    -1.4220840     0.0000000
  C       -0.2481830    -0.6706930     0.0000000
  C       -0.2522510     0.7528300     0.0000150
  C       -1.6207120     1.1681210    -0.0000080
  C       -2.3885810     0.0265560    -0.0000050
  H        1.0121500     2.5200250     0.0000050
  H        3.1140070     1.2059840    -0.0000050
  H        3.0718340    -1.2688090    -0.0000050
  H        0.9183210    -2.5105470    -0.0000040
  H       -1.9975130     2.1830700    -0.0000130
  H       -1.8769340    -2.0399470     0.0000180
  H       -3.4648550    -0.0903210     0.0000040
units angstrom
no_reorient  #important for SAPT in psi4, default
symmetry c1  #important for SAPT in psi4, default
}

set PROPERTIES_ORIGIN ["COM"]
properties('MP2/aug-cc-pvtz', properties = ['dipole'])
--------------------------------------------------------------------------

    Molecular point group: c1
  Charge       = 0
  Multiplicity = 1
  Basis Set: AUG-CC-PVTZ
    Blend: AUG-CC-PVTZ
  Basis Set: (AUG-CC-PVTZ AUX)
    Blend: AUG-CC-PVTZ-JKFIT

    Orbital Energies [Eh]
    ---------------------

    Doubly Occupied:

       1A    -15.605662     2A    -11.275674     3A    -11.269428
       4A    -11.230868     5A    -11.230091     6A    -11.229596
       7A    -11.220965     8A    -11.220736     9A    -11.219786
      10A     -1.298076    11A     -1.137531    12A     -1.060004
      13A     -0.994201    14A     -0.979851    15A     -0.844994
      16A     -0.809220    17A     -0.791913    18A     -0.720942
      19A     -0.661059    20A     -0.652176    21A     -0.603170
      22A     -0.586880    23A     -0.584196    24A     -0.573272
      25A     -0.552927    26A     -0.520626    27A     -0.470048
      28A     -0.462832    29A     -0.391856    30A     -0.299121
      31A     -0.287415

  @DF-RHF Final Energy:  -361.57742662895811

   => Energetics <=

    Nuclear Repulsion Energy =            401.7855813310677604
    One-Electron Energy =               -1285.1557799043030172
    Two-Electron Energy =                 521.7927719442770922
    Total Energy =                       -361.5774266289581647
  Basis Set: (AUG-CC-PVTZ AUX)
    Blend: AUG-CC-PVTZ-RI
    Molecular point group: c1

    Geometry (in Angstrom), charge = 0, multiplicity = 1:

       Center              X                  Y                   Z               Mass
    ------------   -----------------  -----------------  -----------------  -----------------
         N           -1.551522890585    -1.070041381953     0.000001924771    14.003074004430
         C            0.944303009415     1.356799118047    -0.000000675229    12.000000000000
         C            2.167034109415     0.700823618047     0.000001924771    12.000000000000
         C            2.144304109415    -0.711727381953    -0.000005075229    12.000000000000
         C            0.946010109415    -1.413480381953    -0.000000075229    12.000000000000
         C           -0.236559890585    -0.662089381953    -0.000000075229    12.000000000000
         C           -0.240627890585     0.761433618047     0.000014924771    12.000000000000
         C           -1.609088890585     1.176724618047    -0.000008075229    12.000000000000
         C           -2.376957890585     0.035159618047    -0.000005075229    12.000000000000
         H            1.023773109415     2.528628618047     0.000004924771     1.007825032230
         H            3.125630109415     1.214587618047    -0.000005075229     1.007825032230
         H            3.083457109415    -1.260205381953    -0.000005075229     1.007825032230
         H            0.929944109415    -2.501943381953    -0.000004075229     1.007825032230
         H           -1.985889890585     2.191673618047    -0.000013075229     1.007825032230
         H           -1.865310890585    -2.031343381953     0.000017924771     1.007825032230
         H           -3.453231890585    -0.081717381953     0.000003924771     1.007825032230

  Basis Set: AUG-CC-PVTZ
    Blend: AUG-CC-PVTZ
  Basis Set: (AUG-CC-PVTZ AUX)
    Blend: AUG-CC-PVTZ-JKFIT
	 Reference Energy          =    -361.5774266289581078 [Eh]
	 Singles Energy            =      -0.0000000000000000 [Eh]
	 Same-Spin Energy          =      -0.4082612997889499 [Eh]
	 Opposite-Spin Energy      =      -1.2479955377840746 [Eh]
	 Correlation Energy        =      -1.6562568375730244 [Eh]
	 Total Energy              =    -363.2336834665311471 [Eh]

	 ================> DF-SCS-MP2 Energies <==================
	-----------------------------------------------------------
	 SCS Same-Spin Scale       =       0.3333333333333333 [-]
	 SCS Opposite-Spin Scale   =       1.2000000000000000 [-]
	 SCS Same-Spin Energy      =      -0.1360870999296500 [Eh]
	 SCS Opposite-Spin Energy  =      -1.4975946453408895 [Eh]
	 SCS Correlation Energy    =      -1.6336817452705394 [Eh]
	 SCS Total Energy          =    -363.2111083742286723 [Eh]
	-----------------------------------------------------------

  Dipole Moment: [D]
     X:    -1.5314      Y:    -1.6186      Z:     0.0000     Total:     2.2282

*** Psi4 exiting successfully. Buy a developer a beer!
