                               Psi4 1.3.2 release

  ==> Input File <==

--------------------------------------------------------------------------
#psi4
#
memory 32 gb

molecule  {
0 1
  N       -1.5631460    -1.0786450     0.0000020
  C        1.0456400     1.2992176     0.0000049
  C        2.1554110     0.6922200     0.0000020
  C        2.1326810    -0.7203310    -0.0000050
  C        0.9343870    -1.4220840     0.0000000
  C       -0.2481830    -0.6706930     0.0000000
  C       -0.2522510     0.7528300     0.0000150
  C       -1.6207120     1.1681210    -0.0000080
  C       -2.3885810     0.0265560    -0.0000050
  H        1.0121500     2.5200250     0.0000050
  H        3.1140070     1.2059840    -0.0000050
  H        3.0718340    -1.2688090    -0.0000050
  H        0.9183210    -2.5105470    -0.0000040
  H       -1.9975130     2.1830700    -0.0000130
  H       -1.8769340    -2.0399470     0.0000180
  H       -3.4648550    -0.0903210     0.0000040
units angstrom
no_reorient  #important for SAPT in psi4, default
symmetry c1  #important for SAPT in psi4, default
}

set PROPERTIES_ORIGIN ["COM"]
properties('MP2/aug-cc-pvtz', properties = ['dipole'])
--------------------------------------------------------------------------

    Molecular point group: c1
  Charge       = 0
  Multiplicity = 1
  Basis Set: AUG-CC-PVTZ
    Blend: AUG-CC-PVTZ
  Basis Set: (AUG-CC-PVTZ AUX)
    Blend: AUG-CC-PVTZ-JKFIT

    Orbital Energies [Eh]
    ---------------------

    Doubly Occupied:

       1A    -15.607129     2A    -11.273113     3A    -11.264748
       4A    -11.233513     5A    -11.231004     6A    -11.228153
       7A    -11.225721     8A    -11.222811     9A    -11.207985
      10A     -1.296513    11A     -1.145342    12A     -1.054585
      13A     -1.012787    14A     -0.973726    15A     -0.836489
      16A     -0.812387    17A     -0.793484    18A     -0.719723
      19A     -0.661640    20A     -0.657833    21A     -0.603667
      22A     -0.585414    23A     -0.580692    24A     -0.574981
      25A     -0.548267    26A     -0.523394    27A     -0.478935
      28A     -0.448843    29A     -0.386000    30A     -0.314599
      31A     -0.282588

  @DF-RHF Final Energy:  -361.56044177597346

   => Energetics <=

    Nuclear Repulsion Energy =            402.1123411857109886
    One-Electron Energy =               -1285.7734392235838641
    Two-Electron Energy =                 522.1006562618994167
    Total Energy =                       -361.5604417759734588
  Basis Set: (AUG-CC-PVTZ AUX)
    Blend: AUG-CC-PVTZ-RI
    Molecular point group: c1

    Geometry (in Angstrom), charge = 0, multiplicity = 1:

       Center              X                  Y                   Z               Mass
    ------------   -----------------  -----------------  -----------------  -----------------
         N           -1.563102816314    -1.065020490113     0.000001360947    14.003074004430
         C            1.045683183686     1.312842109887     0.000004260947    12.000000000000
         C            2.155454183686     0.705844509887     0.000001360947    12.000000000000
         C            2.132724183686    -0.706706490113    -0.000005639053    12.000000000000
         C            0.934430183686    -1.408459490113    -0.000000639053    12.000000000000
         C           -0.248139816314    -0.657068490113    -0.000000639053    12.000000000000
         C           -0.252207816314     0.766454509887     0.000014360947    12.000000000000
         C           -1.620668816314     1.181745509887    -0.000008639053    12.000000000000
         C           -2.388537816314     0.040180509887    -0.000005639053    12.000000000000
         H            1.012193183686     2.533649509887     0.000004360947     1.007825032230
         H            3.114050183686     1.219608509887    -0.000005639053     1.007825032230
         H            3.071877183686    -1.255184490113    -0.000005639053     1.007825032230
         H            0.918364183686    -2.496922490113    -0.000004639053     1.007825032230
         H           -1.997469816314     2.196694509887    -0.000013639053     1.007825032230
         H           -1.876890816314    -2.026322490113     0.000017360947     1.007825032230
         H           -3.464811816314    -0.076696490113     0.000003360947     1.007825032230

  Basis Set: AUG-CC-PVTZ
    Blend: AUG-CC-PVTZ
  Basis Set: (AUG-CC-PVTZ AUX)
    Blend: AUG-CC-PVTZ-JKFIT
	 Reference Energy          =    -361.5604417759734588 [Eh]
	 Singles Energy            =      -0.0000000000000000 [Eh]
	 Same-Spin Energy          =      -0.4082016935765725 [Eh]
	 Opposite-Spin Energy      =      -1.2483005455648826 [Eh]
	 Correlation Energy        =      -1.6565022391414552 [Eh]
	 Total Energy              =    -363.2169440151149047 [Eh]

	 ================> DF-SCS-MP2 Energies <==================
	-----------------------------------------------------------
	 SCS Same-Spin Scale       =       0.3333333333333333 [-]
	 SCS Opposite-Spin Scale   =       1.2000000000000000 [-]
	 SCS Same-Spin Energy      =      -0.1360672311921908 [Eh]
	 SCS Opposite-Spin Energy  =      -1.4979606546778590 [Eh]
	 SCS Correlation Energy    =      -1.6340278858700499 [Eh]
	 SCS Total Energy          =    -363.1944696618435273 [Eh]
	-----------------------------------------------------------

  Dipole Moment: [D]
     X:    -1.4895      Y:    -1.6809      Z:     0.0000     Total:     2.2459

*** Psi4 exiting successfully. Buy a developer a beer!
