                               Psi4 1.3.2 release

  ==> Input File <==

--------------------------------------------------------------------------
#psi4
#
memory 32 gb

molecule  {
0 1
  N       -1.5631460    -1.0786450     0.0000020
  C        0.9105316     1.3051232    -0.0000010
  C        2.1554110     0.6922200     0.0000020
  C        2.1326810    -0.7203310    -0.0000050
  C        0.9343870    -1.4220840     0.0000000
  C       -0.2481830    -0.6706930     0.0000000
  C       -0.2522510     0.7528300     0.0000150
  C       -1.6207120     1.1681210    -0.0000080
  C       -2.3885810     0.0265560    -0.0000050
  H        1.0121500     2.5200250     0.0000050
  H        3.1140070     1.2059840    -0.0000050
  H        3.0718340    -1.2688090    -0.0000050
  H        0.9183210    -2.5105470    -0.0000040
  H       -1.9975130     2.1830700    -0.0000130
  H       -1.8769340    -2.0399470     0.0000180
  H       -3.4648550    -0.0903210     0.0000040
units angstrom
no_reorient  #important for SAPT in psi4, default
symmetry c1  #important for SAPT in psi4, default
}

set PROPERTIES_ORIGIN ["COM"]
properties('MP2/aug-cc-pvtz', properties = ['dipole'])
--------------------------------------------------------------------------

    Molecular point group: c1
  Charge       = 0
  Multiplicity = 1
  Basis Set: AUG-CC-PVTZ
    Blend: AUG-CC-PVTZ
  Basis Set: (AUG-CC-PVTZ AUX)
    Blend: AUG-CC-PVTZ-JKFIT

    Orbital Energies [Eh]
    ---------------------

    Doubly Occupied:

       1A    -15.605849     2A    -11.277168     3A    -11.270877
       4A    -11.230682     5A    -11.229580     6A    -11.228509
       7A    -11.221847     8A    -11.220460     9A    -11.216392
      10A     -1.299277    11A     -1.143223    12A     -1.062268
      13A     -0.993666    14A     -0.982867    15A     -0.847909
      16A     -0.810410    17A     -0.793271    18A     -0.718374
      19A     -0.662076    20A     -0.654815    21A     -0.604043
      22A     -0.588758    23A     -0.581989    24A     -0.570234
      25A     -0.554784    26A     -0.525534    27A     -0.473371
      28A     -0.450028    29A     -0.394917    30A     -0.299049
      31A     -0.289195

  @DF-RHF Final Energy:  -361.56210769702921

   => Energetics <=

    Nuclear Repulsion Energy =            402.7174218498619211
    One-Electron Energy =               -1286.9562146838190984
    Two-Electron Energy =                 522.6766851369279721
    Total Energy =                       -361.5621076970292052
  Basis Set: (AUG-CC-PVTZ AUX)
    Blend: AUG-CC-PVTZ-RI
    Molecular point group: c1

    Geometry (in Angstrom), charge = 0, multiplicity = 1:

       Center              X                  Y                   Z               Mass
    ------------   -----------------  -----------------  -----------------  -----------------
         N           -1.549252392693    -1.065625893343     0.000001965776    14.003074004430
         C            0.924425207307     1.318142306657    -0.000001034224    12.000000000000
         C            2.169304607307     0.705239106657     0.000001965776    12.000000000000
         C            2.146574607307    -0.707311893343    -0.000005034224    12.000000000000
         C            0.948280607307    -1.409064893343    -0.000000034224    12.000000000000
         C           -0.234289392693    -0.657673893343    -0.000000034224    12.000000000000
         C           -0.238357392693     0.765849106657     0.000014965776    12.000000000000
         C           -1.606818392693     1.181140106657    -0.000008034224    12.000000000000
         C           -2.374687392693     0.039575106657    -0.000005034224    12.000000000000
         H            1.026043607307     2.533044106657     0.000004965776     1.007825032230
         H            3.127900607307     1.219003106657    -0.000005034224     1.007825032230
         H            3.085727607307    -1.255789893343    -0.000005034224     1.007825032230
         H            0.932214607307    -2.497527893343    -0.000004034224     1.007825032230
         H           -1.983619392693     2.196089106657    -0.000013034224     1.007825032230
         H           -1.863040392693    -2.026927893343     0.000017965776     1.007825032230
         H           -3.450961392693    -0.077301893343     0.000003965776     1.007825032230

  Basis Set: AUG-CC-PVTZ
    Blend: AUG-CC-PVTZ
  Basis Set: (AUG-CC-PVTZ AUX)
    Blend: AUG-CC-PVTZ-JKFIT
	 Reference Energy          =    -361.5621076970292052 [Eh]
	 Singles Energy            =      -0.0000000000000000 [Eh]
	 Same-Spin Energy          =      -0.4084852078024970 [Eh]
	 Opposite-Spin Energy      =      -1.2484798886751012 [Eh]
	 Correlation Energy        =      -1.6569650964775982 [Eh]
	 Total Energy              =    -363.2190727935068253 [Eh]

	 ================> DF-SCS-MP2 Energies <==================
	-----------------------------------------------------------
	 SCS Same-Spin Scale       =       0.3333333333333333 [-]
	 SCS Opposite-Spin Scale   =       1.2000000000000000 [-]
	 SCS Same-Spin Energy      =      -0.1361617359341657 [Eh]
	 SCS Opposite-Spin Energy  =      -1.4981758664101215 [Eh]
	 SCS Correlation Energy    =      -1.6343376023442870 [Eh]
	 SCS Total Energy          =    -363.1964452993734653 [Eh]
	-----------------------------------------------------------

  Dipole Moment: [D]
     X:    -1.5582      Y:    -1.6789      Z:     0.0000     Total:     2.2906

*** Psi4 exiting successfully. Buy a developer a beer!
