                               Psi4 1.3.2 release

  ==> Input File <==

--------------------------------------------------------------------------
#psi4
#
memory 32 gb

molecule  {
0 1
  N       -1.5631460    -1.0786450     0.0000020
  C        0.9814170     1.4318910     0.0000000
  C        2.1554110     0.6922200     0.0000020
  C        2.0527635    -0.5989194    -0.0000052
  C        0.9343870    -1.4220840     0.0000000
  C       -0.2481830    -0.6706930     0.0000000
  C       -0.2522510     0.7528300     0.0000150
  C       -1.6207120     1.1681210    -0.0000080
  C       -2.3885810     0.0265560    -0.0000050
  H        1.0121500     2.5200250     0.0000050
  H        3.1140070     1.2059840    -0.0000050
  H        3.0718340    -1.2688090    -0.0000050
  H        0.9183210    -2.5105470    -0.0000040
  H       -1.9975130     2.1830700    -0.0000130
  H       -1.8769340    -2.0399470     0.0000180
  H       -3.4648550    -0.0903210     0.0000040
units angstrom
no_reorient  #important for SAPT in psi4, default
symmetry c1  #important for SAPT in psi4, default
}

set PROPERTIES_ORIGIN ["COM"]
properties('MP2/aug-cc-pvtz', properties = ['dipole'])
--------------------------------------------------------------------------

    Molecular point group: c1
  Charge       = 0
  Multiplicity = 1
  Basis Set: AUG-CC-PVTZ
    Blend: AUG-CC-PVTZ
  Basis Set: (AUG-CC-PVTZ AUX)
    Blend: AUG-CC-PVTZ-JKFIT

    Orbital Energies [Eh]
    ---------------------

    Doubly Occupied:

       1A    -15.603032     2A    -11.273813     3A    -11.268424
       4A    -11.233097     5A    -11.231689     6A    -11.228754
       7A    -11.227374     8A    -11.218965     9A    -11.209645
      10A     -1.296423    11A     -1.144651    12A     -1.056426
      13A     -1.008604    14A     -0.971289    15A     -0.852350
      16A     -0.799176    17A     -0.787403    18A     -0.726886
      19A     -0.659327    20A     -0.645452    21A     -0.611745
      22A     -0.598241    23A     -0.584945    24A     -0.578748
      25A     -0.540730    26A     -0.502865    27A     -0.478497
      28A     -0.462928    29A     -0.386432    30A     -0.310629
      31A     -0.280227

  @DF-RHF Final Energy:  -361.56235455405988

   => Energetics <=

    Nuclear Repulsion Energy =            402.4293954899084724
    One-Electron Energy =               -1286.4259671152215105
    Two-Electron Energy =                 522.4342170712531015
    Total Energy =                       -361.5623545540598798
  Basis Set: (AUG-CC-PVTZ AUX)
    Blend: AUG-CC-PVTZ-RI
    Molecular point group: c1

    Geometry (in Angstrom), charge = 0, multiplicity = 1:

       Center              X                  Y                   Z               Mass
    ------------   -----------------  -----------------  -----------------  -----------------
         N           -1.548326481268    -1.091067611430     0.000001883766    14.003074004430
         C            0.996236518732     1.419468388570    -0.000000116234    12.000000000000
         C            2.170230518732     0.679797388570     0.000001883766    12.000000000000
         C            2.067583018732    -0.611342011430    -0.000005316234    12.000000000000
         C            0.949206518732    -1.434506611430    -0.000000116234    12.000000000000
         C           -0.233363481268    -0.683115611430    -0.000000116234    12.000000000000
         C           -0.237431481268     0.740407388570     0.000014883766    12.000000000000
         C           -1.605892481268     1.155698388570    -0.000008116234    12.000000000000
         C           -2.373761481268     0.014133388570    -0.000005116234    12.000000000000
         H            1.026969518732     2.507602388570     0.000004883766     1.007825032230
         H            3.128826518732     1.193561388570    -0.000005116234     1.007825032230
         H            3.086653518732    -1.281231611430    -0.000005116234     1.007825032230
         H            0.933140518732    -2.522969611430    -0.000004116234     1.007825032230
         H           -1.982693481268     2.170647388570    -0.000013116234     1.007825032230
         H           -1.862114481268    -2.052369611430     0.000017883766     1.007825032230
         H           -3.450035481268    -0.102743611430     0.000003883766     1.007825032230

  Basis Set: AUG-CC-PVTZ
    Blend: AUG-CC-PVTZ
  Basis Set: (AUG-CC-PVTZ AUX)
    Blend: AUG-CC-PVTZ-JKFIT
	 Reference Energy          =    -361.5623545540598798 [Eh]
	 Singles Energy            =      -0.0000000000000000 [Eh]
	 Same-Spin Energy          =      -0.4086377378438154 [Eh]
	 Opposite-Spin Energy      =      -1.2488612841343394 [Eh]
	 Correlation Energy        =      -1.6574990219781549 [Eh]
	 Total Energy              =    -363.2198535760380196 [Eh]

	 ================> DF-SCS-MP2 Energies <==================
	-----------------------------------------------------------
	 SCS Same-Spin Scale       =       0.3333333333333333 [-]
	 SCS Opposite-Spin Scale   =       1.2000000000000000 [-]
	 SCS Same-Spin Energy      =      -0.1362125792812718 [Eh]
	 SCS Opposite-Spin Energy  =      -1.4986335409612073 [Eh]
	 SCS Correlation Energy    =      -1.6348461202424791 [Eh]
	 SCS Total Energy          =    -363.1972006743023371 [Eh]
	-----------------------------------------------------------

  Dipole Moment: [D]
     X:    -1.5518      Y:    -1.4832      Z:     0.0000     Total:     2.1466

*** Psi4 exiting successfully. Buy a developer a beer!
