                               Psi4 1.3.2 release

  ==> Input File <==

--------------------------------------------------------------------------
#psi4
#
memory 32 gb

molecule  {
0 1
  N       -1.5631460    -1.0786450     0.0000020
  C        0.9814170     1.4318910     0.0000000
  C        2.1554110     0.6922200     0.0000020
  C        2.1326810    -0.7203310    -0.0000050
  C        0.9343870    -1.4220840     0.0000000
  C       -0.2412635    -0.6937044     0.0000001
  C       -0.2522510     0.7528300     0.0000150
  C       -1.6207120     1.1681210    -0.0000080
  C       -2.3885810     0.0265560    -0.0000050
  H        1.0121500     2.5200250     0.0000050
  H        3.1140070     1.2059840    -0.0000050
  H        3.0718340    -1.2688090    -0.0000050
  H        0.9183210    -2.5105470    -0.0000040
  H       -1.9975130     2.1830700    -0.0000130
  H       -1.8769340    -2.0399470     0.0000180
  H       -3.4648550    -0.0903210     0.0000040
units angstrom
no_reorient  #important for SAPT in psi4, default
symmetry c1  #important for SAPT in psi4, default
}

set PROPERTIES_ORIGIN ["COM"]
properties('MP2/aug-cc-pvtz', properties = ['dipole'])
--------------------------------------------------------------------------

    Molecular point group: c1
  Charge       = 0
  Multiplicity = 1
  Basis Set: AUG-CC-PVTZ
    Blend: AUG-CC-PVTZ
  Basis Set: (AUG-CC-PVTZ AUX)
    Blend: AUG-CC-PVTZ-JKFIT

    Orbital Energies [Eh]
    ---------------------

    Doubly Occupied:

       1A    -15.606404     2A    -11.274454     3A    -11.267799
       4A    -11.231698     5A    -11.231185     6A    -11.230017
       7A    -11.229633     8A    -11.222221     9A    -11.219510
      10A     -1.295514    11A     -1.128164    12A     -1.056604
      13A     -0.997207    14A     -0.974083    15A     -0.841940
      16A     -0.807343    17A     -0.788465    18A     -0.726180
      19A     -0.662622    20A     -0.647508    21A     -0.601980
      22A     -0.595312    23A     -0.583619    24A     -0.574909
      25A     -0.549751    26A     -0.508653    27A     -0.479395
      28A     -0.464935    29A     -0.388159    30A     -0.301262
      31A     -0.281644

  @DF-RHF Final Energy:  -361.58798056865373

   => Energetics <=

    Nuclear Repulsion Energy =            399.8026614827707590
    One-Electron Energy =               -1281.2449400539019280
    Two-Electron Energy =                 519.8542980024774351
    Total Energy =                       -361.5879805686537338
  Basis Set: (AUG-CC-PVTZ AUX)
    Blend: AUG-CC-PVTZ-RI
    Molecular point group: c1

    Geometry (in Angstrom), charge = 0, multiplicity = 1:

       Center              X                  Y                   Z               Mass
    ------------   -----------------  -----------------  -----------------  -----------------
         N           -1.557228438777    -1.076262316344     0.000001853012    14.003074004430
         C            0.987334561223     1.434273683656    -0.000000146988    12.000000000000
         C            2.161328561223     0.694602683656     0.000001853012    12.000000000000
         C            2.138598561223    -0.717948316344    -0.000005146988    12.000000000000
         C            0.940304561223    -1.419701316344    -0.000000146988    12.000000000000
         C           -0.235345938777    -0.691321716344    -0.000000046988    12.000000000000
         C           -0.246333438777     0.755212683656     0.000014853012    12.000000000000
         C           -1.614794438777     1.170503683656    -0.000008146988    12.000000000000
         C           -2.382663438777     0.028938683656    -0.000005146988    12.000000000000
         H            1.018067561223     2.522407683656     0.000004853012     1.007825032230
         H            3.119924561223     1.208366683656    -0.000005146988     1.007825032230
         H            3.077751561223    -1.266426316344    -0.000005146988     1.007825032230
         H            0.924238561223    -2.508164316344    -0.000004146988     1.007825032230
         H           -1.991595438777     2.185452683656    -0.000013146988     1.007825032230
         H           -1.871016438777    -2.037564316344     0.000017853012     1.007825032230
         H           -3.458937438777    -0.087938316344     0.000003853012     1.007825032230

  Basis Set: AUG-CC-PVTZ
    Blend: AUG-CC-PVTZ
  Basis Set: (AUG-CC-PVTZ AUX)
    Blend: AUG-CC-PVTZ-JKFIT
	 Reference Energy          =    -361.5879805686537338 [Eh]
	 Singles Energy            =      -0.0000000000000000 [Eh]
	 Same-Spin Energy          =      -0.4082706322110160 [Eh]
	 Opposite-Spin Energy      =      -1.2481247779914053 [Eh]
	 Correlation Energy        =      -1.6563954102024212 [Eh]
	 Total Energy              =    -363.2443759788561692 [Eh]

	 ================> DF-SCS-MP2 Energies <==================
	-----------------------------------------------------------
	 SCS Same-Spin Scale       =       0.3333333333333333 [-]
	 SCS Opposite-Spin Scale   =       1.2000000000000000 [-]
	 SCS Same-Spin Energy      =      -0.1360902107370053 [Eh]
	 SCS Opposite-Spin Energy  =      -1.4977497335896863 [Eh]
	 SCS Correlation Energy    =      -1.6338399443266916 [Eh]
	 SCS Total Energy          =    -363.2218205129804005 [Eh]
	-----------------------------------------------------------

  Dipole Moment: [D]
     X:    -1.5223      Y:    -1.5329      Z:     0.0000     Total:     2.1603

*** Psi4 exiting successfully. Buy a developer a beer!
