                               Psi4 1.3.2 release

  ==> Input File <==

--------------------------------------------------------------------------
#psi4
#
memory 32 gb

molecule  {
0 1
  N       -1.6831928    -1.1588720     0.0000020
  C        0.9814170     1.4318910     0.0000000
  C        2.1554110     0.6922200     0.0000020
  C        2.1326810    -0.7203310    -0.0000050
  C        0.9343870    -1.4220840     0.0000000
  C       -0.2481830    -0.6706930     0.0000000
  C       -0.2522510     0.7528300     0.0000150
  C       -1.6207120     1.1681210    -0.0000080
  C       -2.3885810     0.0265560    -0.0000050
  H        1.0121500     2.5200250     0.0000050
  H        3.1140070     1.2059840    -0.0000050
  H        3.0718340    -1.2688090    -0.0000050
  H        0.9183210    -2.5105470    -0.0000040
  H       -1.9975130     2.1830700    -0.0000130
  H       -1.8769340    -2.0399470     0.0000180
  H       -3.4648550    -0.0903210     0.0000040
units angstrom
no_reorient  #important for SAPT in psi4, default
symmetry c1  #important for SAPT in psi4, default
}

set PROPERTIES_ORIGIN ["COM"]
properties('MP2/aug-cc-pvtz', properties = ['dipole'])
--------------------------------------------------------------------------

    Molecular point group: c1
  Charge       = 0
  Multiplicity = 1
  Basis Set: AUG-CC-PVTZ
    Blend: AUG-CC-PVTZ
  Basis Set: (AUG-CC-PVTZ AUX)
    Blend: AUG-CC-PVTZ-JKFIT

    Orbital Energies [Eh]
    ---------------------

    Doubly Occupied:

       1A    -15.595571     2A    -11.281550     3A    -11.276358
       4A    -11.238700     5A    -11.236756     6A    -11.232953
       7A    -11.230852     8A    -11.228643     9A    -11.219567
      10A     -1.272338    11A     -1.135522    12A     -1.061496
      13A     -1.003286    14A     -0.970756    15A     -0.833351
      16A     -0.830150    17A     -0.788856    18A     -0.729150
      19A     -0.649359    20A     -0.643898    21A     -0.624662
      22A     -0.594303    23A     -0.575666    24A     -0.567360
      25A     -0.535288    26A     -0.509109    27A     -0.485024
      28A     -0.469546    29A     -0.384036    30A     -0.314745
      31A     -0.280022

  @DF-RHF Final Energy:  -361.56104696086408

   => Energetics <=

    Nuclear Repulsion Energy =            397.0176097939485089
    One-Electron Energy =               -1275.5595676045427354
    Two-Electron Energy =                 516.9809108497300940
    Total Energy =                       -361.5610469608641324
  Basis Set: (AUG-CC-PVTZ AUX)
    Blend: AUG-CC-PVTZ-RI
    Molecular point group: c1

    Geometry (in Angstrom), charge = 0, multiplicity = 1:

       Center              X                  Y                   Z               Mass
    ------------   -----------------  -----------------  -----------------  -----------------
         N           -1.662205269219    -1.149251118959     0.000001863263    14.003074004430
         C            1.002404530781     1.441511881041    -0.000000136737    12.000000000000
         C            2.176398530781     0.701840881041     0.000001863263    12.000000000000
         C            2.153668530781    -0.710710118959    -0.000005136737    12.000000000000
         C            0.955374530781    -1.412463118959    -0.000000136737    12.000000000000
         C           -0.227195469219    -0.661072118959    -0.000000136737    12.000000000000
         C           -0.231263469219     0.762450881041     0.000014863263    12.000000000000
         C           -1.599724469219     1.177741881041    -0.000008136737    12.000000000000
         C           -2.367593469219     0.036176881041    -0.000005136737    12.000000000000
         H            1.033137530781     2.529645881041     0.000004863263     1.007825032230
         H            3.134994530781     1.215604881041    -0.000005136737     1.007825032230
         H            3.092821530781    -1.259188118959    -0.000005136737     1.007825032230
         H            0.939308530781    -2.500926118959    -0.000004136737     1.007825032230
         H           -1.976525469219     2.192690881041    -0.000013136737     1.007825032230
         H           -1.855946469219    -2.030326118959     0.000017863263     1.007825032230
         H           -3.443867469219    -0.080700118959     0.000003863263     1.007825032230

  Basis Set: AUG-CC-PVTZ
    Blend: AUG-CC-PVTZ
  Basis Set: (AUG-CC-PVTZ AUX)
    Blend: AUG-CC-PVTZ-JKFIT
	 Reference Energy          =    -361.5610469608640756 [Eh]
	 Singles Energy            =      -0.0000000000000000 [Eh]
	 Same-Spin Energy          =      -0.4067899589604611 [Eh]
	 Opposite-Spin Energy      =      -1.2482234687060410 [Eh]
	 Correlation Energy        =      -1.6550134276665021 [Eh]
	 Total Energy              =    -363.2160603885305932 [Eh]

	 ================> DF-SCS-MP2 Energies <==================
	-----------------------------------------------------------
	 SCS Same-Spin Scale       =       0.3333333333333333 [-]
	 SCS Opposite-Spin Scale   =       1.2000000000000000 [-]
	 SCS Same-Spin Energy      =      -0.1355966529868203 [Eh]
	 SCS Opposite-Spin Energy  =      -1.4978681624472492 [Eh]
	 SCS Correlation Energy    =      -1.6334648154340696 [Eh]
	 SCS Total Energy          =    -363.1945117762981567 [Eh]
	-----------------------------------------------------------

  Dipole Moment: [D]
     X:    -1.0490      Y:    -1.2931      Z:     0.0000     Total:     1.6651

*** Psi4 exiting successfully. Buy a developer a beer!
