                               Psi4 1.3.2 release

  ==> Input File <==

--------------------------------------------------------------------------
#psi4
#
memory 32 gb

molecule  {
0 1
  N       -1.5631460    -1.0786450     0.0000020
  C        0.9814170     1.4318910     0.0000000
  C        2.1554110     0.6922200     0.0000020
  C        2.1326810    -0.7203310    -0.0000050
  C        0.9343870    -1.4220840     0.0000000
  C       -0.2481830    -0.6706930     0.0000000
  C       -0.2522510     0.7528300     0.0000150
  C       -1.6207120     1.1681210    -0.0000080
  C       -2.3885810     0.0265560    -0.0000050
  H        1.0121500     2.5200250     0.0000050
  H        3.1140070     1.2059840    -0.0000050
  H        3.0718340    -1.2688090    -0.0000050
  H        0.9212727    -2.3105688    -0.0000033
  H       -1.9975130     2.1830700    -0.0000130
  H       -1.8769340    -2.0399470     0.0000180
  H       -3.4648550    -0.0903210     0.0000040
units angstrom
no_reorient  #important for SAPT in psi4, default
symmetry c1  #important for SAPT in psi4, default
}

set PROPERTIES_ORIGIN ["COM"]
properties('MP2/aug-cc-pvtz', properties = ['dipole'])
--------------------------------------------------------------------------

    Molecular point group: c1
  Charge       = 0
  Multiplicity = 1
  Basis Set: AUG-CC-PVTZ
    Blend: AUG-CC-PVTZ
  Basis Set: (AUG-CC-PVTZ AUX)
    Blend: AUG-CC-PVTZ-JKFIT

    Orbital Energies [Eh]
    ---------------------

    Doubly Occupied:

       1A    -15.605539     2A    -11.272686     3A    -11.265698
       4A    -11.231321     5A    -11.229376     6A    -11.226096
       7A    -11.221282     8A    -11.218384     9A    -11.209200
      10A     -1.296040    11A     -1.129399    12A     -1.059595
      13A     -1.000679    14A     -0.975453    15A     -0.853991
      16A     -0.805564    17A     -0.791843    18A     -0.739761
      19A     -0.673890    20A     -0.651522    21A     -0.609739
      22A     -0.600611    23A     -0.583562    24A     -0.573864
      25A     -0.549119    26A     -0.507039    27A     -0.488385
      28A     -0.464127    29A     -0.385557    30A     -0.300804
      31A     -0.282471

  @DF-RHF Final Energy:  -361.55508501317763

   => Energetics <=

    Nuclear Repulsion Energy =            401.1626085565857238
    One-Electron Energy =               -1283.8301971548828533
    Two-Electron Energy =                 521.1125035851194980
    Total Energy =                       -361.5550850131776315
  Basis Set: (AUG-CC-PVTZ AUX)
    Blend: AUG-CC-PVTZ-RI
    Molecular point group: c1

    Geometry (in Angstrom), charge = 0, multiplicity = 1:

       Center              X                  Y                   Z               Mass
    ------------   -----------------  -----------------  -----------------  -----------------
         N           -1.556544510246    -1.080343032323     0.000001857236    14.003074004430
         C            0.988018489754     1.430192967677    -0.000000142764    12.000000000000
         C            2.162012489754     0.690521967677     0.000001857236    12.000000000000
         C            2.139282489754    -0.722029032323    -0.000005142764    12.000000000000
         C            0.940988489754    -1.423782032323    -0.000000142764    12.000000000000
         C           -0.241581510246    -0.672391032323    -0.000000142764    12.000000000000
         C           -0.245649510246     0.751131967677     0.000014857236    12.000000000000
         C           -1.614110510246     1.166422967677    -0.000008142764    12.000000000000
         C           -2.381979510246     0.024857967677    -0.000005142764    12.000000000000
         H            1.018751489754     2.518326967677     0.000004857236     1.007825032230
         H            3.120608489754     1.204285967677    -0.000005142764     1.007825032230
         H            3.078435489754    -1.270507032323    -0.000005142764     1.007825032230
         H            0.927874189754    -2.312266832323    -0.000003442764     1.007825032230
         H           -1.990911510246     2.181371967677    -0.000013142764     1.007825032230
         H           -1.870332510246    -2.041645032323     0.000017857236     1.007825032230
         H           -3.458253510246    -0.092019032323     0.000003857236     1.007825032230

  Basis Set: AUG-CC-PVTZ
    Blend: AUG-CC-PVTZ
  Basis Set: (AUG-CC-PVTZ AUX)
    Blend: AUG-CC-PVTZ-JKFIT
	 Reference Energy          =    -361.5550850131776315 [Eh]
	 Singles Energy            =      -0.0000000000000000 [Eh]
	 Same-Spin Energy          =      -0.4077520639972377 [Eh]
	 Opposite-Spin Energy      =      -1.2473294050903851 [Eh]
	 Correlation Energy        =      -1.6550814690876230 [Eh]
	 Total Energy              =    -363.2101664822652651 [Eh]

	 ================> DF-SCS-MP2 Energies <==================
	-----------------------------------------------------------
	 SCS Same-Spin Scale       =       0.3333333333333333 [-]
	 SCS Opposite-Spin Scale   =       1.2000000000000000 [-]
	 SCS Same-Spin Energy      =      -0.1359173546657459 [Eh]
	 SCS Opposite-Spin Energy  =      -1.4967952861084621 [Eh]
	 SCS Correlation Energy    =      -1.6327126407742081 [Eh]
	 SCS Total Energy          =    -363.1877976539518613 [Eh]
	-----------------------------------------------------------

  Dipole Moment: [D]
     X:    -1.4829      Y:    -1.5932      Z:     0.0000     Total:     2.1765

*** Psi4 exiting successfully. Buy a developer a beer!
