                               Psi4 1.3.2 release

  ==> Input File <==

--------------------------------------------------------------------------
#psi4
#
memory 32 gb

molecule  {
0 1
  N       -1.5825601    -1.0928825     0.0000020
  C        0.9814170     1.4318910     0.0000000
  C        2.1554110     0.6922200     0.0000020
  C        2.1326810    -0.7203310    -0.0000050
  C        0.9343870    -1.4220840     0.0000000
  C       -0.2481830    -0.6706930     0.0000000
  C       -0.2522510     0.7528300     0.0000150
  C       -1.6207120     1.1681210    -0.0000080
  C       -2.3885810     0.0265560    -0.0000050
  H        1.0121500     2.5200250     0.0000050
  H        3.1140070     1.2059840    -0.0000050
  H        3.0718340    -1.2688090    -0.0000050
  H        0.9183210    -2.5105470    -0.0000040
  H       -1.9975130     2.1830700    -0.0000130
  H       -1.8769340    -2.0399470     0.0000180
  H       -3.4648550    -0.0903210     0.0000040
units angstrom
no_reorient  #important for SAPT in psi4, default
symmetry c1  #important for SAPT in psi4, default
}

set PROPERTIES_ORIGIN ["COM"]
properties('MP2/aug-cc-pvtz', properties = ['dipole'])
--------------------------------------------------------------------------

    Molecular point group: c1
  Charge       = 0
  Multiplicity = 1
  Basis Set: AUG-CC-PVTZ
    Blend: AUG-CC-PVTZ
  Basis Set: (AUG-CC-PVTZ AUX)
    Blend: AUG-CC-PVTZ-JKFIT

    Orbital Energies [Eh]
    ---------------------

    Doubly Occupied:

       1A    -15.603959     2A    -11.274425     3A    -11.268778
       4A    -11.234428     5A    -11.231880     6A    -11.230399
       7A    -11.228831     8A    -11.223520     9A    -11.218808
      10A     -1.291268    11A     -1.129545    12A     -1.056469
      13A     -0.997630    14A     -0.973342    15A     -0.840559
      16A     -0.809684    17A     -0.788374    18A     -0.728043
      19A     -0.658484    20A     -0.647695    21A     -0.605774
      22A     -0.595393    23A     -0.580714    24A     -0.574598
      25A     -0.548266    26A     -0.508215    27A     -0.483203
      28A     -0.465656    29A     -0.385572    30A     -0.303830
      31A     -0.282370

  @DF-RHF Final Energy:  -361.58879502399230

   => Energetics <=

    Nuclear Repulsion Energy =            399.4759384762784293
    One-Electron Energy =               -1280.5900418155638363
    Two-Electron Energy =                 519.5253083152931595
    Total Energy =                       -361.5887950239922475
  Basis Set: (AUG-CC-PVTZ AUX)
    Blend: AUG-CC-PVTZ-RI
    Molecular point group: c1

    Geometry (in Angstrom), charge = 0, multiplicity = 1:

       Center              X                  Y                   Z               Mass
    ------------   -----------------  -----------------  -----------------  -----------------
         N           -1.573610780707    -1.091155629127     0.000001863263    14.003074004430
         C            0.990366319293     1.433617870873    -0.000000136737    12.000000000000
         C            2.164360319293     0.693946870873     0.000001863263    12.000000000000
         C            2.141630319293    -0.718604129127    -0.000005136737    12.000000000000
         C            0.943336319293    -1.420357129127    -0.000000136737    12.000000000000
         C           -0.239233680707    -0.668966129127    -0.000000136737    12.000000000000
         C           -0.243301680707     0.754556870873     0.000014863263    12.000000000000
         C           -1.611762680707     1.169847870873    -0.000008136737    12.000000000000
         C           -2.379631680707     0.028282870873    -0.000005136737    12.000000000000
         H            1.021099319293     2.521751870873     0.000004863263     1.007825032230
         H            3.122956319293     1.207710870873    -0.000005136737     1.007825032230
         H            3.080783319293    -1.267082129127    -0.000005136737     1.007825032230
         H            0.927270319293    -2.508820129127    -0.000004136737     1.007825032230
         H           -1.988563680707     2.184796870873    -0.000013136737     1.007825032230
         H           -1.867984680707    -2.038220129127     0.000017863263     1.007825032230
         H           -3.455905680707    -0.088594129127     0.000003863263     1.007825032230

  Basis Set: AUG-CC-PVTZ
    Blend: AUG-CC-PVTZ
  Basis Set: (AUG-CC-PVTZ AUX)
    Blend: AUG-CC-PVTZ-JKFIT
	 Reference Energy          =    -361.5887950239923043 [Eh]
	 Singles Energy            =      -0.0000000000000000 [Eh]
	 Same-Spin Energy          =      -0.4076838842043905 [Eh]
	 Opposite-Spin Energy      =      -1.2476981913659104 [Eh]
	 Correlation Energy        =      -1.6553820755703010 [Eh]
	 Total Energy              =    -363.2441770995625916 [Eh]

	 ================> DF-SCS-MP2 Energies <==================
	-----------------------------------------------------------
	 SCS Same-Spin Scale       =       0.3333333333333333 [-]
	 SCS Opposite-Spin Scale   =       1.2000000000000000 [-]
	 SCS Same-Spin Energy      =      -0.1358946280681302 [Eh]
	 SCS Opposite-Spin Energy  =      -1.4972378296390925 [Eh]
	 SCS Correlation Energy    =      -1.6331324577072226 [Eh]
	 SCS Total Energy          =    -363.2219274816995380 [Eh]
	-----------------------------------------------------------

  Dipole Moment: [D]
     X:    -1.4142      Y:    -1.5074      Z:     0.0000     Total:     2.0669

*** Psi4 exiting successfully. Buy a developer a beer!
