                               Psi4 1.4a3.dev225

  ==> Input File <==

--------------------------------------------------------------------------
#psi4
#
memory 32 gb

molecule  {
0 1
  N       -1.5630850    -1.0784890    -0.0000040
  C        0.9811620     1.4317850    -0.0000050
  C        2.1553110     0.6923450     0.0000000
  C        2.1328040    -0.7200770     0.0000000
  C        0.9346070    -1.4219960     0.0000040
  C       -0.2479390    -0.6706250     0.0000000
  C       -0.2522910     0.7524290     0.0000030
  C       -1.6208000     1.1677860     0.0000050
  C       -2.3888340     0.0267020    -0.0000020
  H        1.0113780     2.5197500    -0.0000020
  H        3.1138040     1.2059540    -0.0000050
  H        3.0720020    -1.2682500     0.0000030
  H        0.9188940    -2.5102320     0.0000020
  H       -1.9966350     2.1828910     0.0000100
  H       -1.8770410    -2.0396260     0.0000000
  H       -3.4847981    -0.0933406    -0.0000051
units angstrom
no_reorient  #important for SAPT in psi4, default
symmetry c1  #important for SAPT in psi4, default
}

set PROPERTIES_ORIGIN ["COM"]
properties('MP2/aug-cc-pvtz', properties = ['dipole'])
--------------------------------------------------------------------------

    Molecular point group: c1
  Charge       = 0
  Multiplicity = 1
  Basis Set: AUG-CC-PVTZ
    Blend: AUG-CC-PVTZ
  Basis Set: (AUG-CC-PVTZ AUX)
    Blend: AUG-CC-PVTZ-JKFIT

    Orbital Energies [Eh]
    ---------------------

    Doubly Occupied:

       1A    -15.605782     2A    -11.275389     3A    -11.267164
       4A    -11.233595     5A    -11.231711     6A    -11.230408
       7A    -11.227298     8A    -11.222408     9A    -11.218886
      10A     -1.296276    11A     -1.128521    12A     -1.056035
      13A     -0.996427    14A     -0.973826    15A     -0.841456
      16A     -0.805591    17A     -0.788304    18A     -0.726579
      19A     -0.660863    20A     -0.646249    21A     -0.601715
      22A     -0.595332    23A     -0.584128    24A     -0.574038
      25A     -0.548854    26A     -0.507763    27A     -0.482708
      28A     -0.464979    29A     -0.386113    30A     -0.301594
      31A     -0.283097

  @DF-RHF Final Energy:  -361.58864778898578

   => Energetics <=

    Nuclear Repulsion Energy =            399.9215020108932208
    One-Electron Energy =               -1281.4941253060580948
    Two-Electron Energy =                 519.9839755061791493
    Total Energy =                       -361.5886477889857815
  Basis Set: (AUG-CC-PVTZ AUX)
    Blend: AUG-CC-PVTZ-RI
    Molecular point group: c1

    Geometry (in Angstrom), charge = 0, multiplicity = 1:

       Center              X                  Y                   Z               Mass
    ------------   -----------------  -----------------  -----------------  -----------------
         N           -1.556283040452    -1.078447574248    -0.000004059034    14.003074004430
         C            0.987963959548     1.431826425752    -0.000005059034    12.000000000000
         C            2.162112959548     0.692386425752    -0.000000059034    12.000000000000
         C            2.139605959548    -0.720035574248    -0.000000059034    12.000000000000
         C            0.941408959548    -1.421954574248     0.000003940966    12.000000000000
         C           -0.241137040452    -0.670583574248    -0.000000059034    12.000000000000
         C           -0.245489040452     0.752470425752     0.000002940966    12.000000000000
         C           -1.613998040452     1.167827425752     0.000004940966    12.000000000000
         C           -2.382032040452     0.026743425752    -0.000002059034    12.000000000000
         H            1.018179959548     2.519791425752    -0.000002059034     1.007825032230
         H            3.120605959548     1.205995425752    -0.000005059034     1.007825032230
         H            3.078803959548    -1.268208574248     0.000002940966     1.007825032230
         H            0.925695959548    -2.510190574248     0.000001940966     1.007825032230
         H           -1.989833040452     2.182932425752     0.000009940966     1.007825032230
         H           -1.870239040452    -2.039584574248    -0.000000059034     1.007825032230
         H           -3.477996140452    -0.093299174248    -0.000005159034     1.007825032230

  Basis Set: AUG-CC-PVTZ
    Blend: AUG-CC-PVTZ
  Basis Set: (AUG-CC-PVTZ AUX)
    Blend: AUG-CC-PVTZ-JKFIT
	 Reference Energy          =    -361.5886477889857815 [Eh]
	 Singles Energy            =      -0.0000000000000000 [Eh]
	 Same-Spin Energy          =      -0.4080101925214646 [Eh]
	 Opposite-Spin Energy      =      -1.2480288853416890 [Eh]
	 Correlation Energy        =      -1.6560390778631535 [Eh]
	 Total Energy              =    -363.2446868668489515 [Eh]

	 ================> DF-SCS-MP2 Energies <==================
	-----------------------------------------------------------
	 SCS Same-Spin Scale       =       0.3333333333333333 [-]
	 SCS Opposite-Spin Scale   =       1.2000000000000000 [-]
	 SCS Same-Spin Energy      =      -0.1360033975071548 [Eh]
	 SCS Opposite-Spin Energy  =      -1.4976346624100267 [Eh]
	 SCS Correlation Energy    =      -1.6336380599171816 [Eh]
	 SCS Total Energy          =    -363.2222858489029704 [Eh]
	-----------------------------------------------------------

  Dipole Moment: [D]
     X:    -1.4818      Y:    -1.5458      Z:     0.0000     Total:     2.1413

*** Psi4 exiting successfully. Buy a developer a beer!
