                               Psi4 1.4a3.dev225

  ==> Input File <==

--------------------------------------------------------------------------
#psi4
#
memory 32 gb

molecule  {
0 1
  N       -1.5630850    -1.0784890    -0.0000040
  C        0.9811620     1.4317850    -0.0000050
  C        2.1553110     0.6923450     0.0000000
  C        2.1328040    -0.7200770     0.0000000
  C        0.9346070    -1.4219960     0.0000040
  C       -0.2479390    -0.6706250     0.0000000
  C       -0.2522910     0.7524290     0.0000030
  C       -1.6208000     1.1677860     0.0000050
  C       -2.3888340     0.0267020    -0.0000020
  H        1.0127661     2.5697307    -0.0000019
  H        3.1138040     1.2059540    -0.0000050
  H        3.0720020    -1.2682500     0.0000030
  H        0.9188940    -2.5102320     0.0000020
  H       -1.9966350     2.1828910     0.0000100
  H       -1.8770410    -2.0396260     0.0000000
  H       -3.4649170    -0.0911630    -0.0000050
units angstrom
no_reorient  #important for SAPT in psi4, default
symmetry c1  #important for SAPT in psi4, default
}

set PROPERTIES_ORIGIN ["COM"]
properties('MP2/aug-cc-pvtz', properties = ['dipole'])
--------------------------------------------------------------------------

    Molecular point group: c1
  Charge       = 0
  Multiplicity = 1
  Basis Set: AUG-CC-PVTZ
    Blend: AUG-CC-PVTZ
  Basis Set: (AUG-CC-PVTZ AUX)
    Blend: AUG-CC-PVTZ-JKFIT

    Orbital Energies [Eh]
    ---------------------

    Doubly Occupied:

       1A    -15.605817     2A    -11.273283     3A    -11.267493
       4A    -11.237408     5A    -11.233757     6A    -11.230750
       7A    -11.227783     8A    -11.222857     9A    -11.218905
      10A     -1.296422    11A     -1.128507    12A     -1.056004
      13A     -0.996016    14A     -0.973908    15A     -0.840907
      16A     -0.806434    17A     -0.788417    18A     -0.724002
      19A     -0.660639    20A     -0.647694    21A     -0.601749
      22A     -0.590017    23A     -0.584261    24A     -0.574323
      25A     -0.550001    26A     -0.508093    27A     -0.480023
      28A     -0.465261    29A     -0.386245    30A     -0.301825
      31A     -0.283284

  @DF-RHF Final Energy:  -361.58683136958257

   => Energetics <=

    Nuclear Repulsion Energy =            399.7760827315043457
    One-Electron Energy =               -1281.2016631324638638
    Two-Electron Energy =                 519.8387490313768922
    Total Energy =                       -361.5868313695825691
  Basis Set: (AUG-CC-PVTZ AUX)
    Blend: AUG-CC-PVTZ-RI
    Molecular point group: c1

    Geometry (in Angstrom), charge = 0, multiplicity = 1:

       Center              X                  Y                   Z               Mass
    ------------   -----------------  -----------------  -----------------  -----------------
         N           -1.556466160442    -1.078896638029    -0.000004060756    14.003074004430
         C            0.987780839558     1.431377361971    -0.000005060756    12.000000000000
         C            2.161929839558     0.691937361971    -0.000000060756    12.000000000000
         C            2.139422839558    -0.720484638029    -0.000000060756    12.000000000000
         C            0.941225839558    -1.422403638029     0.000003939244    12.000000000000
         C           -0.241320160442    -0.671032638029    -0.000000060756    12.000000000000
         C           -0.245672160442     0.752021361971     0.000002939244    12.000000000000
         C           -1.614181160442     1.167378361971     0.000004939244    12.000000000000
         C           -2.382215160442     0.026294361971    -0.000002060756    12.000000000000
         H            1.019384939558     2.569323061971    -0.000001960756     1.007825032230
         H            3.120422839558     1.205546361971    -0.000005060756     1.007825032230
         H            3.078620839558    -1.268657638029     0.000002939244     1.007825032230
         H            0.925512839558    -2.510639638029     0.000001939244     1.007825032230
         H           -1.990016160442     2.182483361971     0.000009939244     1.007825032230
         H           -1.870422160442    -2.040033638029    -0.000000060756     1.007825032230
         H           -3.458298160442    -0.091570638029    -0.000005060756     1.007825032230

  Basis Set: AUG-CC-PVTZ
    Blend: AUG-CC-PVTZ
  Basis Set: (AUG-CC-PVTZ AUX)
    Blend: AUG-CC-PVTZ-JKFIT
	 Reference Energy          =    -361.5868313695825691 [Eh]
	 Singles Energy            =      -0.0000000000000000 [Eh]
	 Same-Spin Energy          =      -0.4080725732489761 [Eh]
	 Opposite-Spin Energy      =      -1.2482631622238447 [Eh]
	 Correlation Energy        =      -1.6563357354728208 [Eh]
	 Total Energy              =    -363.2431671050553632 [Eh]

	 ================> DF-SCS-MP2 Energies <==================
	-----------------------------------------------------------
	 SCS Same-Spin Scale       =       0.3333333333333333 [-]
	 SCS Opposite-Spin Scale   =       1.2000000000000000 [-]
	 SCS Same-Spin Energy      =      -0.1360241910829920 [Eh]
	 SCS Opposite-Spin Energy  =      -1.4979157946686137 [Eh]
	 SCS Correlation Energy    =      -1.6339399857516057 [Eh]
	 SCS Total Energy          =    -363.2207713553341932 [Eh]
	-----------------------------------------------------------

  Dipole Moment: [D]
     X:    -1.4889      Y:    -1.5681      Z:     0.0000     Total:     2.1624

*** Psi4 exiting successfully. Buy a developer a beer!
