                               Psi4 1.3.2 release

  ==> Input File <==

--------------------------------------------------------------------------
#psi4
#
memory 32 gb

molecule  {
0 1
  N       -1.5631460    -1.0786450     0.0000020
  C        0.9814170     1.4318910     0.0000000
  C        2.1009544     0.6121281     0.0000033
  C        2.1326810    -0.7203310    -0.0000050
  C        0.9343870    -1.4220840     0.0000000
  C       -0.2481830    -0.6706930     0.0000000
  C       -0.2522510     0.7528300     0.0000150
  C       -1.6207120     1.1681210    -0.0000080
  C       -2.3885810     0.0265560    -0.0000050
  H        1.0121500     2.5200250     0.0000050
  H        3.1140070     1.2059840    -0.0000050
  H        3.0718340    -1.2688090    -0.0000050
  H        0.9183210    -2.5105470    -0.0000040
  H       -1.9975130     2.1830700    -0.0000130
  H       -1.8769340    -2.0399470     0.0000180
  H       -3.4648550    -0.0903210     0.0000040
units angstrom
no_reorient  #important for SAPT in psi4, default
symmetry c1  #important for SAPT in psi4, default
}

set PROPERTIES_ORIGIN ["COM"]
properties('MP2/aug-cc-pvtz', properties = ['dipole'])
--------------------------------------------------------------------------

    Molecular point group: c1
  Charge       = 0
  Multiplicity = 1
  Basis Set: AUG-CC-PVTZ
    Blend: AUG-CC-PVTZ
  Basis Set: (AUG-CC-PVTZ AUX)
    Blend: AUG-CC-PVTZ-JKFIT

    Orbital Energies [Eh]
    ---------------------

    Doubly Occupied:

       1A    -15.604353     2A    -11.275205     3A    -11.266443
       4A    -11.232663     5A    -11.230954     6A    -11.228118
       7A    -11.221956     8A    -11.220293     9A    -11.217849
      10A     -1.296366    11A     -1.138142    12A     -1.058015
      13A     -0.995872    14A     -0.978812    15A     -0.847387
      16A     -0.804681    17A     -0.783689    18A     -0.730510
      19A     -0.661445    20A     -0.638570    21A     -0.608736
      22A     -0.594949    23A     -0.584645    24A     -0.576925
      25A     -0.554926    26A     -0.492134    27A     -0.477556
      28A     -0.473268    29A     -0.386430    30A     -0.304334
      31A     -0.283081

  @DF-RHF Final Energy:  -361.57712333036710

   => Energetics <=

    Nuclear Repulsion Energy =            401.5933620096715231
    One-Electron Energy =               -1284.8043559621371514
    Two-Electron Energy =                 521.6338706220984704
    Total Energy =                       -361.5771233303671579
  Basis Set: (AUG-CC-PVTZ AUX)
    Blend: AUG-CC-PVTZ-RI
    Molecular point group: c1

    Geometry (in Angstrom), charge = 0, multiplicity = 1:

       Center              X                  Y                   Z               Mass
    ------------   -----------------  -----------------  -----------------  -----------------
         N           -1.550936565102    -1.070410799299     0.000001729995    14.003074004430
         C            0.993626434898     1.440125200701    -0.000000270005    12.000000000000
         C            2.113163834898     0.620362300701     0.000003029995    12.000000000000
         C            2.144890434898    -0.712096799299    -0.000005270005    12.000000000000
         C            0.946596434898    -1.413849799299    -0.000000270005    12.000000000000
         C           -0.235973565102    -0.662458799299    -0.000000270005    12.000000000000
         C           -0.240041565102     0.761064200701     0.000014729995    12.000000000000
         C           -1.608502565102     1.176355200701    -0.000008270005    12.000000000000
         C           -2.376371565102     0.034790200701    -0.000005270005    12.000000000000
         H            1.024359434898     2.528259200701     0.000004729995     1.007825032230
         H            3.126216434898     1.214218200701    -0.000005270005     1.007825032230
         H            3.084043434898    -1.260574799299    -0.000005270005     1.007825032230
         H            0.930530434898    -2.502312799299    -0.000004270005     1.007825032230
         H           -1.985303565102     2.191304200701    -0.000013270005     1.007825032230
         H           -1.864724565102    -2.031712799299     0.000017729995     1.007825032230
         H           -3.452645565102    -0.082086799299     0.000003729995     1.007825032230

  Basis Set: AUG-CC-PVTZ
    Blend: AUG-CC-PVTZ
  Basis Set: (AUG-CC-PVTZ AUX)
    Blend: AUG-CC-PVTZ-JKFIT
	 Reference Energy          =    -361.5771233303671011 [Eh]
	 Singles Energy            =      -0.0000000000000000 [Eh]
	 Same-Spin Energy          =      -0.4085372420579085 [Eh]
	 Opposite-Spin Energy      =      -1.2483652965735108 [Eh]
	 Correlation Energy        =      -1.6569025386314193 [Eh]
	 Total Energy              =    -363.2340258689985149 [Eh]

	 ================> DF-SCS-MP2 Energies <==================
	-----------------------------------------------------------
	 SCS Same-Spin Scale       =       0.3333333333333333 [-]
	 SCS Opposite-Spin Scale   =       1.2000000000000000 [-]
	 SCS Same-Spin Energy      =      -0.1361790806859695 [Eh]
	 SCS Opposite-Spin Energy  =      -1.4980383558882129 [Eh]
	 SCS Correlation Energy    =      -1.6342174365741824 [Eh]
	 SCS Total Energy          =    -363.2113407669413050 [Eh]
	-----------------------------------------------------------

  Dipole Moment: [D]
     X:    -1.5213      Y:    -1.5580      Z:     0.0000     Total:     2.1775

*** Psi4 exiting successfully. Buy a developer a beer!
