                               Psi4 1.4a3.dev225

  ==> Input File <==

--------------------------------------------------------------------------
#psi4
#
memory 32 gb

molecule  {
0 1
  N       -1.5630850    -1.0784890    -0.0000040
  C        0.9811620     1.4317850    -0.0000050
  C        2.1553110     0.6923450     0.0000000
  C        2.1328040    -0.7200770     0.0000000
  C        0.9346070    -1.4219960     0.0000040
  C       -0.2479390    -0.6706250     0.0000000
  C       -0.2522910     0.7524290     0.0000030
  C       -1.6208000     1.1677860     0.0000050
  C       -2.3888340     0.0267020    -0.0000020
  H        1.0113780     2.5197500    -0.0000020
  H        3.1138040     1.2059540    -0.0000050
  H        3.0720020    -1.2682500     0.0000030
  H        0.9188940    -2.5102320     0.0000020
  H       -1.9966350     2.1828910     0.0000100
  H       -1.8770410    -2.0396260     0.0000000
  H       -3.5146197    -0.0966070    -0.0000051
units angstrom
no_reorient  #important for SAPT in psi4, default
symmetry c1  #important for SAPT in psi4, default
}

set PROPERTIES_ORIGIN ["COM"]
properties('MP2/aug-cc-pvtz', properties = ['dipole'])
--------------------------------------------------------------------------

    Molecular point group: c1
  Charge       = 0
  Multiplicity = 1
  Basis Set: AUG-CC-PVTZ
    Blend: AUG-CC-PVTZ
  Basis Set: (AUG-CC-PVTZ AUX)
    Blend: AUG-CC-PVTZ-JKFIT

    Orbital Energies [Eh]
    ---------------------

    Doubly Occupied:

       1A    -15.606038     2A    -11.278674     3A    -11.267293
       4A    -11.233689     5A    -11.231790     6A    -11.230461
       7A    -11.227465     8A    -11.222483     9A    -11.219077
      10A     -1.296410    11A     -1.128564    12A     -1.056098
      13A     -0.996373    14A     -0.973137    15A     -0.840382
      16A     -0.804757    17A     -0.788070    18A     -0.725648
      19A     -0.659802    20A     -0.644163    21A     -0.601683
      22A     -0.595360    23A     -0.584304    24A     -0.573458
      25A     -0.546860    26A     -0.507741    27A     -0.482756
      28A     -0.465075    29A     -0.386240    30A     -0.301692
      31A     -0.283176

  @DF-RHF Final Energy:  -361.58676085065753

   => Energetics <=

    Nuclear Repulsion Energy =            399.7737602606597989
    One-Electron Energy =               -1281.2036015354160554
    Two-Electron Energy =                 519.8430804240987300
    Total Energy =                       -361.5867608506574697
  Basis Set: (AUG-CC-PVTZ AUX)
    Blend: AUG-CC-PVTZ-RI
    Molecular point group: c1

    Geometry (in Angstrom), charge = 0, multiplicity = 1:

       Center              X                  Y                   Z               Mass
    ------------   -----------------  -----------------  -----------------  -----------------
         N           -1.556026287443    -1.078419451745    -0.000004059034    14.003074004430
         C            0.988220712557     1.431854548255    -0.000005059034    12.000000000000
         C            2.162369712557     0.692414548255    -0.000000059034    12.000000000000
         C            2.139862712557    -0.720007451745    -0.000000059034    12.000000000000
         C            0.941665712557    -1.421926451745     0.000003940966    12.000000000000
         C           -0.240880287443    -0.670555451745    -0.000000059034    12.000000000000
         C           -0.245232287443     0.752498548255     0.000002940966    12.000000000000
         C           -1.613741287443     1.167855548255     0.000004940966    12.000000000000
         C           -2.381775287443     0.026771548255    -0.000002059034    12.000000000000
         H            1.018436712557     2.519819548255    -0.000002059034     1.007825032230
         H            3.120862712557     1.206023548255    -0.000005059034     1.007825032230
         H            3.079060712557    -1.268180451745     0.000002940966     1.007825032230
         H            0.925952712557    -2.510162451745     0.000001940966     1.007825032230
         H           -1.989576287443     2.182960548255     0.000009940966     1.007825032230
         H           -1.869982287443    -2.039556451745    -0.000000059034     1.007825032230
         H           -3.507560987443    -0.096537451745    -0.000005159034     1.007825032230

  Basis Set: AUG-CC-PVTZ
    Blend: AUG-CC-PVTZ
  Basis Set: (AUG-CC-PVTZ AUX)
    Blend: AUG-CC-PVTZ-JKFIT
	 Reference Energy          =    -361.5867608506575266 [Eh]
	 Singles Energy            =      -0.0000000000000000 [Eh]
	 Same-Spin Energy          =      -0.4080840413217470 [Eh]
	 Opposite-Spin Energy      =      -1.2483078786833477 [Eh]
	 Correlation Energy        =      -1.6563919200050947 [Eh]
	 Total Energy              =    -363.2431527706626184 [Eh]

	 ================> DF-SCS-MP2 Energies <==================
	-----------------------------------------------------------
	 SCS Same-Spin Scale       =       0.3333333333333333 [-]
	 SCS Opposite-Spin Scale   =       1.2000000000000000 [-]
	 SCS Same-Spin Energy      =      -0.1360280137739157 [Eh]
	 SCS Opposite-Spin Energy  =      -1.4979694544200173 [Eh]
	 SCS Correlation Energy    =      -1.6339974681939329 [Eh]
	 SCS Total Energy          =    -363.2207583188514377 [Eh]
	-----------------------------------------------------------

  Dipole Moment: [D]
     X:    -1.4771      Y:    -1.5457      Z:     0.0000     Total:     2.1380

*** Psi4 exiting successfully. Buy a developer a beer!
