                               Psi4 1.3.2 release

  ==> Input File <==

--------------------------------------------------------------------------
#psi4
#
memory 32 gb

molecule  {
0 1
  N       -1.5631460    -1.0786450     0.0000020
  C        0.9814170     1.4318910     0.0000000
  C        2.1554110     0.6922200     0.0000020
  C        2.1326810    -0.7203310    -0.0000050
  C        0.9343870    -1.4220840     0.0000000
  C       -0.2481830    -0.6706930     0.0000000
  C       -0.2522510     0.7528300     0.0000150
  C       -1.6207120     1.1681210    -0.0000080
  C       -2.3885810     0.0265560    -0.0000050
  H        1.0121500     2.5200250     0.0000050
  H        3.1140070     1.2059840    -0.0000050
  H        3.0718340    -1.2688090    -0.0000050
  H        0.9183210    -2.5105470    -0.0000040
  H       -1.9975130     2.1830700    -0.0000130
  H       -1.8769340    -2.0399470     0.0000180
  H       -3.4648550    -0.0903210     0.0000040
units angstrom
no_reorient  #important for SAPT in psi4, default
symmetry c1  #important for SAPT in psi4, default
}

set PROPERTIES_ORIGIN ["COM"]
properties('MP2/aug-cc-pvtz', properties = ['dipole'])
--------------------------------------------------------------------------

    Molecular point group: c1
  Charge       = 0
  Multiplicity = 1
  Basis Set: AUG-CC-PVTZ
    Blend: AUG-CC-PVTZ
  Basis Set: (AUG-CC-PVTZ AUX)
    Blend: AUG-CC-PVTZ-JKFIT

    Orbital Energies [Eh]
    ---------------------

    Doubly Occupied:

       1A    -15.605728     2A    -11.273186     3A    -11.267131
       4A    -11.233572     5A    -11.231682     6A    -11.230403
       7A    -11.227275     8A    -11.222399     9A    -11.218824
      10A     -1.296276    11A     -1.128453    12A     -1.055999
      13A     -0.996460    14A     -0.974283    15A     -0.842226
      16A     -0.806209    17A     -0.788466    18A     -0.727233
      19A     -0.661817    20A     -0.647416    21A     -0.601757
      22A     -0.595300    23A     -0.584050    24A     -0.574324
      25A     -0.550005    26A     -0.507760    27A     -0.482618
      28A     -0.464912    29A     -0.386058    30A     -0.301515
      31A     -0.282992

  @DF-RHF Final Energy:  -361.58926351922469

   => Energetics <=

    Nuclear Repulsion Energy =            400.0025744337049787
    One-Electron Energy =               -1281.6510201054695699
    Two-Electron Energy =                 520.0591821525399610
    Total Energy =                       -361.5892635192246871
  Basis Set: (AUG-CC-PVTZ AUX)
    Blend: AUG-CC-PVTZ-RI
    Molecular point group: c1

    Geometry (in Angstrom), charge = 0, multiplicity = 1:

       Center              X                  Y                   Z               Mass
    ------------   -----------------  -----------------  -----------------  -----------------
         N           -1.556519097195    -1.078621293566     0.000001863263    14.003074004430
         C            0.988043902805     1.431914706434    -0.000000136737    12.000000000000
         C            2.162037902805     0.692243706434     0.000001863263    12.000000000000
         C            2.139307902805    -0.720307293566    -0.000005136737    12.000000000000
         C            0.941013902805    -1.422060293566    -0.000000136737    12.000000000000
         C           -0.241556097195    -0.670669293566    -0.000000136737    12.000000000000
         C           -0.245624097195     0.752853706434     0.000014863263    12.000000000000
         C           -1.614085097195     1.168144706434    -0.000008136737    12.000000000000
         C           -2.381954097195     0.026579706434    -0.000005136737    12.000000000000
         H            1.018776902805     2.520048706434     0.000004863263     1.007825032230
         H            3.120633902805     1.206007706434    -0.000005136737     1.007825032230
         H            3.078460902805    -1.268785293566    -0.000005136737     1.007825032230
         H            0.924947902805    -2.510523293566    -0.000004136737     1.007825032230
         H           -1.990886097195     2.183093706434    -0.000013136737     1.007825032230
         H           -1.870307097195    -2.039923293566     0.000017863263     1.007825032230
         H           -3.458228097195    -0.090297293566     0.000003863263     1.007825032230

  Basis Set: AUG-CC-PVTZ
    Blend: AUG-CC-PVTZ
  Basis Set: (AUG-CC-PVTZ AUX)
    Blend: AUG-CC-PVTZ-JKFIT
	 Reference Energy          =    -361.5892635192246871 [Eh]
	 Singles Energy            =      -0.0000000000000000 [Eh]
	 Same-Spin Energy          =      -0.4079760298482583 [Eh]
	 Opposite-Spin Energy      =      -1.2478846619463422 [Eh]
	 Correlation Energy        =      -1.6558606917946004 [Eh]
	 Total Energy              =    -363.2451242110192879 [Eh]

	 ================> DF-SCS-MP2 Energies <==================
	-----------------------------------------------------------
	 SCS Same-Spin Scale       =       0.3333333333333333 [-]
	 SCS Opposite-Spin Scale   =       1.2000000000000000 [-]
	 SCS Same-Spin Energy      =      -0.1359920099494194 [Eh]
	 SCS Opposite-Spin Energy  =      -1.4974615943356107 [Eh]
	 SCS Correlation Energy    =      -1.6334536042850301 [Eh]
	 SCS Total Energy          =    -363.2227171235097103 [Eh]
	-----------------------------------------------------------

  Dipole Moment: [D]
     X:    -1.4856      Y:    -1.5469      Z:     0.0000     Total:     2.1447

*** Psi4 exiting successfully. Buy a developer a beer!
