                               Psi4 1.3.2 release

  ==> Input File <==

--------------------------------------------------------------------------
#psi4
#
memory 32 gb

molecule  {
0 1
  N       -1.5631460    -1.0786450     0.0000020
  C        0.9814170     1.4318910     0.0000000
  C        2.1554110     0.6922200     0.0000020
  C        2.1326810    -0.7203310    -0.0000050
  C        0.9343870    -1.4220840     0.0000000
  C       -0.2481830    -0.6706930     0.0000000
  C       -0.2522510     0.7528300     0.0000150
  C       -1.6207120     1.1681210    -0.0000080
  C       -2.3885810     0.0265560    -0.0000050
  H        1.0093267     2.4200649     0.0000045
  H        3.1140070     1.2059840    -0.0000050
  H        3.0718340    -1.2688090    -0.0000050
  H        0.9183210    -2.5105470    -0.0000040
  H       -1.9975130     2.1830700    -0.0000130
  H       -1.8769340    -2.0399470     0.0000180
  H       -3.4648550    -0.0903210     0.0000040
units angstrom
no_reorient  #important for SAPT in psi4, default
symmetry c1  #important for SAPT in psi4, default
}

set PROPERTIES_ORIGIN ["COM"]
properties('MP2/aug-cc-pvtz', properties = ['dipole'])
--------------------------------------------------------------------------

    Molecular point group: c1
  Charge       = 0
  Multiplicity = 1
  Basis Set: AUG-CC-PVTZ
    Blend: AUG-CC-PVTZ
  Basis Set: (AUG-CC-PVTZ AUX)
    Blend: AUG-CC-PVTZ-JKFIT

    Orbital Energies [Eh]
    ---------------------

    Doubly Occupied:

       1A    -15.605419     2A    -11.273010     3A    -11.266448
       4A    -11.233280     5A    -11.229786     6A    -11.226500
       7A    -11.221873     8A    -11.219266     9A    -11.218613
      10A     -1.295925    11A     -1.128866    12A     -1.056270
      13A     -0.998275    14A     -0.975493    15A     -0.846301
      16A     -0.805855    17A     -0.788816    18A     -0.735605
      19A     -0.664730    20A     -0.647094    21A     -0.606585
      22A     -0.600635    23A     -0.583661    24A     -0.574355
      25A     -0.549972    26A     -0.507304    27A     -0.486767
      28A     -0.464383    29A     -0.385750    30A     -0.301055
      31A     -0.282657

  @DF-RHF Final Energy:  -361.58355115085715

   => Energetics <=

    Nuclear Repulsion Energy =            400.5430035382152596
    One-Electron Energy =               -1282.6920076206858994
    Two-Electron Energy =                 520.5654529316134358
    Total Energy =                       -361.5835511508571471
  Basis Set: (AUG-CC-PVTZ AUX)
    Blend: AUG-CC-PVTZ-RI
    Molecular point group: c1

    Geometry (in Angstrom), charge = 0, multiplicity = 1:

       Center              X                  Y                   Z               Mass
    ------------   -----------------  -----------------  -----------------  -----------------
         N           -1.556494789620    -1.077760673867     0.000001867568    14.003074004430
         C            0.988068210380     1.432775326133    -0.000000132432    12.000000000000
         C            2.162062210380     0.693104326133     0.000001867568    12.000000000000
         C            2.139332210380    -0.719446673867    -0.000005132432    12.000000000000
         C            0.941038210380    -1.421199673867    -0.000000132432    12.000000000000
         C           -0.241531789620    -0.669808673867    -0.000000132432    12.000000000000
         C           -0.245599789620     0.753714326133     0.000014867568    12.000000000000
         C           -1.614060789620     1.169005326133    -0.000008132432    12.000000000000
         C           -2.381929789620     0.027440326133    -0.000005132432    12.000000000000
         H            1.015977910380     2.420949226133     0.000004367568     1.007825032230
         H            3.120658210380     1.206868326133    -0.000005132432     1.007825032230
         H            3.078485210380    -1.267924673867    -0.000005132432     1.007825032230
         H            0.924972210380    -2.509662673867    -0.000004132432     1.007825032230
         H           -1.990861789620     2.183954326133    -0.000013132432     1.007825032230
         H           -1.870282789620    -2.039062673867     0.000017867568     1.007825032230
         H           -3.458203789620    -0.089436673867     0.000003867568     1.007825032230

  Basis Set: AUG-CC-PVTZ
    Blend: AUG-CC-PVTZ
  Basis Set: (AUG-CC-PVTZ AUX)
    Blend: AUG-CC-PVTZ-JKFIT
	 Reference Energy          =    -361.5835511508571471 [Eh]
	 Singles Energy            =      -0.0000000000000000 [Eh]
	 Same-Spin Energy          =      -0.4078245425131418 [Eh]
	 Opposite-Spin Energy      =      -1.2474083088939918 [Eh]
	 Correlation Energy        =      -1.6552328514071335 [Eh]
	 Total Energy              =    -363.2387840022642536 [Eh]

	 ================> DF-SCS-MP2 Energies <==================
	-----------------------------------------------------------
	 SCS Same-Spin Scale       =       0.3333333333333333 [-]
	 SCS Opposite-Spin Scale   =       1.2000000000000000 [-]
	 SCS Same-Spin Energy      =      -0.1359415141710473 [Eh]
	 SCS Opposite-Spin Energy  =      -1.4968899706727901 [Eh]
	 SCS Correlation Energy    =      -1.6328314848438374 [Eh]
	 SCS Total Energy          =    -363.2163826357009953 [Eh]
	-----------------------------------------------------------

  Dipole Moment: [D]
     X:    -1.4776      Y:    -1.5155      Z:     0.0000     Total:     2.1166

*** Psi4 exiting successfully. Buy a developer a beer!
