                               Psi4 1.3.2 release

  ==> Input File <==

--------------------------------------------------------------------------
#psi4
#
memory 32 gb

molecule  {
0 1
  N       -1.5631460    -1.0786450     0.0000020
  C        0.9814170     1.4318910     0.0000000
  C        2.1554110     0.6922200     0.0000020
  C        2.1326810    -0.7203310    -0.0000050
  C        1.0064505    -1.2943556     0.0000018
  C       -0.2481830    -0.6706930     0.0000000
  C       -0.2522510     0.7528300     0.0000150
  C       -1.6207120     1.1681210    -0.0000080
  C       -2.3885810     0.0265560    -0.0000050
  H        1.0121500     2.5200250     0.0000050
  H        3.1140070     1.2059840    -0.0000050
  H        3.0718340    -1.2688090    -0.0000050
  H        0.9183210    -2.5105470    -0.0000040
  H       -1.9975130     2.1830700    -0.0000130
  H       -1.8769340    -2.0399470     0.0000180
  H       -3.4648550    -0.0903210     0.0000040
units angstrom
no_reorient  #important for SAPT in psi4, default
symmetry c1  #important for SAPT in psi4, default
}

set PROPERTIES_ORIGIN ["COM"]
properties('MP2/aug-cc-pvtz', properties = ['dipole'])
--------------------------------------------------------------------------

    Molecular point group: c1
  Charge       = 0
  Multiplicity = 1
  Basis Set: AUG-CC-PVTZ
    Blend: AUG-CC-PVTZ
  Basis Set: (AUG-CC-PVTZ AUX)
    Blend: AUG-CC-PVTZ-JKFIT

    Orbital Energies [Eh]
    ---------------------

    Doubly Occupied:

       1A    -15.611680     2A    -11.273124     3A    -11.265497
       4A    -11.232202     5A    -11.229857     6A    -11.224606
       7A    -11.221865     8A    -11.218987     9A    -11.214819
      10A     -1.297407    11A     -1.145847    12A     -1.059906
      13A     -0.994173    14A     -0.985964    15A     -0.838630
      16A     -0.813023    17A     -0.785780    18A     -0.729250
      19A     -0.664169    20A     -0.650273    21A     -0.603828
      22A     -0.586782    23A     -0.578618    24A     -0.574136
      25A     -0.557259    26A     -0.513793    27A     -0.478243
      28A     -0.452641    29A     -0.390863    30A     -0.299637
      31A     -0.292451

  @DF-RHF Final Energy:  -361.56072134955866

   => Energetics <=

    Nuclear Repulsion Energy =            402.0127052757244428
    One-Electron Energy =               -1285.5762316899135840
    Two-Electron Energy =                 522.0028050646304791
    Total Energy =                       -361.5607213495586620
  Basis Set: (AUG-CC-PVTZ AUX)
    Blend: AUG-CC-PVTZ-RI
    Molecular point group: c1

    Geometry (in Angstrom), charge = 0, multiplicity = 1:

       Center              X                  Y                   Z               Mass
    ------------   -----------------  -----------------  -----------------  -----------------
         N           -1.563906572752    -1.091715168177     0.000001678739    14.003074004430
         C            0.980656427248     1.418820831823    -0.000000321261    12.000000000000
         C            2.154650427248     0.679149831823     0.000001678739    12.000000000000
         C            2.131920427248    -0.733401168177    -0.000005321261    12.000000000000
         C            1.005689927248    -1.307425768177     0.000001478739    12.000000000000
         C           -0.248943572752    -0.683763168177    -0.000000321261    12.000000000000
         C           -0.253011572752     0.739759831823     0.000014678739    12.000000000000
         C           -1.621472572752     1.155050831823    -0.000008321261    12.000000000000
         C           -2.389341572752     0.013485831823    -0.000005321261    12.000000000000
         H            1.011389427248     2.506954831823     0.000004678739     1.007825032230
         H            3.113246427248     1.192913831823    -0.000005321261     1.007825032230
         H            3.071073427248    -1.281879168177    -0.000005321261     1.007825032230
         H            0.917560427248    -2.523617168177    -0.000004321261     1.007825032230
         H           -1.998273572752     2.169999831823    -0.000013321261     1.007825032230
         H           -1.877694572752    -2.053017168177     0.000017678739     1.007825032230
         H           -3.465615572752    -0.103391168177     0.000003678739     1.007825032230

  Basis Set: AUG-CC-PVTZ
    Blend: AUG-CC-PVTZ
  Basis Set: (AUG-CC-PVTZ AUX)
    Blend: AUG-CC-PVTZ-JKFIT
	 Reference Energy          =    -361.5607213495586620 [Eh]
	 Singles Energy            =      -0.0000000000000000 [Eh]
	 Same-Spin Energy          =      -0.4081670905724837 [Eh]
	 Opposite-Spin Energy      =      -1.2482843924786047 [Eh]
	 Correlation Energy        =      -1.6564514830510884 [Eh]
	 Total Energy              =    -363.2171728326097764 [Eh]

	 ================> DF-SCS-MP2 Energies <==================
	-----------------------------------------------------------
	 SCS Same-Spin Scale       =       0.3333333333333333 [-]
	 SCS Opposite-Spin Scale   =       1.2000000000000000 [-]
	 SCS Same-Spin Energy      =      -0.1360556968574946 [Eh]
	 SCS Opposite-Spin Energy  =      -1.4979412709743256 [Eh]
	 SCS Correlation Energy    =      -1.6339969678318202 [Eh]
	 SCS Total Energy          =    -363.1947183173904818 [Eh]
	-----------------------------------------------------------

  Dipole Moment: [D]
     X:    -1.4535      Y:    -1.4651      Z:     0.0000     Total:     2.0638

*** Psi4 exiting successfully. Buy a developer a beer!
