                               Psi4 1.4a3.dev225

  ==> Input File <==

--------------------------------------------------------------------------
#psi4
#
memory 32 gb

molecule  {
0 1
  N       -1.5630850    -1.0784890    -0.0000040
  C        0.9811620     1.4317850    -0.0000050
  C        2.1553110     0.6923450     0.0000000
  C        2.1328040    -0.7200770     0.0000000
  C        0.9346070    -1.4219960     0.0000040
  C       -0.2479390    -0.6706250     0.0000000
  C       -0.2522910     0.7524290     0.0000030
  C       -1.6208000     1.1677860     0.0000050
  C       -2.3888340     0.0267020    -0.0000020
  H        1.0113780     2.5197500    -0.0000020
  H        3.1138040     1.2059540    -0.0000050
  H        3.0720020    -1.2682500     0.0000030
  H        0.9186053    -2.5302299     0.0000020
  H       -1.9966350     2.1828910     0.0000100
  H       -1.8770410    -2.0396260     0.0000000
  H       -3.4649170    -0.0911630    -0.0000050
units angstrom
no_reorient  #important for SAPT in psi4, default
symmetry c1  #important for SAPT in psi4, default
}

set PROPERTIES_ORIGIN ["COM"]
properties('MP2/aug-cc-pvtz', properties = ['dipole'])
--------------------------------------------------------------------------

    Molecular point group: c1
  Charge       = 0
  Multiplicity = 1
  Basis Set: AUG-CC-PVTZ
    Blend: AUG-CC-PVTZ
  Basis Set: (AUG-CC-PVTZ AUX)
    Blend: AUG-CC-PVTZ-JKFIT

    Orbital Energies [Eh]
    ---------------------

    Doubly Occupied:

       1A    -15.605656     2A    -11.273224     3A    -11.267295
       4A    -11.235830     5A    -11.231742     6A    -11.230614
       7A    -11.227348     8A    -11.222512     9A    -11.218837
      10A     -1.296248    11A     -1.128527    12A     -1.055837
      13A     -0.996291    14A     -0.974290    15A     -0.841613
      16A     -0.806299    17A     -0.788261    18A     -0.726409
      19A     -0.661160    20A     -0.646799    21A     -0.601711
      22A     -0.593440    23A     -0.584092    24A     -0.574505
      25A     -0.550150    26A     -0.507884    27A     -0.481889
      28A     -0.465038    29A     -0.386124    30A     -0.301646
      31A     -0.283135

  @DF-RHF Final Energy:  -361.58865704151697

   => Energetics <=

    Nuclear Repulsion Energy =            399.9222797298860996
    One-Electron Energy =               -1281.4930629210448387
    Two-Electron Energy =                 519.9821261496417719
    Total Energy =                       -361.5886570415169672
  Basis Set: (AUG-CC-PVTZ AUX)
    Blend: AUG-CC-PVTZ-RI
    Molecular point group: c1

    Geometry (in Angstrom), charge = 0, multiplicity = 1:

       Center              X                  Y                   Z               Mass
    ------------   -----------------  -----------------  -----------------  -----------------
         N           -1.556451723810    -1.078294148018    -0.000004059895    14.003074004430
         C            0.987795276190     1.431979851982    -0.000005059895    12.000000000000
         C            2.161944276190     0.692539851982    -0.000000059895    12.000000000000
         C            2.139437276190    -0.719882148018    -0.000000059895    12.000000000000
         C            0.941240276190    -1.421801148018     0.000003940105    12.000000000000
         C           -0.241305723810    -0.670430148018    -0.000000059895    12.000000000000
         C           -0.245657723810     0.752623851982     0.000002940105    12.000000000000
         C           -1.614166723810     1.167980851982     0.000004940105    12.000000000000
         C           -2.382200723810     0.026896851982    -0.000002059895    12.000000000000
         H            1.018011276190     2.519944851982    -0.000002059895     1.007825032230
         H            3.120437276190     1.206148851982    -0.000005059895     1.007825032230
         H            3.078635276190    -1.268055148018     0.000002940105     1.007825032230
         H            0.925238576190    -2.530035048018     0.000001940105     1.007825032230
         H           -1.990001723810     2.183085851982     0.000009940105     1.007825032230
         H           -1.870407723810    -2.039431148018    -0.000000059895     1.007825032230
         H           -3.458283723810    -0.090968148018    -0.000005059895     1.007825032230

  Basis Set: AUG-CC-PVTZ
    Blend: AUG-CC-PVTZ
  Basis Set: (AUG-CC-PVTZ AUX)
    Blend: AUG-CC-PVTZ-JKFIT
	 Reference Energy          =    -361.5886570415169672 [Eh]
	 Singles Energy            =      -0.0000000000000000 [Eh]
	 Same-Spin Energy          =      -0.4080076629941092 [Eh]
	 Opposite-Spin Energy      =      -1.2480162284418308 [Eh]
	 Correlation Energy        =      -1.6560238914359400 [Eh]
	 Total Energy              =    -363.2446809329529174 [Eh]

	 ================> DF-SCS-MP2 Energies <==================
	-----------------------------------------------------------
	 SCS Same-Spin Scale       =       0.3333333333333333 [-]
	 SCS Opposite-Spin Scale   =       1.2000000000000000 [-]
	 SCS Same-Spin Energy      =      -0.1360025543313697 [Eh]
	 SCS Opposite-Spin Energy  =      -1.4976194741301969 [Eh]
	 SCS Correlation Energy    =      -1.6336220284615666 [Eh]
	 SCS Total Energy          =    -363.2222790699785264 [Eh]
	-----------------------------------------------------------

  Dipole Moment: [D]
     X:    -1.4848      Y:    -1.5376      Z:     0.0000     Total:     2.1374

*** Psi4 exiting successfully. Buy a developer a beer!
