                               Psi4 1.3.2 release

  ==> Input File <==

--------------------------------------------------------------------------
#psi4
#
memory 32 gb

molecule  {
0 1
  N       -1.5631460    -1.0786450     0.0000020
  C        0.9686868     1.4112893    -0.0000002
  C        2.1554110     0.6922200     0.0000020
  C        2.1326810    -0.7203310    -0.0000050
  C        0.9343870    -1.4220840     0.0000000
  C       -0.2481830    -0.6706930     0.0000000
  C       -0.2522510     0.7528300     0.0000150
  C       -1.6207120     1.1681210    -0.0000080
  C       -2.3885810     0.0265560    -0.0000050
  H        1.0121500     2.5200250     0.0000050
  H        3.1140070     1.2059840    -0.0000050
  H        3.0718340    -1.2688090    -0.0000050
  H        0.9183210    -2.5105470    -0.0000040
  H       -1.9975130     2.1830700    -0.0000130
  H       -1.8769340    -2.0399470     0.0000180
  H       -3.4648550    -0.0903210     0.0000040
units angstrom
no_reorient  #important for SAPT in psi4, default
symmetry c1  #important for SAPT in psi4, default
}

set PROPERTIES_ORIGIN ["COM"]
properties('MP2/aug-cc-pvtz', properties = ['dipole'])
--------------------------------------------------------------------------

    Molecular point group: c1
  Charge       = 0
  Multiplicity = 1
  Basis Set: AUG-CC-PVTZ
    Blend: AUG-CC-PVTZ
  Basis Set: (AUG-CC-PVTZ AUX)
    Blend: AUG-CC-PVTZ-JKFIT

    Orbital Energies [Eh]
    ---------------------

    Doubly Occupied:

       1A    -15.605666     2A    -11.273749     3A    -11.267643
       4A    -11.232736     5A    -11.231230     6A    -11.230260
       7A    -11.225536     8A    -11.221850     9A    -11.219234
      10A     -1.296662    11A     -1.130447    12A     -1.056938
      13A     -0.995803    14A     -0.975559    15A     -0.842481
      16A     -0.807026    17A     -0.789439    18A     -0.725520
      19A     -0.661262    20A     -0.648470    21A     -0.601909
      22A     -0.592347    23A     -0.584659    24A     -0.574359
      25A     -0.550634    26A     -0.511365    27A     -0.478422
      28A     -0.466020    29A     -0.387461    30A     -0.300733
      31A     -0.284117

  @DF-RHF Final Energy:  -361.58863800813464

   => Energetics <=

    Nuclear Repulsion Energy =            400.4374474581536560
    One-Electron Energy =               -1282.5130966290007564
    Two-Electron Energy =                 520.4870111627124061
    Total Energy =                       -361.5886380081346942
  Basis Set: (AUG-CC-PVTZ AUX)
    Blend: AUG-CC-PVTZ-RI
    Molecular point group: c1

    Geometry (in Angstrom), charge = 0, multiplicity = 1:

       Center              X                  Y                   Z               Mass
    ------------   -----------------  -----------------  -----------------  -----------------
         N           -1.555214080906    -1.076509342923     0.000001883766    14.003074004430
         C            0.976618719094     1.413424957077    -0.000000316234    12.000000000000
         C            2.163342919094     0.694355657077     0.000001883766    12.000000000000
         C            2.140612919094    -0.718195342923    -0.000005116234    12.000000000000
         C            0.942318919094    -1.419948342923    -0.000000116234    12.000000000000
         C           -0.240251080906    -0.668557342923    -0.000000116234    12.000000000000
         C           -0.244319080906     0.754965657077     0.000014883766    12.000000000000
         C           -1.612780080906     1.170256657077    -0.000008116234    12.000000000000
         C           -2.380649080906     0.028691657077    -0.000005116234    12.000000000000
         H            1.020081919094     2.522160657077     0.000004883766     1.007825032230
         H            3.121938919094     1.208119657077    -0.000005116234     1.007825032230
         H            3.079765919094    -1.266673342923    -0.000005116234     1.007825032230
         H            0.926252919094    -2.508411342923    -0.000004116234     1.007825032230
         H           -1.989581080906     2.185205657077    -0.000013116234     1.007825032230
         H           -1.869002080906    -2.037811342923     0.000017883766     1.007825032230
         H           -3.456923080906    -0.088185342923     0.000003883766     1.007825032230

  Basis Set: AUG-CC-PVTZ
    Blend: AUG-CC-PVTZ
  Basis Set: (AUG-CC-PVTZ AUX)
    Blend: AUG-CC-PVTZ-JKFIT
	 Reference Energy          =    -361.5886380081346374 [Eh]
	 Singles Energy            =      -0.0000000000000000 [Eh]
	 Same-Spin Energy          =      -0.4080264681406670 [Eh]
	 Opposite-Spin Energy      =      -1.2478019902330062 [Eh]
	 Correlation Energy        =      -1.6558284583736733 [Eh]
	 Total Energy              =    -363.2444664665082996 [Eh]

	 ================> DF-SCS-MP2 Energies <==================
	-----------------------------------------------------------
	 SCS Same-Spin Scale       =       0.3333333333333333 [-]
	 SCS Opposite-Spin Scale   =       1.2000000000000000 [-]
	 SCS Same-Spin Energy      =      -0.1360088227135557 [Eh]
	 SCS Opposite-Spin Energy  =      -1.4973623882796074 [Eh]
	 SCS Correlation Energy    =      -1.6333712109931631 [Eh]
	 SCS Total Energy          =    -363.2220092191278127 [Eh]
	-----------------------------------------------------------

  Dipole Moment: [D]
     X:    -1.4965      Y:    -1.5595      Z:     0.0000     Total:     2.1613

*** Psi4 exiting successfully. Buy a developer a beer!
