                               Psi4 1.4a3.dev225

  ==> Input File <==

--------------------------------------------------------------------------
#psi4
#
memory 32 gb

molecule  {
0 1
  N       -1.5630850    -1.0784890    -0.0000040
  C        0.9811620     1.4317850    -0.0000050
  C        2.1553110     0.6923450     0.0000000
  C        2.1328040    -0.7200770     0.0000000
  C        0.9346070    -1.4219960     0.0000040
  C       -0.2479390    -0.6706250     0.0000000
  C       -0.2522910     0.7524290     0.0000030
  C       -1.6208000     1.1677860     0.0000050
  C       -2.3888340     0.0267020    -0.0000020
  H        1.0113780     2.5197500    -0.0000020
  H        3.0697325     1.1823383    -0.0000048
  H        3.0720020    -1.2682500     0.0000030
  H        0.9188940    -2.5102320     0.0000020
  H       -1.9966350     2.1828910     0.0000100
  H       -1.8770410    -2.0396260     0.0000000
  H       -3.4649170    -0.0911630    -0.0000050
units angstrom
no_reorient  #important for SAPT in psi4, default
symmetry c1  #important for SAPT in psi4, default
}

set PROPERTIES_ORIGIN ["COM"]
properties('MP2/aug-cc-pvtz', properties = ['dipole'])
--------------------------------------------------------------------------

    Molecular point group: c1
  Charge       = 0
  Multiplicity = 1
  Basis Set: AUG-CC-PVTZ
    Blend: AUG-CC-PVTZ
  Basis Set: (AUG-CC-PVTZ AUX)
    Blend: AUG-CC-PVTZ-JKFIT

    Orbital Energies [Eh]
    ---------------------

    Doubly Occupied:

       1A    -15.605454     2A    -11.272968     3A    -11.266895
       4A    -11.233190     5A    -11.231221     6A    -11.229902
       7A    -11.226854     8A    -11.218570     9A    -11.216347
      10A     -1.296017    11A     -1.128625    12A     -1.055778
      13A     -0.998126    14A     -0.974099    15A     -0.843626
      16A     -0.806839    17A     -0.789788    18A     -0.727018
      19A     -0.664142    20A     -0.651490    21A     -0.601483
      22A     -0.595557    23A     -0.583814    24A     -0.574668
      25A     -0.549873    26A     -0.512112    27A     -0.482621
      28A     -0.464593    29A     -0.385790    30A     -0.301319
      31A     -0.282810

  @DF-RHF Final Energy:  -361.58853768303231

   => Energetics <=

    Nuclear Repulsion Energy =            400.2832528514983892
    One-Electron Energy =               -1282.2004067783650498
    Two-Electron Energy =                 520.3286162438342899
    Total Energy =                       -361.5885376830323139
  Basis Set: (AUG-CC-PVTZ AUX)
    Blend: AUG-CC-PVTZ-RI
    Molecular point group: c1

    Geometry (in Angstrom), charge = 0, multiplicity = 1:

       Center              X                  Y                   Z               Mass
    ------------   -----------------  -----------------  -----------------  -----------------
         N           -1.556074770004    -1.078263000091    -0.000004061617    14.003074004430
         C            0.988172229996     1.432010999909    -0.000005061617    12.000000000000
         C            2.162321229996     0.692570999909    -0.000000061617    12.000000000000
         C            2.139814229996    -0.719851000091    -0.000000061617    12.000000000000
         C            0.941617229996    -1.421770000091     0.000003938383    12.000000000000
         C           -0.240928770004    -0.670399000091    -0.000000061617    12.000000000000
         C           -0.245280770004     0.752654999909     0.000002938383    12.000000000000
         C           -1.613789770004     1.168011999909     0.000004938383    12.000000000000
         C           -2.381823770004     0.026927999909    -0.000002061617    12.000000000000
         H            1.018388229996     2.519975999909    -0.000002061617     1.007825032230
         H            3.076742729996     1.182564299909    -0.000004861617     1.007825032230
         H            3.079012229996    -1.268024000091     0.000002938383     1.007825032230
         H            0.925904229996    -2.510006000091     0.000001938383     1.007825032230
         H           -1.989624770004     2.183116999909     0.000009938383     1.007825032230
         H           -1.870030770004    -2.039400000091    -0.000000061617     1.007825032230
         H           -3.457906770004    -0.090937000091    -0.000005061617     1.007825032230

  Basis Set: AUG-CC-PVTZ
    Blend: AUG-CC-PVTZ
  Basis Set: (AUG-CC-PVTZ AUX)
    Blend: AUG-CC-PVTZ-JKFIT
	 Reference Energy          =    -361.5885376830323139 [Eh]
	 Singles Energy            =      -0.0000000000000000 [Eh]
	 Same-Spin Energy          =      -0.4078885001969307 [Eh]
	 Opposite-Spin Energy      =      -1.2475434366132294 [Eh]
	 Correlation Energy        =      -1.6554319368101602 [Eh]
	 Total Energy              =    -363.2439696198424599 [Eh]

	 ================> DF-SCS-MP2 Energies <==================
	-----------------------------------------------------------
	 SCS Same-Spin Scale       =       0.3333333333333333 [-]
	 SCS Opposite-Spin Scale   =       1.2000000000000000 [-]
	 SCS Same-Spin Energy      =      -0.1359628333989769 [Eh]
	 SCS Opposite-Spin Energy  =      -1.4970521239358752 [Eh]
	 SCS Correlation Energy    =      -1.6330149573348520 [Eh]
	 SCS Total Energy          =    -363.2215526403671788 [Eh]
	-----------------------------------------------------------

  Dipole Moment: [D]
     X:    -1.4640      Y:    -1.5353      Z:     0.0000     Total:     2.1214

*** Psi4 exiting successfully. Buy a developer a beer!
