                               Psi4 1.3.2 release

  ==> Input File <==

--------------------------------------------------------------------------
#psi4
#
memory 32 gb

molecule  {
0 1
  N       -1.5631460    -1.0786450     0.0000020
  C        0.9814170     1.4318910     0.0000000
  C        2.1554110     0.6922200     0.0000020
  C        2.1326810    -0.7203310    -0.0000050
  C        0.9074434    -1.4628974    -0.0000006
  C       -0.2481830    -0.6706930     0.0000000
  C       -0.2522510     0.7528300     0.0000150
  C       -1.6207120     1.1681210    -0.0000080
  C       -2.3885810     0.0265560    -0.0000050
  H        1.0121500     2.5200250     0.0000050
  H        3.1140070     1.2059840    -0.0000050
  H        3.0718340    -1.2688090    -0.0000050
  H        0.9183210    -2.5105470    -0.0000040
  H       -1.9975130     2.1830700    -0.0000130
  H       -1.8769340    -2.0399470     0.0000180
  H       -3.4648550    -0.0903210     0.0000040
units angstrom
no_reorient  #important for SAPT in psi4, default
symmetry c1  #important for SAPT in psi4, default
}

set PROPERTIES_ORIGIN ["COM"]
properties('MP2/aug-cc-pvtz', properties = ['dipole'])
--------------------------------------------------------------------------

    Molecular point group: c1
  Charge       = 0
  Multiplicity = 1
  Basis Set: AUG-CC-PVTZ
    Blend: AUG-CC-PVTZ
  Basis Set: (AUG-CC-PVTZ AUX)
    Blend: AUG-CC-PVTZ-JKFIT

    Orbital Energies [Eh]
    ---------------------

    Doubly Occupied:

       1A    -15.603801     2A    -11.273416     3A    -11.268490
       4A    -11.235673     5A    -11.233953     6A    -11.232532
       7A    -11.228504     8A    -11.222990     9A    -11.218888
      10A     -1.296112    11A     -1.124475    12A     -1.055187
      13A     -0.997401    14A     -0.970772    15A     -0.844446
      16A     -0.804377    17A     -0.789163    18A     -0.728005
      19A     -0.664979    20A     -0.644889    21A     -0.604243
      22A     -0.599318    23A     -0.583488    24A     -0.573461
      25A     -0.546724    26A     -0.503758    27A     -0.489463
      28A     -0.461843    29A     -0.384804    30A     -0.302778
      31A     -0.279660

  @DF-RHF Final Energy:  -361.58539851849071

   => Energetics <=

    Nuclear Repulsion Energy =            399.4160601599639904
    One-Electron Energy =               -1280.4677305620591596
    Two-Electron Energy =                 519.4662718836044633
    Total Energy =                       -361.5853985184907060
  Basis Set: (AUG-CC-PVTZ AUX)
    Blend: AUG-CC-PVTZ-RI
    Molecular point group: c1

    Geometry (in Angstrom), charge = 0, multiplicity = 1:

       Center              X                  Y                   Z               Mass
    ------------   -----------------  -----------------  -----------------  -----------------
         N           -1.553757016718    -1.074437372512     0.000001924771    14.003074004430
         C            0.990805983282     1.436098627488    -0.000000075229    12.000000000000
         C            2.164799983282     0.696427627488     0.000001924771    12.000000000000
         C            2.142069983282    -0.716123372512    -0.000005075229    12.000000000000
         C            0.916832383282    -1.458689772512    -0.000000675229    12.000000000000
         C           -0.238794016718    -0.666485372512    -0.000000075229    12.000000000000
         C           -0.242862016718     0.757037627488     0.000014924771    12.000000000000
         C           -1.611323016718     1.172328627488    -0.000008075229    12.000000000000
         C           -2.379192016718     0.030763627488    -0.000005075229    12.000000000000
         H            1.021538983282     2.524232627488     0.000004924771     1.007825032230
         H            3.123395983282     1.210191627488    -0.000005075229     1.007825032230
         H            3.081222983282    -1.264601372512    -0.000005075229     1.007825032230
         H            0.927709983282    -2.506339372512    -0.000004075229     1.007825032230
         H           -1.988124016718     2.187277627488    -0.000013075229     1.007825032230
         H           -1.867545016718    -2.035739372512     0.000017924771     1.007825032230
         H           -3.455466016718    -0.086113372512     0.000003924771     1.007825032230

  Basis Set: AUG-CC-PVTZ
    Blend: AUG-CC-PVTZ
  Basis Set: (AUG-CC-PVTZ AUX)
    Blend: AUG-CC-PVTZ-JKFIT
	 Reference Energy          =    -361.5853985184907060 [Eh]
	 Singles Energy            =      -0.0000000000000000 [Eh]
	 Same-Spin Energy          =      -0.4081001336492906 [Eh]
	 Opposite-Spin Energy      =      -1.2483994521967288 [Eh]
	 Correlation Energy        =      -1.6564995858460194 [Eh]
	 Total Energy              =    -363.2418981043367125 [Eh]

	 ================> DF-SCS-MP2 Energies <==================
	-----------------------------------------------------------
	 SCS Same-Spin Scale       =       0.3333333333333333 [-]
	 SCS Opposite-Spin Scale   =       1.2000000000000000 [-]
	 SCS Same-Spin Energy      =      -0.1360333778830969 [Eh]
	 SCS Opposite-Spin Energy  =      -1.4980793426360746 [Eh]
	 SCS Correlation Energy    =      -1.6341127205191714 [Eh]
	 SCS Total Energy          =    -363.2195112390098757 [Eh]
	-----------------------------------------------------------

  Dipole Moment: [D]
     X:    -1.4966      Y:    -1.5422      Z:     0.0000     Total:     2.1490

*** Psi4 exiting successfully. Buy a developer a beer!
