                               Psi4 1.3.2 release

  ==> Input File <==

--------------------------------------------------------------------------
#psi4
#
memory 32 gb

molecule  {
0 1
  N       -1.5631460    -1.0786450     0.0000020
  C        0.9814170     1.4318910     0.0000000
  C        2.2538902     0.6871935     0.0000013
  C        2.1326810    -0.7203310    -0.0000050
  C        0.9343870    -1.4220840     0.0000000
  C       -0.2481830    -0.6706930     0.0000000
  C       -0.2522510     0.7528300     0.0000150
  C       -1.6207120     1.1681210    -0.0000080
  C       -2.3885810     0.0265560    -0.0000050
  H        1.0121500     2.5200250     0.0000050
  H        3.1140070     1.2059840    -0.0000050
  H        3.0718340    -1.2688090    -0.0000050
  H        0.9183210    -2.5105470    -0.0000040
  H       -1.9975130     2.1830700    -0.0000130
  H       -1.8769340    -2.0399470     0.0000180
  H       -3.4648550    -0.0903210     0.0000040
units angstrom
no_reorient  #important for SAPT in psi4, default
symmetry c1  #important for SAPT in psi4, default
}

set PROPERTIES_ORIGIN ["COM"]
properties('MP2/aug-cc-pvtz', properties = ['dipole'])
--------------------------------------------------------------------------

    Molecular point group: c1
  Charge       = 0
  Multiplicity = 1
  Basis Set: AUG-CC-PVTZ
    Blend: AUG-CC-PVTZ
  Basis Set: (AUG-CC-PVTZ AUX)
    Blend: AUG-CC-PVTZ-JKFIT

    Orbital Energies [Eh]
    ---------------------

    Doubly Occupied:

       1A    -15.605885     2A    -11.274967     3A    -11.270588
       4A    -11.241864     5A    -11.232697     6A    -11.231453
       7A    -11.229251     8A    -11.224394     9A    -11.220281
      10A     -1.297581    11A     -1.121004    12A     -1.056702
      13A     -0.993408    14A     -0.971664    15A     -0.847576
      16A     -0.805149    17A     -0.791132    18A     -0.725459
      19A     -0.672624    20A     -0.649455    21A     -0.599100
      22A     -0.592181    23A     -0.584433    24A     -0.576197
      25A     -0.550390    26A     -0.520263    27A     -0.474088
      28A     -0.458846    29A     -0.386577    30A     -0.299208
      31A     -0.281191

  @DF-RHF Final Energy:  -361.57543565014811

   => Energetics <=

    Nuclear Repulsion Energy =            398.4021237230345491
    One-Electron Energy =               -1278.3839009835846809
    Two-Electron Energy =                 518.4063416104021371
    Total Energy =                       -361.5754356501480515
  Basis Set: (AUG-CC-PVTZ AUX)
    Blend: AUG-CC-PVTZ-RI
    Molecular point group: c1

    Geometry (in Angstrom), charge = 0, multiplicity = 1:

       Center              X                  Y                   Z               Mass
    ------------   -----------------  -----------------  -----------------  -----------------
         N           -1.566614536397    -1.078106009880     0.000001935022    14.003074004430
         C            0.977948463603     1.432429990120    -0.000000064978    12.000000000000
         C            2.250421663603     0.687732490120     0.000001235022    12.000000000000
         C            2.129212463603    -0.719792009880    -0.000005064978    12.000000000000
         C            0.930918463603    -1.421545009880    -0.000000064978    12.000000000000
         C           -0.251651536397    -0.670154009880    -0.000000064978    12.000000000000
         C           -0.255719536397     0.753368990120     0.000014935022    12.000000000000
         C           -1.624180536397     1.168659990120    -0.000008064978    12.000000000000
         C           -2.392049536397     0.027094990120    -0.000005064978    12.000000000000
         H            1.008681463603     2.520563990120     0.000004935022     1.007825032230
         H            3.110538463603     1.206522990120    -0.000005064978     1.007825032230
         H            3.068365463603    -1.268270009880    -0.000005064978     1.007825032230
         H            0.914852463603    -2.510008009880    -0.000004064978     1.007825032230
         H           -2.000981536397     2.183608990120    -0.000013064978     1.007825032230
         H           -1.880402536397    -2.039408009880     0.000017935022     1.007825032230
         H           -3.468323536397    -0.089782009880     0.000003935022     1.007825032230

  Basis Set: AUG-CC-PVTZ
    Blend: AUG-CC-PVTZ
  Basis Set: (AUG-CC-PVTZ AUX)
    Blend: AUG-CC-PVTZ-JKFIT
	 Reference Energy          =    -361.5754356501481084 [Eh]
	 Singles Energy            =      -0.0000000000000000 [Eh]
	 Same-Spin Energy          =      -0.4080362764392772 [Eh]
	 Opposite-Spin Energy      =      -1.2489118201442384 [Eh]
	 Correlation Energy        =      -1.6569480965835157 [Eh]
	 Total Energy              =    -363.2323837467316139 [Eh]

	 ================> DF-SCS-MP2 Energies <==================
	-----------------------------------------------------------
	 SCS Same-Spin Scale       =       0.3333333333333333 [-]
	 SCS Opposite-Spin Scale   =       1.2000000000000000 [-]
	 SCS Same-Spin Energy      =      -0.1360120921464257 [Eh]
	 SCS Opposite-Spin Energy  =      -1.4986941841730861 [Eh]
	 SCS Correlation Energy    =      -1.6347062763195117 [Eh]
	 SCS Total Energy          =    -363.2101419264675997 [Eh]
	-----------------------------------------------------------

  Dipole Moment: [D]
     X:    -1.5443      Y:    -1.5370      Z:     0.0000     Total:     2.1788

*** Psi4 exiting successfully. Buy a developer a beer!
