                               Psi4 1.3.2 release

  ==> Input File <==

--------------------------------------------------------------------------
#psi4
#
memory 32 gb

molecule  {
0 1
  N       -1.5631460    -1.0786450     0.0000020
  C        0.9814170     1.4318910     0.0000000
  C        2.1554110     0.6922200     0.0000020
  C        2.1326810    -0.7203310    -0.0000050
  C        0.9343870    -1.4220840     0.0000000
  C       -0.2632214    -0.6250500    -0.0000003
  C       -0.2522510     0.7528300     0.0000150
  C       -1.6207120     1.1681210    -0.0000080
  C       -2.3885810     0.0265560    -0.0000050
  H        1.0121500     2.5200250     0.0000050
  H        3.1140070     1.2059840    -0.0000050
  H        3.0718340    -1.2688090    -0.0000050
  H        0.9183210    -2.5105470    -0.0000040
  H       -1.9975130     2.1830700    -0.0000130
  H       -1.8769340    -2.0399470     0.0000180
  H       -3.4648550    -0.0903210     0.0000040
units angstrom
no_reorient  #important for SAPT in psi4, default
symmetry c1  #important for SAPT in psi4, default
}

set PROPERTIES_ORIGIN ["COM"]
properties('MP2/aug-cc-pvtz', properties = ['dipole'])
--------------------------------------------------------------------------

    Molecular point group: c1
  Charge       = 0
  Multiplicity = 1
  Basis Set: AUG-CC-PVTZ
    Blend: AUG-CC-PVTZ
  Basis Set: (AUG-CC-PVTZ AUX)
    Blend: AUG-CC-PVTZ-JKFIT

    Orbital Energies [Eh]
    ---------------------

    Doubly Occupied:

       1A    -15.604276     2A    -11.270763     3A    -11.265539
       4A    -11.237360     5A    -11.232957     6A    -11.230912
       7A    -11.222936     8A    -11.221927     9A    -11.217459
      10A     -1.297952    11A     -1.129449    12A     -1.055484
      13A     -0.995096    14A     -0.974405    15A     -0.843180
      16A     -0.803844    17A     -0.788241    18A     -0.729179
      19A     -0.661037    20A     -0.647583    21A     -0.603488
      22A     -0.592891    23A     -0.585231    24A     -0.572955
      25A     -0.549833    26A     -0.506220    27A     -0.486929
      28A     -0.464907    29A     -0.382220    30A     -0.302633
      31A     -0.285433

  @DF-RHF Final Energy:  -361.58720965097547

   => Energetics <=

    Nuclear Repulsion Energy =            400.4190083734686709
    One-Electron Energy =               -1282.4878049776809803
    Two-Electron Energy =                 520.4815869532368424
    Total Energy =                       -361.5872096509755238
  Basis Set: (AUG-CC-PVTZ AUX)
    Blend: AUG-CC-PVTZ-RI
    Molecular point group: c1

    Geometry (in Angstrom), charge = 0, multiplicity = 1:

       Center              X                  Y                   Z               Mass
    ------------   -----------------  -----------------  -----------------  -----------------
         N           -1.554977459439    -1.083300313415     0.000001894017    14.003074004430
         C            0.989585540561     1.427235686585    -0.000000105983    12.000000000000
         C            2.163579540561     0.687564686585     0.000001894017    12.000000000000
         C            2.140849540561    -0.724986313415    -0.000005105983    12.000000000000
         C            0.942555540561    -1.426739313415    -0.000000105983    12.000000000000
         C           -0.255052859439    -0.629705313415    -0.000000405983    12.000000000000
         C           -0.244082459439     0.748174686585     0.000014894017    12.000000000000
         C           -1.612543459439     1.163465686585    -0.000008105983    12.000000000000
         C           -2.380412459439     0.021900686585    -0.000005105983    12.000000000000
         H            1.020318540561     2.515369686585     0.000004894017     1.007825032230
         H            3.122175540561     1.201328686585    -0.000005105983     1.007825032230
         H            3.080002540561    -1.273464313415    -0.000005105983     1.007825032230
         H            0.926489540561    -2.515202313415    -0.000004105983     1.007825032230
         H           -1.989344459439     2.178414686585    -0.000013105983     1.007825032230
         H           -1.868765459439    -2.044602313415     0.000017894017     1.007825032230
         H           -3.456686459439    -0.094976313415     0.000003894017     1.007825032230

  Basis Set: AUG-CC-PVTZ
    Blend: AUG-CC-PVTZ
  Basis Set: (AUG-CC-PVTZ AUX)
    Blend: AUG-CC-PVTZ-JKFIT
	 Reference Energy          =    -361.5872096509754670 [Eh]
	 Singles Energy            =      -0.0000000000000000 [Eh]
	 Same-Spin Energy          =      -0.4073679607365256 [Eh]
	 Opposite-Spin Energy      =      -1.2476057631061153 [Eh]
	 Correlation Energy        =      -1.6549737238426410 [Eh]
	 Total Energy              =    -363.2421833748181257 [Eh]

	 ================> DF-SCS-MP2 Energies <==================
	-----------------------------------------------------------
	 SCS Same-Spin Scale       =       0.3333333333333333 [-]
	 SCS Opposite-Spin Scale   =       1.2000000000000000 [-]
	 SCS Same-Spin Energy      =      -0.1357893202455085 [Eh]
	 SCS Opposite-Spin Energy  =      -1.4971269157273384 [Eh]
	 SCS Correlation Energy    =      -1.6329162359728469 [Eh]
	 SCS Total Energy          =    -363.2201258869483240 [Eh]
	-----------------------------------------------------------

  Dipole Moment: [D]
     X:    -1.4055      Y:    -1.5708      Z:     0.0000     Total:     2.1078

*** Psi4 exiting successfully. Buy a developer a beer!
