                               Psi4 1.3.2 release

  ==> Input File <==

--------------------------------------------------------------------------
#psi4
#
memory 32 gb

molecule  {
0 1
  N       -1.5631460    -1.0786450     0.0000020
  C        0.9310429     1.5162932     0.0000018
  C        2.1554110     0.6922200     0.0000020
  C        2.1326810    -0.7203310    -0.0000050
  C        0.9343870    -1.4220840     0.0000000
  C       -0.2481830    -0.6706930     0.0000000
  C       -0.2522510     0.7528300     0.0000150
  C       -1.6207120     1.1681210    -0.0000080
  C       -2.3885810     0.0265560    -0.0000050
  H        1.0121500     2.5200250     0.0000050
  H        3.1140070     1.2059840    -0.0000050
  H        3.0718340    -1.2688090    -0.0000050
  H        0.9183210    -2.5105470    -0.0000040
  H       -1.9975130     2.1830700    -0.0000130
  H       -1.8769340    -2.0399470     0.0000180
  H       -3.4648550    -0.0903210     0.0000040
units angstrom
no_reorient  #important for SAPT in psi4, default
symmetry c1  #important for SAPT in psi4, default
}

set PROPERTIES_ORIGIN ["COM"]
properties('MP2/aug-cc-pvtz', properties = ['dipole'])
--------------------------------------------------------------------------

    Molecular point group: c1
  Charge       = 0
  Multiplicity = 1
  Basis Set: AUG-CC-PVTZ
    Blend: AUG-CC-PVTZ
  Basis Set: (AUG-CC-PVTZ AUX)
    Blend: AUG-CC-PVTZ-JKFIT

    Orbital Energies [Eh]
    ---------------------

    Doubly Occupied:

       1A    -15.605021     2A    -11.273522     3A    -11.269510
       4A    -11.234816     5A    -11.234140     6A    -11.231811
       7A    -11.230425     8A    -11.230364     9A    -11.216543
      10A     -1.296607    11A     -1.121156    12A     -1.057635
      13A     -0.987988    14A     -0.974903    15A     -0.847797
      16A     -0.803675    17A     -0.785238    18A     -0.736192
      19A     -0.663833    20A     -0.641646    21A     -0.610066
      22A     -0.599486    23A     -0.583908    24A     -0.572892
      25A     -0.550487    26A     -0.505357    27A     -0.483293
      28A     -0.458541    29A     -0.387002    30A     -0.295938
      31A     -0.281637

  @DF-RHF Final Energy:  -361.57528869343787

   => Energetics <=

    Nuclear Repulsion Energy =            398.7977318570773946
    One-Electron Energy =               -1279.2031824556120227
    Two-Electron Energy =                 518.8301619050967020
    Total Energy =                       -361.5752886934378694
  Basis Set: (AUG-CC-PVTZ AUX)
    Blend: AUG-CC-PVTZ-RI
    Molecular point group: c1

    Geometry (in Angstrom), charge = 0, multiplicity = 1:

       Center              X                  Y                   Z               Mass
    ------------   -----------------  -----------------  -----------------  -----------------
         N           -1.551355076123    -1.087273651410     0.000001678739    14.003074004430
         C            0.942833823877     1.507664548590     0.000001478739    12.000000000000
         C            2.167201923877     0.683591348590     0.000001678739    12.000000000000
         C            2.144471923877    -0.728959651410    -0.000005321261    12.000000000000
         C            0.946177923877    -1.430712651410    -0.000000321261    12.000000000000
         C           -0.236392076123    -0.679321651410    -0.000000321261    12.000000000000
         C           -0.240460076123     0.744201348590     0.000014678739    12.000000000000
         C           -1.608921076123     1.159492348590    -0.000008321261    12.000000000000
         C           -2.376790076123     0.017927348590    -0.000005321261    12.000000000000
         H            1.023940923877     2.511396348590     0.000004678739     1.007825032230
         H            3.125797923877     1.197355348590    -0.000005321261     1.007825032230
         H            3.083624923877    -1.277437651410    -0.000005321261     1.007825032230
         H            0.930111923877    -2.519175651410    -0.000004321261     1.007825032230
         H           -1.985722076123     2.174441348590    -0.000013321261     1.007825032230
         H           -1.865143076123    -2.048575651410     0.000017678739     1.007825032230
         H           -3.453064076123    -0.098949651410     0.000003678739     1.007825032230

  Basis Set: AUG-CC-PVTZ
    Blend: AUG-CC-PVTZ
  Basis Set: (AUG-CC-PVTZ AUX)
    Blend: AUG-CC-PVTZ-JKFIT
	 Reference Energy          =    -361.5752886934378694 [Eh]
	 Singles Energy            =      -0.0000000000000000 [Eh]
	 Same-Spin Energy          =      -0.4082737337574454 [Eh]
	 Opposite-Spin Energy      =      -1.2492776965081307 [Eh]
	 Correlation Energy        =      -1.6575514302655761 [Eh]
	 Total Energy              =    -363.2328401237034541 [Eh]

	 ================> DF-SCS-MP2 Energies <==================
	-----------------------------------------------------------
	 SCS Same-Spin Scale       =       0.3333333333333333 [-]
	 SCS Opposite-Spin Scale   =       1.2000000000000000 [-]
	 SCS Same-Spin Energy      =      -0.1360912445858151 [Eh]
	 SCS Opposite-Spin Energy  =      -1.4991332358097569 [Eh]
	 SCS Correlation Energy    =      -1.6352244803955720 [Eh]
	 SCS Total Energy          =    -363.2105131738334194 [Eh]
	-----------------------------------------------------------

  Dipole Moment: [D]
     X:    -1.4883      Y:    -1.5270      Z:     0.0000     Total:     2.1323

*** Psi4 exiting successfully. Buy a developer a beer!
