                               Psi4 1.3.2 release

  ==> Input File <==

--------------------------------------------------------------------------
#psi4
#
memory 32 gb

molecule  {
0 1
  N       -1.5631460    -1.0786450     0.0000020
  C        0.9814170     1.4318910     0.0000000
  C        2.1554110     0.6922200     0.0000020
  C        2.1326810    -0.7203310    -0.0000050
  C        0.9343870    -1.4220840     0.0000000
  C       -0.2481830    -0.6706930     0.0000000
  C       -0.2522510     0.7528300     0.0000150
  C       -1.6207120     1.1681210    -0.0000080
  C       -2.3885810     0.0265560    -0.0000050
  H        1.0121500     2.5200250     0.0000050
  H        3.1140070     1.2059840    -0.0000050
  H        3.0718340    -1.2688090    -0.0000050
  H        0.9153693    -2.7105252    -0.0000047
  H       -1.9975130     2.1830700    -0.0000130
  H       -1.8769340    -2.0399470     0.0000180
  H       -3.4648550    -0.0903210     0.0000040
units angstrom
no_reorient  #important for SAPT in psi4, default
symmetry c1  #important for SAPT in psi4, default
}

set PROPERTIES_ORIGIN ["COM"]
properties('MP2/aug-cc-pvtz', properties = ['dipole'])
--------------------------------------------------------------------------

    Molecular point group: c1
  Charge       = 0
  Multiplicity = 1
  Basis Set: AUG-CC-PVTZ
    Blend: AUG-CC-PVTZ
  Basis Set: (AUG-CC-PVTZ AUX)
    Blend: AUG-CC-PVTZ-JKFIT

    Orbital Energies [Eh]
    ---------------------

    Doubly Occupied:

       1A    -15.606257     2A    -11.274051     3A    -11.269713
       4A    -11.255257     5A    -11.232859     6A    -11.232787
       7A    -11.229146     8A    -11.224212     9A    -11.219674
      10A     -1.296993    11A     -1.129389    12A     -1.055269
      13A     -0.995752    14A     -0.974342    15A     -0.837997
      16A     -0.807419    17A     -0.787316    18A     -0.721613
      19A     -0.659208    20A     -0.641555    21A     -0.602408
      22A     -0.585015    23A     -0.576576    24A     -0.571957
      25A     -0.551439    26A     -0.509161    27A     -0.471902
      28A     -0.466404    29A     -0.387284    30A     -0.302968
      31A     -0.284086

  @DF-RHF Final Energy:  -361.56704495978107

   => Energetics <=

    Nuclear Repulsion Energy =            399.0870917136888920
    One-Electron Energy =               -1279.7882568719439860
    Two-Electron Energy =                 519.1341201984739655
    Total Energy =                       -361.5670449597811285
  Basis Set: (AUG-CC-PVTZ AUX)
    Blend: AUG-CC-PVTZ-RI
    Molecular point group: c1

    Geometry (in Angstrom), charge = 0, multiplicity = 1:

       Center              X                  Y                   Z               Mass
    ------------   -----------------  -----------------  -----------------  -----------------
         N           -1.556493684143    -1.076899554809     0.000001869290    14.003074004430
         C            0.988069315857     1.433636445191    -0.000000130710    12.000000000000
         C            2.162063315857     0.693965445191     0.000001869290    12.000000000000
         C            2.139333315857    -0.718585554809    -0.000005130710    12.000000000000
         C            0.941039315857    -1.420338554809    -0.000000130710    12.000000000000
         C           -0.241530684143    -0.668947554809    -0.000000130710    12.000000000000
         C           -0.245598684143     0.754575445191     0.000014869290    12.000000000000
         C           -1.614059684143     1.169866445191    -0.000008130710    12.000000000000
         C           -2.381928684143     0.028301445191    -0.000005130710    12.000000000000
         H            1.018802315857     2.521770445191     0.000004869290     1.007825032230
         H            3.120659315857     1.207729445191    -0.000005130710     1.007825032230
         H            3.078486315857    -1.267063554809    -0.000005130710     1.007825032230
         H            0.922021615857    -2.708779754809    -0.000004830710     1.007825032230
         H           -1.990860684143     2.184815445191    -0.000013130710     1.007825032230
         H           -1.870281684143    -2.038201554809     0.000017869290     1.007825032230
         H           -3.458202684143    -0.088575554809     0.000003869290     1.007825032230

  Basis Set: AUG-CC-PVTZ
    Blend: AUG-CC-PVTZ
  Basis Set: (AUG-CC-PVTZ AUX)
    Blend: AUG-CC-PVTZ-JKFIT
	 Reference Energy          =    -361.5670449597810716 [Eh]
	 Singles Energy            =      -0.0000000000000000 [Eh]
	 Same-Spin Energy          =      -0.4085014597118246 [Eh]
	 Opposite-Spin Energy      =      -1.2500417733772919 [Eh]
	 Correlation Energy        =      -1.6585432330891166 [Eh]
	 Total Energy              =    -363.2255881928701911 [Eh]

	 ================> DF-SCS-MP2 Energies <==================
	-----------------------------------------------------------
	 SCS Same-Spin Scale       =       0.3333333333333333 [-]
	 SCS Opposite-Spin Scale   =       1.2000000000000000 [-]
	 SCS Same-Spin Energy      =      -0.1361671532372749 [Eh]
	 SCS Opposite-Spin Energy  =      -1.5000501280527503 [Eh]
	 SCS Correlation Energy    =      -1.6362172812900251 [Eh]
	 SCS Total Energy          =    -363.2032622410711156 [Eh]
	-----------------------------------------------------------

  Dipole Moment: [D]
     X:    -1.4943      Y:    -1.4336      Z:     0.0000     Total:     2.0708

*** Psi4 exiting successfully. Buy a developer a beer!
