                               Psi4 1.3.2 release

  ==> Input File <==

--------------------------------------------------------------------------
#psi4
#
memory 32 gb

molecule  {
0 1
  N       -1.5631460    -1.0786450     0.0000020
  C        0.9814170     1.4318910     0.0000000
  C        2.1554110     0.6922200     0.0000020
  C        2.1326810    -0.7203310    -0.0000050
  C        0.9598898    -1.3803552     0.0000006
  C       -0.2481830    -0.6706930     0.0000000
  C       -0.2522510     0.7528300     0.0000150
  C       -1.6207120     1.1681210    -0.0000080
  C       -2.3885810     0.0265560    -0.0000050
  H        1.0121500     2.5200250     0.0000050
  H        3.1140070     1.2059840    -0.0000050
  H        3.0718340    -1.2688090    -0.0000050
  H        0.9183210    -2.5105470    -0.0000040
  H       -1.9975130     2.1830700    -0.0000130
  H       -1.8769340    -2.0399470     0.0000180
  H       -3.4648550    -0.0903210     0.0000040
units angstrom
no_reorient  #important for SAPT in psi4, default
symmetry c1  #important for SAPT in psi4, default
}

set PROPERTIES_ORIGIN ["COM"]
properties('MP2/aug-cc-pvtz', properties = ['dipole'])
--------------------------------------------------------------------------

    Molecular point group: c1
  Charge       = 0
  Multiplicity = 1
  Basis Set: AUG-CC-PVTZ
    Blend: AUG-CC-PVTZ
  Basis Set: (AUG-CC-PVTZ AUX)
    Blend: AUG-CC-PVTZ-JKFIT

    Orbital Energies [Eh]
    ---------------------

    Doubly Occupied:

       1A    -15.607687     2A    -11.273047     3A    -11.266168
       4A    -11.232923     5A    -11.230933     6A    -11.226195
       7A    -11.225328     8A    -11.221918     9A    -11.218810
      10A     -1.296542    11A     -1.133290    12A     -1.057054
      13A     -0.995586    14A     -0.978052    15A     -0.840534
      16A     -0.808290    17A     -0.787634    18A     -0.727313
      19A     -0.660325    20A     -0.649490    21A     -0.602217
      22A     -0.587848    23A     -0.584770    24A     -0.575457
      25A     -0.553224    26A     -0.510553    27A     -0.474263
      28A     -0.468616    29A     -0.387496    30A     -0.300487
      31A     -0.286320

  @DF-RHF Final Energy:  -361.58657490423633

   => Energetics <=

    Nuclear Repulsion Energy =            400.6315363787855404
    One-Electron Energy =               -1282.8994768355667020
    Two-Electron Energy =                 520.6813655525447757
    Total Energy =                       -361.5865749042363859
  Basis Set: (AUG-CC-PVTZ AUX)
    Blend: AUG-CC-PVTZ-RI
    Molecular point group: c1

    Geometry (in Angstrom), charge = 0, multiplicity = 1:

       Center              X                  Y                   Z               Mass
    ------------   -----------------  -----------------  -----------------  -----------------
         N           -1.559133476342    -1.082899055402     0.000001801755    14.003074004430
         C            0.985429523658     1.427636944598    -0.000000198245    12.000000000000
         C            2.159423523658     0.687965944598     0.000001801755    12.000000000000
         C            2.136693523658    -0.724585055402    -0.000005198245    12.000000000000
         C            0.963902323658    -1.384609255402     0.000000401755    12.000000000000
         C           -0.244170476342    -0.674947055402    -0.000000198245    12.000000000000
         C           -0.248238476342     0.748575944598     0.000014801755    12.000000000000
         C           -1.616699476342     1.163866944598    -0.000008198245    12.000000000000
         C           -2.384568476342     0.022301944598    -0.000005198245    12.000000000000
         H            1.016162523658     2.515770944598     0.000004801755     1.007825032230
         H            3.118019523658     1.201729944598    -0.000005198245     1.007825032230
         H            3.075846523658    -1.273063055402    -0.000005198245     1.007825032230
         H            0.922333523658    -2.514801055402    -0.000004198245     1.007825032230
         H           -1.993500476342     2.178815944598    -0.000013198245     1.007825032230
         H           -1.872921476342    -2.044201055402     0.000017801755     1.007825032230
         H           -3.460842476342    -0.094575055402     0.000003801755     1.007825032230

  Basis Set: AUG-CC-PVTZ
    Blend: AUG-CC-PVTZ
  Basis Set: (AUG-CC-PVTZ AUX)
    Blend: AUG-CC-PVTZ-JKFIT
	 Reference Energy          =    -361.5865749042363291 [Eh]
	 Singles Energy            =      -0.0000000000000000 [Eh]
	 Same-Spin Energy          =      -0.4079429166356410 [Eh]
	 Opposite-Spin Energy      =      -1.2477073402231109 [Eh]
	 Correlation Energy        =      -1.6556502568587519 [Eh]
	 Total Energy              =    -363.2422251610950639 [Eh]

	 ================> DF-SCS-MP2 Energies <==================
	-----------------------------------------------------------
	 SCS Same-Spin Scale       =       0.3333333333333333 [-]
	 SCS Opposite-Spin Scale   =       1.2000000000000000 [-]
	 SCS Same-Spin Energy      =      -0.1359809722118803 [Eh]
	 SCS Opposite-Spin Energy  =      -1.4972488082677331 [Eh]
	 SCS Correlation Energy    =      -1.6332297804796134 [Eh]
	 SCS Total Energy          =    -363.2198046847159389 [Eh]
	-----------------------------------------------------------

  Dipole Moment: [D]
     X:    -1.4750      Y:    -1.5375      Z:     0.0000     Total:     2.1306

*** Psi4 exiting successfully. Buy a developer a beer!
