                               Psi4 1.4a3.dev225

  ==> Input File <==

--------------------------------------------------------------------------
#psi4
#
memory 32 gb

molecule  {
0 1
  N       -1.5630850    -1.0784890    -0.0000040
  C        0.9811620     1.4317850    -0.0000050
  C        2.1553110     0.6923450     0.0000000
  C        2.1328040    -0.7200770     0.0000000
  C        0.9346070    -1.4219960     0.0000040
  C       -0.2479390    -0.6706250     0.0000000
  C       -0.2524439     0.8024288     0.0000031
  C       -1.6208000     1.1677860     0.0000050
  C       -2.3888340     0.0267020    -0.0000020
  H        1.0113780     2.5197500    -0.0000020
  H        3.1138040     1.2059540    -0.0000050
  H        3.0720020    -1.2682500     0.0000030
  H        0.9188940    -2.5102320     0.0000020
  H       -1.9966350     2.1828910     0.0000100
  H       -1.8770410    -2.0396260     0.0000000
  H       -3.4649170    -0.0911630    -0.0000050
units angstrom
no_reorient  #important for SAPT in psi4, default
symmetry c1  #important for SAPT in psi4, default
}

set PROPERTIES_ORIGIN ["COM"]
properties('MP2/aug-cc-pvtz', properties = ['dipole'])
--------------------------------------------------------------------------

    Molecular point group: c1
  Charge       = 0
  Multiplicity = 1
  Basis Set: AUG-CC-PVTZ
    Blend: AUG-CC-PVTZ
  Basis Set: (AUG-CC-PVTZ AUX)
    Blend: AUG-CC-PVTZ-JKFIT

    Orbital Energies [Eh]
    ---------------------

    Doubly Occupied:

       1A    -15.608268     2A    -11.274813     3A    -11.272243
       4A    -11.232522     5A    -11.230242     6A    -11.230210
       7A    -11.228785     8A    -11.221928     9A    -11.219557
      10A     -1.295271    11A     -1.127786    12A     -1.059098
      13A     -0.994445    14A     -0.975127    15A     -0.842251
      16A     -0.809963    17A     -0.787370    18A     -0.725424
      19A     -0.665368    20A     -0.648025    21A     -0.602074
      22A     -0.594853    23A     -0.582807    24A     -0.573849
      25A     -0.550126    26A     -0.513075    27A     -0.473293
      28A     -0.465364    29A     -0.391591    30A     -0.297989
      31A     -0.282149

  @DF-RHF Final Energy:  -361.58504935226006

   => Energetics <=

    Nuclear Repulsion Energy =            399.4999777045497353
    One-Electron Energy =               -1280.6183195463977427
    Two-Electron Energy =                 519.5332924895878932
    Total Energy =                       -361.5850493522600573
  Basis Set: (AUG-CC-PVTZ AUX)
    Blend: AUG-CC-PVTZ-RI
    Molecular point group: c1

    Geometry (in Angstrom), charge = 0, multiplicity = 1:

       Center              X                  Y                   Z               Mass
    ------------   -----------------  -----------------  -----------------  -----------------
         N           -1.556438535110    -1.083591972883    -0.000004070146    14.003074004430
         C            0.987808464890     1.426682027117    -0.000005070146    12.000000000000
         C            2.161957464890     0.687242027117    -0.000000070146    12.000000000000
         C            2.139450464890    -0.725179972883    -0.000000070146    12.000000000000
         C            0.941253464890    -1.427098972883     0.000003929854    12.000000000000
         C           -0.241292535110    -0.675727972883    -0.000000070146    12.000000000000
         C           -0.245797435110     0.797325827117     0.000003029854    12.000000000000
         C           -1.614153535110     1.162683027117     0.000004929854    12.000000000000
         C           -2.382187535110     0.021599027117    -0.000002070146    12.000000000000
         H            1.018024464890     2.514647027117    -0.000002070146     1.007825032230
         H            3.120450464890     1.200851027117    -0.000005070146     1.007825032230
         H            3.078648464890    -1.273352972883     0.000002929854     1.007825032230
         H            0.925540464890    -2.515334972883     0.000001929854     1.007825032230
         H           -1.989988535110     2.177788027117     0.000009929854     1.007825032230
         H           -1.870394535110    -2.044728972883    -0.000000070146     1.007825032230
         H           -3.458270535110    -0.096265972883    -0.000005070146     1.007825032230

  Basis Set: AUG-CC-PVTZ
    Blend: AUG-CC-PVTZ
  Basis Set: (AUG-CC-PVTZ AUX)
    Blend: AUG-CC-PVTZ-JKFIT
	 Reference Energy          =    -361.5850493522600573 [Eh]
	 Singles Energy            =      -0.0000000000000000 [Eh]
	 Same-Spin Energy          =      -0.4086748159824125 [Eh]
	 Opposite-Spin Energy      =      -1.2485889869348046 [Eh]
	 Correlation Energy        =      -1.6572638029172171 [Eh]
	 Total Energy              =    -363.2423131551772713 [Eh]

	 ================> DF-SCS-MP2 Energies <==================
	-----------------------------------------------------------
	 SCS Same-Spin Scale       =       0.3333333333333333 [-]
	 SCS Opposite-Spin Scale   =       1.2000000000000000 [-]
	 SCS Same-Spin Energy      =      -0.1362249386608042 [Eh]
	 SCS Opposite-Spin Energy  =      -1.4983067843217655 [Eh]
	 SCS Correlation Energy    =      -1.6345317229825695 [Eh]
	 SCS Total Energy          =    -363.2195810752426155 [Eh]
	-----------------------------------------------------------

  Dipole Moment: [D]
     X:    -1.5611      Y:    -1.5951      Z:     0.0000     Total:     2.2319

*** Psi4 exiting successfully. Buy a developer a beer!
