                               Psi4 1.3.2 release

  ==> Input File <==

--------------------------------------------------------------------------
#psi4
#
memory 32 gb

molecule  {
0 1
  N       -1.5631460    -1.0786450     0.0000020
  C        0.9814170     1.4318910     0.0000000
  C        2.1554110     0.6922200     0.0000020
  C        2.1326810    -0.7203310    -0.0000050
  C        0.9343870    -1.4220840     0.0000000
  C       -0.2481830    -0.6706930     0.0000000
  C       -0.2522510     0.7528300     0.0000150
  C       -1.6207120     1.1681210    -0.0000080
  C       -2.3885810     0.0265560    -0.0000050
  H        1.0065035     2.3201047     0.0000041
  H        3.1140070     1.2059840    -0.0000050
  H        3.0718340    -1.2688090    -0.0000050
  H        0.9183210    -2.5105470    -0.0000040
  H       -1.9975130     2.1830700    -0.0000130
  H       -1.8769340    -2.0399470     0.0000180
  H       -3.4648550    -0.0903210     0.0000040
units angstrom
no_reorient  #important for SAPT in psi4, default
symmetry c1  #important for SAPT in psi4, default
}

set PROPERTIES_ORIGIN ["COM"]
properties('MP2/aug-cc-pvtz', properties = ['dipole'])
--------------------------------------------------------------------------

    Molecular point group: c1
  Charge       = 0
  Multiplicity = 1
  Basis Set: AUG-CC-PVTZ
    Blend: AUG-CC-PVTZ
  Basis Set: (AUG-CC-PVTZ AUX)
    Blend: AUG-CC-PVTZ-JKFIT

    Orbital Energies [Eh]
    ---------------------

    Doubly Occupied:

       1A    -15.605216     2A    -11.272937     3A    -11.265937
       4A    -11.233178     5A    -11.229328     6A    -11.225892
       7A    -11.221319     8A    -11.218480     9A    -11.207331
      10A     -1.295698    11A     -1.130006    12A     -1.057008
      13A     -1.001762    14A     -0.977031    15A     -0.852644
      16A     -0.805638    17A     -0.789599    18A     -0.745950
      19A     -0.668157    20A     -0.646883    21A     -0.614757
      22A     -0.600744    23A     -0.583402    24A     -0.574358
      25A     -0.549916    26A     -0.507111    27A     -0.489763
      28A     -0.464055    29A     -0.385585    30A     -0.300752
      31A     -0.282491

  @DF-RHF Final Energy:  -361.55500781711777

   => Energetics <=

    Nuclear Repulsion Energy =            401.1606488647781248
    One-Electron Energy =               -1283.8254601236769759
    Two-Electron Energy =                 521.1098034417810823
    Total Energy =                       -361.5550078171178257
  Basis Set: (AUG-CC-PVTZ AUX)
    Blend: AUG-CC-PVTZ-RI
    Molecular point group: c1

    Geometry (in Angstrom), charge = 0, multiplicity = 1:

       Center              X                  Y                   Z               Mass
    ------------   -----------------  -----------------  -----------------  -----------------
         N           -1.556470482906    -1.076900053307     0.000001871012    14.003074004430
         C            0.988092517094     1.433635946693    -0.000000128988    12.000000000000
         C            2.162086517094     0.693964946693     0.000001871012    12.000000000000
         C            2.139356517094    -0.718586053307    -0.000005128988    12.000000000000
         C            0.941062517094    -1.420339053307    -0.000000128988    12.000000000000
         C           -0.241507482906    -0.668948053307    -0.000000128988    12.000000000000
         C           -0.245575482906     0.754574946693     0.000014871012    12.000000000000
         C           -1.614036482906     1.169865946693    -0.000008128988    12.000000000000
         C           -2.381905482906     0.028300946693    -0.000005128988    12.000000000000
         H            1.013179017094     2.321849646693     0.000003971012     1.007825032230
         H            3.120682517094     1.207728946693    -0.000005128988     1.007825032230
         H            3.078509517094    -1.267064053307    -0.000005128988     1.007825032230
         H            0.924996517094    -2.508802053307    -0.000004128988     1.007825032230
         H           -1.990837482906     2.184814946693    -0.000013128988     1.007825032230
         H           -1.870258482906    -2.038202053307     0.000017871012     1.007825032230
         H           -3.458179482906    -0.088576053307     0.000003871012     1.007825032230

  Basis Set: AUG-CC-PVTZ
    Blend: AUG-CC-PVTZ
  Basis Set: (AUG-CC-PVTZ AUX)
    Blend: AUG-CC-PVTZ-JKFIT
	 Reference Energy          =    -361.5550078171177688 [Eh]
	 Singles Energy            =      -0.0000000000000000 [Eh]
	 Same-Spin Energy          =      -0.4077843758976314 [Eh]
	 Opposite-Spin Energy      =      -1.2473854867036975 [Eh]
	 Correlation Energy        =      -1.6551698626013289 [Eh]
	 Total Energy              =    -363.2101776797190951 [Eh]

	 ================> DF-SCS-MP2 Energies <==================
	-----------------------------------------------------------
	 SCS Same-Spin Scale       =       0.3333333333333333 [-]
	 SCS Opposite-Spin Scale   =       1.2000000000000000 [-]
	 SCS Same-Spin Energy      =      -0.1359281252992104 [Eh]
	 SCS Opposite-Spin Energy  =      -1.4968625840444370 [Eh]
	 SCS Correlation Energy    =      -1.6327907093436473 [Eh]
	 SCS Total Energy          =    -363.1877985264613926 [Eh]
	-----------------------------------------------------------

  Dipole Moment: [D]
     X:    -1.4717      Y:    -1.5013      Z:     0.0000     Total:     2.1023

*** Psi4 exiting successfully. Buy a developer a beer!
