                               Psi4 1.3.2 release

  ==> Input File <==

--------------------------------------------------------------------------
#psi4
#
memory 32 gb

molecule  {
0 1
  N       -1.5314855    -1.1693784     0.0000021
  C        0.9814170     1.4318910     0.0000000
  C        2.1554110     0.6922200     0.0000020
  C        2.1326810    -0.7203310    -0.0000050
  C        0.9343870    -1.4220840     0.0000000
  C       -0.2481830    -0.6706930     0.0000000
  C       -0.2522510     0.7528300     0.0000150
  C       -1.6207120     1.1681210    -0.0000080
  C       -2.3885810     0.0265560    -0.0000050
  H        1.0121500     2.5200250     0.0000050
  H        3.1140070     1.2059840    -0.0000050
  H        3.0718340    -1.2688090    -0.0000050
  H        0.9183210    -2.5105470    -0.0000040
  H       -1.9975130     2.1830700    -0.0000130
  H       -1.8769340    -2.0399470     0.0000180
  H       -3.4648550    -0.0903210     0.0000040
units angstrom
no_reorient  #important for SAPT in psi4, default
symmetry c1  #important for SAPT in psi4, default
}

set PROPERTIES_ORIGIN ["COM"]
properties('MP2/aug-cc-pvtz', properties = ['dipole'])
--------------------------------------------------------------------------

    Molecular point group: c1
  Charge       = 0
  Multiplicity = 1
  Basis Set: AUG-CC-PVTZ
    Blend: AUG-CC-PVTZ
  Basis Set: (AUG-CC-PVTZ AUX)
    Blend: AUG-CC-PVTZ-JKFIT

    Orbital Energies [Eh]
    ---------------------

    Doubly Occupied:

       1A    -15.596738     2A    -11.279183     3A    -11.271718
       4A    -11.234032     5A    -11.231513     6A    -11.230210
       7A    -11.229764     8A    -11.228644     9A    -11.222082
      10A     -1.279052    11A     -1.128078    12A     -1.063705
      13A     -0.996994    14A     -0.971750    15A     -0.841561
      16A     -0.817032    17A     -0.783790    18A     -0.730637
      19A     -0.662648    20A     -0.646233    21A     -0.602772
      22A     -0.592086    23A     -0.577797    24A     -0.573872
      25A     -0.545895    26A     -0.506949    27A     -0.486282
      28A     -0.460421    29A     -0.391716    30A     -0.299040
      31A     -0.287884

  @DF-RHF Final Energy:  -361.57669478916898

   => Energetics <=

    Nuclear Repulsion Energy =            398.6959353483997575
    One-Electron Energy =               -1279.0051017597807004
    Two-Electron Energy =                 518.7324716222119605
    Total Energy =                       -361.5766947891689824
  Basis Set: (AUG-CC-PVTZ AUX)
    Blend: AUG-CC-PVTZ-RI
    Molecular point group: c1

    Geometry (in Angstrom), charge = 0, multiplicity = 1:

       Center              X                  Y                   Z               Mass
    ------------   -----------------  -----------------  -----------------  -----------------
         N           -1.528645992294    -1.158500688275     0.000001951300    14.003074004430
         C            0.984256507706     1.442768711725    -0.000000148700    12.000000000000
         C            2.158250507706     0.703097711725     0.000001851300    12.000000000000
         C            2.135520507706    -0.709453288275    -0.000005148700    12.000000000000
         C            0.937226507706    -1.411206288275    -0.000000148700    12.000000000000
         C           -0.245343492294    -0.659815288275    -0.000000148700    12.000000000000
         C           -0.249411492294     0.763707711725     0.000014851300    12.000000000000
         C           -1.617872492294     1.178998711725    -0.000008148700    12.000000000000
         C           -2.385741492294     0.037433711725    -0.000005148700    12.000000000000
         H            1.014989507706     2.530902711725     0.000004851300     1.007825032230
         H            3.116846507706     1.216861711725    -0.000005148700     1.007825032230
         H            3.074673507706    -1.257931288275    -0.000005148700     1.007825032230
         H            0.921160507706    -2.499669288275    -0.000004148700     1.007825032230
         H           -1.994673492294     2.193947711725    -0.000013148700     1.007825032230
         H           -1.874094492294    -2.029069288275     0.000017851300     1.007825032230
         H           -3.462015492294    -0.079443288275     0.000003851300     1.007825032230

  Basis Set: AUG-CC-PVTZ
    Blend: AUG-CC-PVTZ
  Basis Set: (AUG-CC-PVTZ AUX)
    Blend: AUG-CC-PVTZ-JKFIT
	 Reference Energy          =    -361.5766947891689824 [Eh]
	 Singles Energy            =      -0.0000000000000000 [Eh]
	 Same-Spin Energy          =      -0.4069894630571141 [Eh]
	 Opposite-Spin Energy      =      -1.2481895924406856 [Eh]
	 Correlation Energy        =      -1.6551790554977996 [Eh]
	 Total Energy              =    -363.2318738446667794 [Eh]

	 ================> DF-SCS-MP2 Energies <==================
	-----------------------------------------------------------
	 SCS Same-Spin Scale       =       0.3333333333333333 [-]
	 SCS Opposite-Spin Scale   =       1.2000000000000000 [-]
	 SCS Same-Spin Energy      =      -0.1356631543523714 [Eh]
	 SCS Opposite-Spin Energy  =      -1.4978275109288226 [Eh]
	 SCS Correlation Energy    =      -1.6334906652811940 [Eh]
	 SCS Total Energy          =    -363.2101854544501975 [Eh]
	-----------------------------------------------------------

  Dipole Moment: [D]
     X:    -1.4528      Y:    -1.2716      Z:     0.0000     Total:     1.9307

*** Psi4 exiting successfully. Buy a developer a beer!
