                               Psi4 1.3.2 release

  ==> Input File <==

--------------------------------------------------------------------------
#psi4
#
memory 32 gb

molecule  {
0 1
  N       -1.5631460    -1.0786450     0.0000020
  C        0.9814170     1.4318910     0.0000000
  C        2.1554110     0.6922200     0.0000020
  C        2.1326810    -0.7203310    -0.0000050
  C        0.9343870    -1.4220840     0.0000000
  C       -0.2233397    -0.6704052     0.0000005
  C       -0.2522510     0.7528300     0.0000150
  C       -1.6207120     1.1681210    -0.0000080
  C       -2.3885810     0.0265560    -0.0000050
  H        1.0121500     2.5200250     0.0000050
  H        3.1140070     1.2059840    -0.0000050
  H        3.0718340    -1.2688090    -0.0000050
  H        0.9183210    -2.5105470    -0.0000040
  H       -1.9975130     2.1830700    -0.0000130
  H       -1.8769340    -2.0399470     0.0000180
  H       -3.4648550    -0.0903210     0.0000040
units angstrom
no_reorient  #important for SAPT in psi4, default
symmetry c1  #important for SAPT in psi4, default
}

set PROPERTIES_ORIGIN ["COM"]
properties('MP2/aug-cc-pvtz', properties = ['dipole'])
--------------------------------------------------------------------------

    Molecular point group: c1
  Charge       = 0
  Multiplicity = 1
  Basis Set: AUG-CC-PVTZ
    Blend: AUG-CC-PVTZ
  Basis Set: (AUG-CC-PVTZ AUX)
    Blend: AUG-CC-PVTZ-JKFIT

    Orbital Energies [Eh]
    ---------------------

    Doubly Occupied:

       1A    -15.603738     2A    -11.274560     3A    -11.266794
       4A    -11.232283     5A    -11.231436     6A    -11.230226
       7A    -11.228581     8A    -11.223075     9A    -11.218182
      10A     -1.289275    11A     -1.130618    12A     -1.055849
      13A     -0.998246    14A     -0.973705    15A     -0.840958
      16A     -0.806891    17A     -0.787894    18A     -0.726075
      19A     -0.658737    20A     -0.647563    21A     -0.604373
      22A     -0.595075    23A     -0.580699    24A     -0.574765
      25A     -0.548989    26A     -0.507932    27A     -0.483744
      28A     -0.465753    29A     -0.386253    30A     -0.304459
      31A     -0.281491

  @DF-RHF Final Energy:  -361.58830758163197

   => Energetics <=

    Nuclear Repulsion Energy =            399.9702830807837017
    One-Electron Energy =               -1281.6007468310631339
    Two-Electron Energy =                 520.0421561686474661
    Total Energy =                       -361.5883075816319661
  Basis Set: (AUG-CC-PVTZ AUX)
    Blend: AUG-CC-PVTZ-RI
    Molecular point group: c1

    Geometry (in Angstrom), charge = 0, multiplicity = 1:

       Center              X                  Y                   Z               Mass
    ------------   -----------------  -----------------  -----------------  -----------------
         N           -1.559065868744    -1.078650796927     0.000001812006    14.003074004430
         C            0.985497131256     1.431885203073    -0.000000187994    12.000000000000
         C            2.159491131256     0.692214203073     0.000001812006    12.000000000000
         C            2.136761131256    -0.720336796927    -0.000005187994    12.000000000000
         C            0.938467131256    -1.422089796927    -0.000000187994    12.000000000000
         C           -0.219259568744    -0.670410996927     0.000000312006    12.000000000000
         C           -0.248170868744     0.752824203073     0.000014812006    12.000000000000
         C           -1.616631868744     1.168115203073    -0.000008187994    12.000000000000
         C           -2.384500868744     0.026550203073    -0.000005187994    12.000000000000
         H            1.016230131256     2.520019203073     0.000004812006     1.007825032230
         H            3.118087131256     1.205978203073    -0.000005187994     1.007825032230
         H            3.075914131256    -1.268814796927    -0.000005187994     1.007825032230
         H            0.922401131256    -2.510552796927    -0.000004187994     1.007825032230
         H           -1.993432868744     2.183064203073    -0.000013187994     1.007825032230
         H           -1.872853868744    -2.039952796927     0.000017812006     1.007825032230
         H           -3.460774868744    -0.090326796927     0.000003812006     1.007825032230

  Basis Set: AUG-CC-PVTZ
    Blend: AUG-CC-PVTZ
  Basis Set: (AUG-CC-PVTZ AUX)
    Blend: AUG-CC-PVTZ-JKFIT
	 Reference Energy          =    -361.5883075816319661 [Eh]
	 Singles Energy            =      -0.0000000000000000 [Eh]
	 Same-Spin Energy          =      -0.4079775099319736 [Eh]
	 Opposite-Spin Energy      =      -1.2479305443753104 [Eh]
	 Correlation Energy        =      -1.6559080543072839 [Eh]
	 Total Energy              =    -363.2442156359392698 [Eh]

	 ================> DF-SCS-MP2 Energies <==================
	-----------------------------------------------------------
	 SCS Same-Spin Scale       =       0.3333333333333333 [-]
	 SCS Opposite-Spin Scale   =       1.2000000000000000 [-]
	 SCS Same-Spin Energy      =      -0.1359925033106578 [Eh]
	 SCS Opposite-Spin Energy  =      -1.4975166532503723 [Eh]
	 SCS Correlation Energy    =      -1.6335091565610302 [Eh]
	 SCS Total Energy          =    -363.2218167381930130 [Eh]
	-----------------------------------------------------------

  Dipole Moment: [D]
     X:    -1.4273      Y:    -1.5242      Z:     0.0000     Total:     2.0881

*** Psi4 exiting successfully. Buy a developer a beer!
