                               Psi4 1.4a3.dev225

  ==> Input File <==

--------------------------------------------------------------------------
#psi4
#
memory 32 gb

molecule  {
0 1
  N       -1.5630850    -1.0784890    -0.0000040
  C        0.9811620     1.4317850    -0.0000050
  C        2.1553110     0.6923450     0.0000000
  C        2.1328040    -0.7200770     0.0000000
  C        0.9346070    -1.4219960     0.0000040
  C       -0.2479390    -0.6706250     0.0000000
  C       -0.2522910     0.7524290     0.0000030
  C       -1.6208000     1.1677860     0.0000050
  C       -2.3888340     0.0267020    -0.0000020
  H        1.0113780     2.5197500    -0.0000020
  H        3.1138040     1.2059540    -0.0000050
  H        3.0720020    -1.2682500     0.0000030
  H        0.9188940    -2.5102320     0.0000020
  H       -1.9966350     2.1828910     0.0000100
  H       -1.8925662    -2.0871546     0.0000002
  H       -3.4649170    -0.0911630    -0.0000050
units angstrom
no_reorient  #important for SAPT in psi4, default
symmetry c1  #important for SAPT in psi4, default
}

set PROPERTIES_ORIGIN ["COM"]
properties('MP2/aug-cc-pvtz', properties = ['dipole'])
--------------------------------------------------------------------------

    Molecular point group: c1
  Charge       = 0
  Multiplicity = 1
  Basis Set: AUG-CC-PVTZ
    Blend: AUG-CC-PVTZ
  Basis Set: (AUG-CC-PVTZ AUX)
    Blend: AUG-CC-PVTZ-JKFIT

    Orbital Energies [Eh]
    ---------------------

    Doubly Occupied:

       1A    -15.609970     2A    -11.273009     3A    -11.266940
       4A    -11.233289     5A    -11.231478     6A    -11.230144
       7A    -11.227008     8A    -11.222109     9A    -11.218439
      10A     -1.292935    11A     -1.127449    12A     -1.053735
      13A     -0.994770    14A     -0.973614    15A     -0.841073
      16A     -0.801127    17A     -0.786673    18A     -0.722916
      19A     -0.660963    20A     -0.647246    21A     -0.599403
      22A     -0.593923    23A     -0.583409    24A     -0.573747
      25A     -0.549679    26A     -0.507520    27A     -0.482253
      28A     -0.464508    29A     -0.385670    30A     -0.301083
      31A     -0.282721

  @DF-RHF Final Energy:  -361.58535683945405

   => Energetics <=

    Nuclear Repulsion Energy =            399.7288540037922075
    One-Electron Energy =               -1281.1508185772811430
    Two-Electron Energy =                 519.8366077340349420
    Total Energy =                       -361.5853568394539934
  Basis Set: (AUG-CC-PVTZ AUX)
    Blend: AUG-CC-PVTZ-RI
    Molecular point group: c1

    Geometry (in Angstrom), charge = 0, multiplicity = 1:

       Center              X                  Y                   Z               Mass
    ------------   -----------------  -----------------  -----------------  -----------------
         N           -1.556320543149    -1.078057118816    -0.000004061617    14.003074004430
         C            0.987926456851     1.432216881184    -0.000005061617    12.000000000000
         C            2.162075456851     0.692776881184    -0.000000061617    12.000000000000
         C            2.139568456851    -0.719645118816    -0.000000061617    12.000000000000
         C            0.941371456851    -1.421564118816     0.000003938383    12.000000000000
         C           -0.241174543149    -0.670193118816    -0.000000061617    12.000000000000
         C           -0.245526543149     0.752860881184     0.000002938383    12.000000000000
         C           -1.614035543149     1.168217881184     0.000004938383    12.000000000000
         C           -2.382069543149     0.027133881184    -0.000002061617    12.000000000000
         H            1.018142456851     2.520181881184    -0.000002061617     1.007825032230
         H            3.120568456851     1.206385881184    -0.000005061617     1.007825032230
         H            3.078766456851    -1.267818118816     0.000002938383     1.007825032230
         H            0.925658456851    -2.509800118816     0.000001938383     1.007825032230
         H           -1.989870543149     2.183322881184     0.000009938383     1.007825032230
         H           -1.885801743149    -2.086722718816     0.000000138383     1.007825032230
         H           -3.458152543149    -0.090731118816    -0.000005061617     1.007825032230

  Basis Set: AUG-CC-PVTZ
    Blend: AUG-CC-PVTZ
  Basis Set: (AUG-CC-PVTZ AUX)
    Blend: AUG-CC-PVTZ-JKFIT
	 Reference Energy          =    -361.5853568394540503 [Eh]
	 Singles Energy            =      -0.0000000000000000 [Eh]
	 Same-Spin Energy          =      -0.4083953645780916 [Eh]
	 Opposite-Spin Energy      =      -1.2488748605329880 [Eh]
	 Correlation Energy        =      -1.6572702251110796 [Eh]
	 Total Energy              =    -363.2426270645651130 [Eh]

	 ================> DF-SCS-MP2 Energies <==================
	-----------------------------------------------------------
	 SCS Same-Spin Scale       =       0.3333333333333333 [-]
	 SCS Opposite-Spin Scale   =       1.2000000000000000 [-]
	 SCS Same-Spin Energy      =      -0.1361317881926972 [Eh]
	 SCS Opposite-Spin Energy  =      -1.4986498326395856 [Eh]
	 SCS Correlation Energy    =      -1.6347816208322827 [Eh]
	 SCS Total Energy          =    -363.2201384602863072 [Eh]
	-----------------------------------------------------------

  Dipole Moment: [D]
     X:    -1.5100      Y:    -1.6014      Z:     0.0000     Total:     2.2010

*** Psi4 exiting successfully. Buy a developer a beer!
