                               Psi4 1.3.2 release

  ==> Input File <==

--------------------------------------------------------------------------
#psi4
#
memory 32 gb

molecule  {
0 1
  N       -1.5631460    -1.0786450     0.0000020
  C        0.9814170     1.4318910     0.0000000
  C        2.1554110     0.6922200     0.0000020
  C        2.1447458    -0.7413510    -0.0000050
  C        0.9343870    -1.4220840     0.0000000
  C       -0.2481830    -0.6706930     0.0000000
  C       -0.2522510     0.7528300     0.0000150
  C       -1.6207120     1.1681210    -0.0000080
  C       -2.3885810     0.0265560    -0.0000050
  H        1.0121500     2.5200250     0.0000050
  H        3.1140070     1.2059840    -0.0000050
  H        3.0718340    -1.2688090    -0.0000050
  H        0.9183210    -2.5105470    -0.0000040
  H       -1.9975130     2.1830700    -0.0000130
  H       -1.8769340    -2.0399470     0.0000180
  H       -3.4648550    -0.0903210     0.0000040
units angstrom
no_reorient  #important for SAPT in psi4, default
symmetry c1  #important for SAPT in psi4, default
}

set PROPERTIES_ORIGIN ["COM"]
properties('MP2/aug-cc-pvtz', properties = ['dipole'])
--------------------------------------------------------------------------

    Molecular point group: c1
  Charge       = 0
  Multiplicity = 1
  Basis Set: AUG-CC-PVTZ
    Blend: AUG-CC-PVTZ
  Basis Set: (AUG-CC-PVTZ AUX)
    Blend: AUG-CC-PVTZ-JKFIT

    Orbital Energies [Eh]
    ---------------------

    Doubly Occupied:

       1A    -15.606256     2A    -11.273159     3A    -11.267035
       4A    -11.234207     5A    -11.231585     6A    -11.230848
       7A    -11.227356     8A    -11.224479     9A    -11.218883
      10A     -1.296347    11A     -1.126382    12A     -1.056021
      13A     -0.994974    14A     -0.974790    15A     -0.840818
      16A     -0.807858    17A     -0.788660    18A     -0.727078
      19A     -0.664076    20A     -0.647020    21A     -0.601691
      22A     -0.593986    23A     -0.584036    24A     -0.573189
      25A     -0.553232    26A     -0.509877    27A     -0.480772
      28A     -0.463102    29A     -0.386131    30A     -0.300448
      31A     -0.283341

  @DF-RHF Final Energy:  -361.58843991344594

   => Energetics <=

    Nuclear Repulsion Energy =            399.6283770243258573
    One-Electron Energy =               -1280.8983644541071953
    Two-Electron Energy =                 519.6815475163355131
    Total Energy =                       -361.5884399134458818
  Basis Set: (AUG-CC-PVTZ AUX)
    Blend: AUG-CC-PVTZ-RI
    Molecular point group: c1

    Geometry (in Angstrom), charge = 0, multiplicity = 1:

       Center              X                  Y                   Z               Mass
    ------------   -----------------  -----------------  -----------------  -----------------
         N           -1.557755901057    -1.076466461561     0.000001863263    14.003074004430
         C            0.986807098943     1.434069538439    -0.000000136737    12.000000000000
         C            2.160801098943     0.694398538439     0.000001863263    12.000000000000
         C            2.150135898943    -0.739172461561    -0.000005136737    12.000000000000
         C            0.939777098943    -1.419905461561    -0.000000136737    12.000000000000
         C           -0.242792901057    -0.668514461561    -0.000000136737    12.000000000000
         C           -0.246860901057     0.755008538439     0.000014863263    12.000000000000
         C           -1.615321901057     1.170299538439    -0.000008136737    12.000000000000
         C           -2.383190901057     0.028734538439    -0.000005136737    12.000000000000
         H            1.017540098943     2.522203538439     0.000004863263     1.007825032230
         H            3.119397098943     1.208162538439    -0.000005136737     1.007825032230
         H            3.077224098943    -1.266630461561    -0.000005136737     1.007825032230
         H            0.923711098943    -2.508368461561    -0.000004136737     1.007825032230
         H           -1.992122901057     2.185248538439    -0.000013136737     1.007825032230
         H           -1.871543901057    -2.037768461561     0.000017863263     1.007825032230
         H           -3.459464901057    -0.088142461561     0.000003863263     1.007825032230

  Basis Set: AUG-CC-PVTZ
    Blend: AUG-CC-PVTZ
  Basis Set: (AUG-CC-PVTZ AUX)
    Blend: AUG-CC-PVTZ-JKFIT
	 Reference Energy          =    -361.5884399134459386 [Eh]
	 Singles Energy            =      -0.0000000000000000 [Eh]
	 Same-Spin Energy          =      -0.4079139252671068 [Eh]
	 Opposite-Spin Energy      =      -1.2480011104962119 [Eh]
	 Correlation Energy        =      -1.6559150357633188 [Eh]
	 Total Energy              =    -363.2443549492092529 [Eh]

	 ================> DF-SCS-MP2 Energies <==================
	-----------------------------------------------------------
	 SCS Same-Spin Scale       =       0.3333333333333333 [-]
	 SCS Opposite-Spin Scale   =       1.2000000000000000 [-]
	 SCS Same-Spin Energy      =      -0.1359713084223689 [Eh]
	 SCS Opposite-Spin Energy  =      -1.4976013325954542 [Eh]
	 SCS Correlation Energy    =      -1.6335726410178233 [Eh]
	 SCS Total Energy          =    -363.2220125544637881 [Eh]
	-----------------------------------------------------------

  Dipole Moment: [D]
     X:    -1.4850      Y:    -1.5505      Z:     0.0000     Total:     2.1469

*** Psi4 exiting successfully. Buy a developer a beer!
