                               Psi4 1.3.2 release

  ==> Input File <==

--------------------------------------------------------------------------
#psi4
#
memory 32 gb

molecule  {
0 1
  N       -1.5631460    -1.0786450     0.0000020
  C        0.9693779     1.4533181     0.0000004
  C        2.1554110     0.6922200     0.0000020
  C        2.1326810    -0.7203310    -0.0000050
  C        0.9343870    -1.4220840     0.0000000
  C       -0.2481830    -0.6706930     0.0000000
  C       -0.2522510     0.7528300     0.0000150
  C       -1.6207120     1.1681210    -0.0000080
  C       -2.3885810     0.0265560    -0.0000050
  H        1.0121500     2.5200250     0.0000050
  H        3.1140070     1.2059840    -0.0000050
  H        3.0718340    -1.2688090    -0.0000050
  H        0.9183210    -2.5105470    -0.0000040
  H       -1.9975130     2.1830700    -0.0000130
  H       -1.8769340    -2.0399470     0.0000180
  H       -3.4648550    -0.0903210     0.0000040
units angstrom
no_reorient  #important for SAPT in psi4, default
symmetry c1  #important for SAPT in psi4, default
}

set PROPERTIES_ORIGIN ["COM"]
properties('MP2/aug-cc-pvtz', properties = ['dipole'])
--------------------------------------------------------------------------

    Molecular point group: c1
  Charge       = 0
  Multiplicity = 1
  Basis Set: AUG-CC-PVTZ
    Blend: AUG-CC-PVTZ
  Basis Set: (AUG-CC-PVTZ AUX)
    Blend: AUG-CC-PVTZ-JKFIT

    Orbital Energies [Eh]
    ---------------------

    Doubly Occupied:

       1A    -15.605538     2A    -11.273256     3A    -11.267679
       4A    -11.233681     5A    -11.232427     6A    -11.230450
       7A    -11.227911     8A    -11.224761     9A    -11.218224
      10A     -1.296330    11A     -1.126367    12A     -1.056363
      13A     -0.994108    14A     -0.974433    15A     -0.843497
      16A     -0.805467    17A     -0.787589    18A     -0.729186
      19A     -0.662266    20A     -0.645723    21A     -0.601323
      22A     -0.598910    23A     -0.583969    24A     -0.573973
      25A     -0.550148    26A     -0.505501    27A     -0.485443
      28A     -0.463124    29A     -0.386230    30A     -0.299749
      31A     -0.282900

  @DF-RHF Final Energy:  -361.58818440937182

   => Energetics <=

    Nuclear Repulsion Energy =            399.6858712329724312
    One-Electron Energy =               -1281.0150576484249996
    Two-Electron Energy =                 519.7410020060807483
    Total Energy =                       -361.5881844093718200
  Basis Set: (AUG-CC-PVTZ AUX)
    Blend: AUG-CC-PVTZ-RI
    Molecular point group: c1

    Geometry (in Angstrom), charge = 0, multiplicity = 1:

       Center              X                  Y                   Z               Mass
    ------------   -----------------  -----------------  -----------------  -----------------
         N           -1.555284927928    -1.080817858783     0.000001822258    14.003074004430
         C            0.977238972072     1.451145241217     0.000000222258    12.000000000000
         C            2.163272072072     0.690047141217     0.000001822258    12.000000000000
         C            2.140542072072    -0.722503858783    -0.000005177742    12.000000000000
         C            0.942248072072    -1.424256858783    -0.000000177742    12.000000000000
         C           -0.240321927928    -0.672865858783    -0.000000177742    12.000000000000
         C           -0.244389927928     0.750657141217     0.000014822258    12.000000000000
         C           -1.612850927928     1.165948141217    -0.000008177742    12.000000000000
         C           -2.380719927928     0.024383141217    -0.000005177742    12.000000000000
         H            1.020011072072     2.517852141217     0.000004822258     1.007825032230
         H            3.121868072072     1.203811141217    -0.000005177742     1.007825032230
         H            3.079695072072    -1.270981858783    -0.000005177742     1.007825032230
         H            0.926182072072    -2.512719858783    -0.000004177742     1.007825032230
         H           -1.989651927928     2.180897141217    -0.000013177742     1.007825032230
         H           -1.869072927928    -2.042119858783     0.000017822258     1.007825032230
         H           -3.456993927928    -0.092493858783     0.000003822258     1.007825032230

  Basis Set: AUG-CC-PVTZ
    Blend: AUG-CC-PVTZ
  Basis Set: (AUG-CC-PVTZ AUX)
    Blend: AUG-CC-PVTZ-JKFIT
	 Reference Energy          =    -361.5881844093718200 [Eh]
	 Singles Energy            =      -0.0000000000000000 [Eh]
	 Same-Spin Energy          =      -0.4080190468867104 [Eh]
	 Opposite-Spin Energy      =      -1.2481091829435722 [Eh]
	 Correlation Energy        =      -1.6561282298302826 [Eh]
	 Total Energy              =    -363.2443126392021213 [Eh]

	 ================> DF-SCS-MP2 Energies <==================
	-----------------------------------------------------------
	 SCS Same-Spin Scale       =       0.3333333333333333 [-]
	 SCS Opposite-Spin Scale   =       1.2000000000000000 [-]
	 SCS Same-Spin Energy      =      -0.1360063489622368 [Eh]
	 SCS Opposite-Spin Energy  =      -1.4977310195322866 [Eh]
	 SCS Correlation Energy    =      -1.6337373684945233 [Eh]
	 SCS Total Energy          =    -363.2219217778663278 [Eh]
	-----------------------------------------------------------

  Dipole Moment: [D]
     X:    -1.4858      Y:    -1.5377      Z:     0.0000     Total:     2.1382

*** Psi4 exiting successfully. Buy a developer a beer!
