                               Psi4 1.3.2 release

  ==> Input File <==

--------------------------------------------------------------------------
#psi4
#
memory 32 gb

molecule  {
0 1
  N       -1.5631460    -1.0786450     0.0000020
  C        0.9814170     1.4318910     0.0000000
  C        2.2041481     0.7759155     0.0000007
  C        2.1326810    -0.7203310    -0.0000050
  C        0.9343870    -1.4220840     0.0000000
  C       -0.2481830    -0.6706930     0.0000000
  C       -0.2522510     0.7528300     0.0000150
  C       -1.6207120     1.1681210    -0.0000080
  C       -2.3885810     0.0265560    -0.0000050
  H        1.0121500     2.5200250     0.0000050
  H        3.1140070     1.2059840    -0.0000050
  H        3.0718340    -1.2688090    -0.0000050
  H        0.9183210    -2.5105470    -0.0000040
  H       -1.9975130     2.1830700    -0.0000130
  H       -1.8769340    -2.0399470     0.0000180
  H       -3.4648550    -0.0903210     0.0000040
units angstrom
no_reorient  #important for SAPT in psi4, default
symmetry c1  #important for SAPT in psi4, default
}

set PROPERTIES_ORIGIN ["COM"]
properties('MP2/aug-cc-pvtz', properties = ['dipole'])
--------------------------------------------------------------------------

    Molecular point group: c1
  Charge       = 0
  Multiplicity = 1
  Basis Set: AUG-CC-PVTZ
    Blend: AUG-CC-PVTZ
  Basis Set: (AUG-CC-PVTZ AUX)
    Blend: AUG-CC-PVTZ-JKFIT

    Orbital Energies [Eh]
    ---------------------

    Doubly Occupied:

       1A    -15.607453     2A    -11.271521     3A    -11.268222
       4A    -11.239301     5A    -11.234539     6A    -11.233830
       7A    -11.226966     8A    -11.224407     9A    -11.220092
      10A     -1.296600    11A     -1.121377    12A     -1.054951
      13A     -0.998563    14A     -0.970088    15A     -0.840431
      16A     -0.808214    17A     -0.792111    18A     -0.724789
      19A     -0.671268    20A     -0.651683    21A     -0.599105
      22A     -0.595341    23A     -0.583988    24A     -0.570868
      25A     -0.543973    26A     -0.529999    27A     -0.470046
      28A     -0.458507    29A     -0.386319    30A     -0.301751
      31A     -0.281297

  @DF-RHF Final Energy:  -361.57721929451571

   => Energetics <=

    Nuclear Repulsion Energy =            398.5539479948544113
    One-Electron Energy =               -1278.7071380478500942
    Two-Electron Energy =                 518.5759707584799116
    Total Energy =                       -361.5772192945157713
  Basis Set: (AUG-CC-PVTZ AUX)
    Blend: AUG-CC-PVTZ-RI
    Molecular point group: c1

    Geometry (in Angstrom), charge = 0, multiplicity = 1:

       Center              X                  Y                   Z               Mass
    ------------   -----------------  -----------------  -----------------  -----------------
         N           -1.561515303804    -1.087201205179     0.000001996530    14.003074004430
         C            0.983047696196     1.423334794821    -0.000000003470    12.000000000000
         C            2.205778796196     0.767359294821     0.000000696530    12.000000000000
         C            2.134311696196    -0.728887205179    -0.000005003470    12.000000000000
         C            0.936017696196    -1.430640205179    -0.000000003470    12.000000000000
         C           -0.246552303804    -0.679249205179    -0.000000003470    12.000000000000
         C           -0.250620303804     0.744273794821     0.000014996530    12.000000000000
         C           -1.619081303804     1.159564794821    -0.000008003470    12.000000000000
         C           -2.386950303804     0.017999794821    -0.000005003470    12.000000000000
         H            1.013780696196     2.511468794821     0.000004996530     1.007825032230
         H            3.115637696196     1.197427794821    -0.000005003470     1.007825032230
         H            3.073464696196    -1.277365205179    -0.000005003470     1.007825032230
         H            0.919951696196    -2.519103205179    -0.000004003470     1.007825032230
         H           -1.995882303804     2.174513794821    -0.000013003470     1.007825032230
         H           -1.875303303804    -2.048503205179     0.000017996530     1.007825032230
         H           -3.463224303804    -0.098877205179     0.000003996530     1.007825032230

  Basis Set: AUG-CC-PVTZ
    Blend: AUG-CC-PVTZ
  Basis Set: (AUG-CC-PVTZ AUX)
    Blend: AUG-CC-PVTZ-JKFIT
	 Reference Energy          =    -361.5772192945157144 [Eh]
	 Singles Energy            =      -0.0000000000000000 [Eh]
	 Same-Spin Energy          =      -0.4076342733455335 [Eh]
	 Opposite-Spin Energy      =      -1.2486666797814698 [Eh]
	 Correlation Energy        =      -1.6563009531270034 [Eh]
	 Total Energy              =    -363.2335202476427298 [Eh]

	 ================> DF-SCS-MP2 Energies <==================
	-----------------------------------------------------------
	 SCS Same-Spin Scale       =       0.3333333333333333 [-]
	 SCS Opposite-Spin Scale   =       1.2000000000000000 [-]
	 SCS Same-Spin Energy      =      -0.1358780911151778 [Eh]
	 SCS Opposite-Spin Energy  =      -1.4984000157377637 [Eh]
	 SCS Correlation Energy    =      -1.6342781068529415 [Eh]
	 SCS Total Energy          =    -363.2114974013686606 [Eh]
	-----------------------------------------------------------

  Dipole Moment: [D]
     X:    -1.4938      Y:    -1.5565      Z:     0.0000     Total:     2.1573

*** Psi4 exiting successfully. Buy a developer a beer!
