                               Psi4 1.3.2 release

  ==> Input File <==

--------------------------------------------------------------------------
#psi4
#
memory 32 gb

molecule  {
0 1
  N       -1.6022198    -1.1067790     0.0000020
  C        0.9814170     1.4318910     0.0000000
  C        2.1554110     0.6922200     0.0000020
  C        2.1326810    -0.7203310    -0.0000050
  C        0.9343870    -1.4220840     0.0000000
  C       -0.2481830    -0.6706930     0.0000000
  C       -0.2522510     0.7528300     0.0000150
  C       -1.6207120     1.1681210    -0.0000080
  C       -2.3885810     0.0265560    -0.0000050
  H        1.0121500     2.5200250     0.0000050
  H        3.1140070     1.2059840    -0.0000050
  H        3.0718340    -1.2688090    -0.0000050
  H        0.9183210    -2.5105470    -0.0000040
  H       -1.9975130     2.1830700    -0.0000130
  H       -1.8769340    -2.0399470     0.0000180
  H       -3.4648550    -0.0903210     0.0000040
units angstrom
no_reorient  #important for SAPT in psi4, default
symmetry c1  #important for SAPT in psi4, default
}

set PROPERTIES_ORIGIN ["COM"]
properties('MP2/aug-cc-pvtz', properties = ['dipole'])
--------------------------------------------------------------------------

    Molecular point group: c1
  Charge       = 0
  Multiplicity = 1
  Basis Set: AUG-CC-PVTZ
    Blend: AUG-CC-PVTZ
  Basis Set: (AUG-CC-PVTZ AUX)
    Blend: AUG-CC-PVTZ-JKFIT

    Orbital Energies [Eh]
    ---------------------

    Doubly Occupied:

       1A    -15.602210     2A    -11.275727     3A    -11.270389
       4A    -11.235292     5A    -11.232160     6A    -11.230429
       7A    -11.230326     8A    -11.224615     9A    -11.218852
      10A     -1.286686    11A     -1.130676    12A     -1.057153
      13A     -0.998806    14A     -0.972520    15A     -0.838953
      16A     -0.813431    17A     -0.788319    18A     -0.728660
      19A     -0.655294    20A     -0.647941    21A     -0.609869
      22A     -0.595237    23A     -0.577615    24A     -0.574828
      25A     -0.546235    26A     -0.508619    27A     -0.483720
      28A     -0.466414    29A     -0.385149    30A     -0.306111
      31A     -0.281801

  @DF-RHF Final Energy:  -361.58656528518958

   => Energetics <=

    Nuclear Repulsion Energy =            398.9613057525126010
    One-Electron Energy =               -1279.5476664246923519
    Two-Electron Energy =                 518.9997953869902858
    Total Energy =                       -361.5865652851895220
  Basis Set: (AUG-CC-PVTZ AUX)
    Blend: AUG-CC-PVTZ-RI
    Molecular point group: c1

    Geometry (in Angstrom), charge = 0, multiplicity = 1:

       Center              X                  Y                   Z               Mass
    ------------   -----------------  -----------------  -----------------  -----------------
         N           -1.590918684260    -1.103389756897     0.000001863263    14.003074004430
         C            0.992718115740     1.435280243103    -0.000000136737    12.000000000000
         C            2.166712115740     0.695609243103     0.000001863263    12.000000000000
         C            2.143982115740    -0.716941756897    -0.000005136737    12.000000000000
         C            0.945688115740    -1.418694756897    -0.000000136737    12.000000000000
         C           -0.236881884260    -0.667303756897    -0.000000136737    12.000000000000
         C           -0.240949884260     0.756219243103     0.000014863263    12.000000000000
         C           -1.609410884260     1.171510243103    -0.000008136737    12.000000000000
         C           -2.377279884260     0.029945243103    -0.000005136737    12.000000000000
         H            1.023451115740     2.523414243103     0.000004863263     1.007825032230
         H            3.125308115740     1.209373243103    -0.000005136737     1.007825032230
         H            3.083135115740    -1.265419756897    -0.000005136737     1.007825032230
         H            0.929622115740    -2.507157756897    -0.000004136737     1.007825032230
         H           -1.986211884260     2.186459243103    -0.000013136737     1.007825032230
         H           -1.865632884260    -2.036557756897     0.000017863263     1.007825032230
         H           -3.453553884260    -0.086931756897     0.000003863263     1.007825032230

  Basis Set: AUG-CC-PVTZ
    Blend: AUG-CC-PVTZ
  Basis Set: (AUG-CC-PVTZ AUX)
    Blend: AUG-CC-PVTZ-JKFIT
	 Reference Energy          =    -361.5865652851895788 [Eh]
	 Singles Energy            =      -0.0000000000000000 [Eh]
	 Same-Spin Energy          =      -0.4074259213357514 [Eh]
	 Opposite-Spin Energy      =      -1.2476049225267871 [Eh]
	 Correlation Energy        =      -1.6550308438625385 [Eh]
	 Total Energy              =    -363.2415961290521409 [Eh]

	 ================> DF-SCS-MP2 Energies <==================
	-----------------------------------------------------------
	 SCS Same-Spin Scale       =       0.3333333333333333 [-]
	 SCS Opposite-Spin Scale   =       1.2000000000000000 [-]
	 SCS Same-Spin Energy      =      -0.1358086404452505 [Eh]
	 SCS Opposite-Spin Energy  =      -1.4971259070321445 [Eh]
	 SCS Correlation Energy    =      -1.6329345474773951 [Eh]
	 SCS Total Energy          =    -363.2194998326669975 [Eh]
	-----------------------------------------------------------

  Dipole Moment: [D]
     X:    -1.3418      Y:    -1.4664      Z:     0.0000     Total:     1.9877

*** Psi4 exiting successfully. Buy a developer a beer!
