                               Psi4 1.3.2 release

  ==> Input File <==

--------------------------------------------------------------------------
#psi4
#
memory 32 gb

molecule  {
0 1
  F       -0.1090060     1.4691830    -0.4263280
  F       -2.2329010    -0.3483750     0.0119380
  F        1.8245690    -0.6904460    -0.5579990
  C       -0.0265060     0.3086085     0.5178055
  C       -0.8949580    -0.7254520    -0.0889280
  C        1.4110010    -0.0260590     0.6001090
  H       -0.4223330     0.7179750     1.4244750
  H       -0.7480580    -1.6484420     0.4813360
  H       -0.6528610    -0.8980200    -1.1386560
  H        1.5335420    -0.7074240     1.4482380
  H        2.0415670     0.8553370     0.7402530
units angstrom
no_reorient  #important for SAPT in psi4, default
symmetry c1  #important for SAPT in psi4, default
}

set PROPERTIES_ORIGIN ["COM"]
properties('MP2/aug-cc-pvtz', properties = ['dipole'])
--------------------------------------------------------------------------

    Molecular point group: c1
  Charge       = 0
  Multiplicity = 1
  Basis Set: AUG-CC-PVTZ
    Blend: AUG-CC-PVTZ
  Basis Set: (AUG-CC-PVTZ AUX)
    Blend: AUG-CC-PVTZ-JKFIT

    Orbital Energies [Eh]
    ---------------------

    Doubly Occupied:

       1A    -26.304141     2A    -26.293764     3A    -26.267795
       4A    -11.342742     5A    -11.341946     6A    -11.331659
       7A     -1.611783     8A     -1.601248     9A     -1.553858
      10A     -1.109468    11A     -0.980788    12A     -0.855925
      13A     -0.755544    14A     -0.739485    15A     -0.730377
      16A     -0.710571    17A     -0.681317    18A     -0.673617
      19A     -0.652817    20A     -0.624328    21A     -0.613161
      22A     -0.559669    23A     -0.542091    24A     -0.541048
      25A     -0.526304

  @DF-RHF Final Energy:  -414.96727776768489

   => Energetics <=

    Nuclear Repulsion Energy =            257.5541481879697585
    One-Electron Energy =               -1087.1519594093265368
    Two-Electron Energy =                 414.6305334536718874
    Total Energy =                       -414.9672777676848909
  Basis Set: (AUG-CC-PVTZ AUX)
    Blend: AUG-CC-PVTZ-RI
    Molecular point group: c1

    Geometry (in Angstrom), charge = 0, multiplicity = 1:

       Center              X                  Y                   Z               Mass
    ------------   -----------------  -----------------  -----------------  -----------------
         F           -0.086681305639     1.457272517409    -0.394224694163    18.998403162730
         F           -2.210576305639    -0.360285482591     0.044041305837    18.998403162730
         F            1.846893694361    -0.702356482591    -0.525895694163    18.998403162730
         C           -0.004181305639     0.296698017409     0.549908805837    12.000000000000
         C           -0.872633305639    -0.737362482591    -0.056824694163    12.000000000000
         C            1.433325694361    -0.037969482591     0.632212305837    12.000000000000
         H           -0.400008305639     0.706064517409     1.456578305837     1.007825032230
         H           -0.725733305639    -1.660352482591     0.513439305837     1.007825032230
         H           -0.630536305639    -0.909930482591    -1.106552694163     1.007825032230
         H            1.555866694361    -0.719334482591     1.480341305837     1.007825032230
         H            2.063891694361     0.843426517409     0.772356305837     1.007825032230

  Basis Set: AUG-CC-PVTZ
    Blend: AUG-CC-PVTZ
  Basis Set: (AUG-CC-PVTZ AUX)
    Blend: AUG-CC-PVTZ-JKFIT
	 Reference Energy          =    -414.9672777676848909 [Eh]
	 Singles Energy            =      -0.0000000000000000 [Eh]
	 Same-Spin Energy          =      -0.3384437407196736 [Eh]
	 Opposite-Spin Energy      =      -1.0517281988525928 [Eh]
	 Correlation Energy        =      -1.3901719395722665 [Eh]
	 Total Energy              =    -416.3574497072571603 [Eh]

	 ================> DF-SCS-MP2 Energies <==================
	-----------------------------------------------------------
	 SCS Same-Spin Scale       =       0.3333333333333333 [-]
	 SCS Opposite-Spin Scale   =       1.2000000000000000 [-]
	 SCS Same-Spin Energy      =      -0.1128145802398912 [Eh]
	 SCS Opposite-Spin Energy  =      -1.2620738386231114 [Eh]
	 SCS Correlation Energy    =      -1.3748884188630026 [Eh]
	 SCS Total Energy          =    -416.3421661865478995 [Eh]
	-----------------------------------------------------------

  Dipole Moment: [D]
     X:     1.4306      Y:    -1.3800      Z:     2.6958     Total:     3.3494

*** Psi4 exiting successfully. Buy a developer a beer!
