                               Psi4 1.3.2 release

  ==> Input File <==

--------------------------------------------------------------------------
#psi4
#
memory 32 gb

molecule  {
0 1
  F       -0.1992376     1.3870810    -0.5072098
  F       -2.2329010    -0.3483750     0.0119380
  F        1.8245690    -0.6904460    -0.5579990
  C       -0.0320120     0.3860640     0.4547950
  C       -0.8949580    -0.7254520    -0.0889280
  C        1.4110010    -0.0260590     0.6001090
  H       -0.4223330     0.7179750     1.4244750
  H       -0.7480580    -1.6484420     0.4813360
  H       -0.6528610    -0.8980200    -1.1386560
  H        1.5335420    -0.7074240     1.4482380
  H        2.0415670     0.8553370     0.7402530
units angstrom
no_reorient  #important for SAPT in psi4, default
symmetry c1  #important for SAPT in psi4, default
}

set PROPERTIES_ORIGIN ["COM"]
properties('MP2/aug-cc-pvtz', properties = ['dipole'])
--------------------------------------------------------------------------

    Molecular point group: c1
  Charge       = 0
  Multiplicity = 1
  Basis Set: AUG-CC-PVTZ
    Blend: AUG-CC-PVTZ
  Basis Set: (AUG-CC-PVTZ AUX)
    Blend: AUG-CC-PVTZ-JKFIT

    Orbital Energies [Eh]
    ---------------------

    Doubly Occupied:

       1A    -26.301125     2A    -26.292390     3A    -26.287592
       4A    -11.340453     5A    -11.339474     6A    -11.323055
       7A     -1.612880     8A     -1.602773     9A     -1.589931
      10A     -1.093399    11A     -0.971458    12A     -0.856990
      13A     -0.758326    14A     -0.739308    15A     -0.736529
      16A     -0.703910    17A     -0.689878    18A     -0.678302
      19A     -0.668930    20A     -0.638096    21A     -0.621172
      22A     -0.559334    23A     -0.537602    24A     -0.533918
      25A     -0.506840

  @DF-RHF Final Energy:  -414.97534853657362

   => Energetics <=

    Nuclear Repulsion Energy =            259.0420967186630037
    One-Electron Energy =               -1090.0675605149240255
    Two-Electron Energy =                 416.0501152596873453
    Total Energy =                       -414.9753485365736196
  Basis Set: (AUG-CC-PVTZ AUX)
    Blend: AUG-CC-PVTZ-RI
    Molecular point group: c1

    Geometry (in Angstrom), charge = 0, multiplicity = 1:

       Center              X                  Y                   Z               Mass
    ------------   -----------------  -----------------  -----------------  -----------------
         F           -0.158752652691     1.381600314670    -0.451719269135    18.998403162730
         F           -2.192416052691    -0.353855685330     0.067428530865    18.998403162730
         F            1.865053947309    -0.695926685330    -0.502508469135    18.998403162730
         C            0.008472947309     0.380583314670     0.510285530865    12.000000000000
         C           -0.854473052691    -0.730932685330    -0.033437469135    12.000000000000
         C            1.451485947309    -0.031539685330     0.655599530865    12.000000000000
         H           -0.381848052691     0.712494314670     1.479965530865     1.007825032230
         H           -0.707573052691    -1.653922685330     0.536826530865     1.007825032230
         H           -0.612376052691    -0.903500685330    -1.083165469135     1.007825032230
         H            1.574026947309    -0.712904685330     1.503728530865     1.007825032230
         H            2.082051947309     0.849856314670     0.795743530865     1.007825032230

  Basis Set: AUG-CC-PVTZ
    Blend: AUG-CC-PVTZ
  Basis Set: (AUG-CC-PVTZ AUX)
    Blend: AUG-CC-PVTZ-JKFIT
	 Reference Energy          =    -414.9753485365736196 [Eh]
	 Singles Energy            =      -0.0000000000000000 [Eh]
	 Same-Spin Energy          =      -0.3377869112810291 [Eh]
	 Opposite-Spin Energy      =      -1.0495415968280308 [Eh]
	 Correlation Energy        =      -1.3873285081090598 [Eh]
	 Total Energy              =    -416.3626770446826981 [Eh]

	 ================> DF-SCS-MP2 Energies <==================
	-----------------------------------------------------------
	 SCS Same-Spin Scale       =       0.3333333333333333 [-]
	 SCS Opposite-Spin Scale   =       1.2000000000000000 [-]
	 SCS Same-Spin Energy      =      -0.1125956370936764 [Eh]
	 SCS Opposite-Spin Energy  =      -1.2594499161936370 [Eh]
	 SCS Correlation Energy    =      -1.3720455532873133 [Eh]
	 SCS Total Energy          =    -416.3473940898609271 [Eh]
	-----------------------------------------------------------

  Dipole Moment: [D]
     X:     1.5453      Y:    -0.9013      Z:     2.5603     Total:     3.1234

*** Psi4 exiting successfully. Buy a developer a beer!
