                               Psi4 1.3.2 release

  ==> Input File <==

--------------------------------------------------------------------------
#psi4
#
memory 32 gb

molecule  {
0 1
  F       -0.1280400     1.4960452    -0.3902926
  F       -2.2329010    -0.3483750     0.0119380
  F        1.8245690    -0.6904460    -0.5579990
  C       -0.0320120     0.3860640     0.4547950
  C       -0.8949580    -0.7254520    -0.0889280
  C        1.4110010    -0.0260590     0.6001090
  H       -0.4223330     0.7179750     1.4244750
  H       -0.7480580    -1.6484420     0.4813360
  H       -0.6528610    -0.8980200    -1.1386560
  H        1.5335420    -0.7074240     1.4482380
  H        2.0415670     0.8553370     0.7402530
units angstrom
no_reorient  #important for SAPT in psi4, default
symmetry c1  #important for SAPT in psi4, default
}

set PROPERTIES_ORIGIN ["COM"]
properties('MP2/aug-cc-pvtz', properties = ['dipole'])
--------------------------------------------------------------------------

    Molecular point group: c1
  Charge       = 0
  Multiplicity = 1
  Basis Set: AUG-CC-PVTZ
    Blend: AUG-CC-PVTZ
  Basis Set: (AUG-CC-PVTZ AUX)
    Blend: AUG-CC-PVTZ-JKFIT

    Orbital Energies [Eh]
    ---------------------

    Doubly Occupied:

       1A    -26.300547     2A    -26.292561     3A    -26.290056
       4A    -11.339309     5A    -11.338123     6A    -11.327898
       7A     -1.612013     8A     -1.602364     9A     -1.592592
      10A     -1.093878    11A     -0.971988    12A     -0.858214
      13A     -0.757265    14A     -0.738306    15A     -0.736276
      16A     -0.705957    17A     -0.690130    18A     -0.678616
      19A     -0.671835    20A     -0.641119    21A     -0.620174
      22A     -0.555220    23A     -0.544071    24A     -0.530935
      25A     -0.510077

  @DF-RHF Final Energy:  -414.97825388156411

   => Energetics <=

    Nuclear Repulsion Energy =            257.8716246756353598
    One-Electron Energy =               -1087.7007086870964940
    Two-Electron Energy =                 414.8508301298970764
    Total Energy =                       -414.9782538815641146
  Basis Set: (AUG-CC-PVTZ AUX)
    Blend: AUG-CC-PVTZ-RI
    Molecular point group: c1

    Geometry (in Angstrom), charge = 0, multiplicity = 1:

       Center              X                  Y                   Z               Mass
    ------------   -----------------  -----------------  -----------------  -----------------
         F           -0.101352674860     1.469447976171    -0.357459846231    18.998403162730
         F           -2.206213674860    -0.374972223829     0.044770753769    18.998403162730
         F            1.851256325140    -0.717043223829    -0.525166246231    18.998403162730
         C           -0.005324674860     0.359466776171     0.487627753769    12.000000000000
         C           -0.868270674860    -0.752049223829    -0.056095246231    12.000000000000
         C            1.437688325140    -0.052656223829     0.632941753769    12.000000000000
         H           -0.395645674860     0.691377776171     1.457307753769     1.007825032230
         H           -0.721370674860    -1.675039223829     0.514168753769     1.007825032230
         H           -0.626173674860    -0.924617223829    -1.105823246231     1.007825032230
         H            1.560229325140    -0.734021223829     1.481070753769     1.007825032230
         H            2.068254325140     0.828739776171     0.773085753769     1.007825032230

  Basis Set: AUG-CC-PVTZ
    Blend: AUG-CC-PVTZ
  Basis Set: (AUG-CC-PVTZ AUX)
    Blend: AUG-CC-PVTZ-JKFIT
	 Reference Energy          =    -414.9782538815641146 [Eh]
	 Singles Energy            =      -0.0000000000000000 [Eh]
	 Same-Spin Energy          =      -0.3375690009352606 [Eh]
	 Opposite-Spin Energy      =      -1.0491823052742384 [Eh]
	 Correlation Energy        =      -1.3867513062094989 [Eh]
	 Total Energy              =    -416.3650051877735905 [Eh]

	 ================> DF-SCS-MP2 Energies <==================
	-----------------------------------------------------------
	 SCS Same-Spin Scale       =       0.3333333333333333 [-]
	 SCS Opposite-Spin Scale   =       1.2000000000000000 [-]
	 SCS Same-Spin Energy      =      -0.1125230003117535 [Eh]
	 SCS Opposite-Spin Energy  =      -1.2590187663290859 [Eh]
	 SCS Correlation Energy    =      -1.3715417666408394 [Eh]
	 SCS Total Energy          =    -416.3497956482049744 [Eh]
	-----------------------------------------------------------

  Dipole Moment: [D]
     X:     1.4158      Y:    -1.0847      Z:     2.4143     Total:     3.0017

*** Psi4 exiting successfully. Buy a developer a beer!
