                               Psi4 1.3.2 release

  ==> Input File <==

--------------------------------------------------------------------------
#psi4
#
memory 32 gb

molecule  {
0 1
  F       -0.1090060     1.4691830    -0.4263280
  F       -2.2282763    -0.3290114    -0.0020389
  F        1.8245690    -0.6904460    -0.5579990
  C       -0.0320120     0.3860640     0.4547950
  C       -0.8949580    -0.7254520    -0.0889280
  C        1.4110010    -0.0260590     0.6001090
  H       -0.4223330     0.7179750     1.4244750
  H       -0.7480580    -1.6484420     0.4813360
  H       -0.6528610    -0.8980200    -1.1386560
  H        1.5335420    -0.7074240     1.4482380
  H        2.0415670     0.8553370     0.7402530
units angstrom
no_reorient  #important for SAPT in psi4, default
symmetry c1  #important for SAPT in psi4, default
}

set PROPERTIES_ORIGIN ["COM"]
properties('MP2/aug-cc-pvtz', properties = ['dipole'])
--------------------------------------------------------------------------

    Molecular point group: c1
  Charge       = 0
  Multiplicity = 1
  Basis Set: AUG-CC-PVTZ
    Blend: AUG-CC-PVTZ
  Basis Set: (AUG-CC-PVTZ AUX)
    Blend: AUG-CC-PVTZ-JKFIT

    Orbital Energies [Eh]
    ---------------------

    Doubly Occupied:

       1A    -26.300110     2A    -26.292486     3A    -26.289878
       4A    -11.339214     5A    -11.337477     6A    -11.327302
       7A     -1.612035     8A     -1.602114     9A     -1.592273
      10A     -1.093543    11A     -0.971743    12A     -0.857655
      13A     -0.757733    14A     -0.737734    15A     -0.736589
      16A     -0.705588    17A     -0.689497    18A     -0.678370
      19A     -0.671220    20A     -0.640519    21A     -0.620792
      22A     -0.555265    23A     -0.543273    24A     -0.531392
      25A     -0.509561

  @DF-RHF Final Energy:  -414.97819776397728

   => Energetics <=

    Nuclear Repulsion Energy =            258.3355690820806672
    One-Electron Energy =               -1088.6408131255409444
    Two-Electron Energy =                 415.3270462794830564
    Total Energy =                       -414.9781977639772776
  Basis Set: (AUG-CC-PVTZ AUX)
    Blend: AUG-CC-PVTZ-RI
    Molecular point group: c1

    Geometry (in Angstrom), charge = 0, multiplicity = 1:

       Center              X                  Y                   Z               Mass
    ------------   -----------------  -----------------  -----------------  -----------------
         F           -0.086903573839     1.444038955064    -0.383803194544    18.998403162730
         F           -2.206173873839    -0.354155444936     0.040485905456    18.998403162730
         F            1.846671426161    -0.715590044936    -0.515474194544    18.998403162730
         C           -0.009909573839     0.360919955064     0.497319805456    12.000000000000
         C           -0.872855573839    -0.750596044936    -0.046403194544    12.000000000000
         C            1.433103426161    -0.051203044936     0.642633805456    12.000000000000
         H           -0.400230573839     0.692830955064     1.466999805456     1.007825032230
         H           -0.725955573839    -1.673586044936     0.523860805456     1.007825032230
         H           -0.630758573839    -0.923164044936    -1.096131194544     1.007825032230
         H            1.555644426161    -0.732568044936     1.490762805456     1.007825032230
         H            2.063669426161     0.830192955064     0.782777805456     1.007825032230

  Basis Set: AUG-CC-PVTZ
    Blend: AUG-CC-PVTZ
  Basis Set: (AUG-CC-PVTZ AUX)
    Blend: AUG-CC-PVTZ-JKFIT
	 Reference Energy          =    -414.9781977639772776 [Eh]
	 Singles Energy            =      -0.0000000000000000 [Eh]
	 Same-Spin Energy          =      -0.3376094144428116 [Eh]
	 Opposite-Spin Energy      =      -1.0492493061929680 [Eh]
	 Correlation Energy        =      -1.3868587206357796 [Eh]
	 Total Energy              =    -416.3650564846130351 [Eh]

	 ================> DF-SCS-MP2 Energies <==================
	-----------------------------------------------------------
	 SCS Same-Spin Scale       =       0.3333333333333333 [-]
	 SCS Opposite-Spin Scale   =       1.2000000000000000 [-]
	 SCS Same-Spin Energy      =      -0.1125364714809372 [Eh]
	 SCS Opposite-Spin Energy  =      -1.2590991674315615 [Eh]
	 SCS Correlation Energy    =      -1.3716356389124986 [Eh]
	 SCS Total Energy          =    -416.3498334028897716 [Eh]
	-----------------------------------------------------------

  Dipole Moment: [D]
     X:     1.3816      Y:    -1.0683      Z:     2.4707     Total:     3.0256

*** Psi4 exiting successfully. Buy a developer a beer!
