                               Psi4 1.3.2 release

  ==> Input File <==

--------------------------------------------------------------------------
#psi4
#
memory 32 gb

molecule  {
0 1
  F       -0.1090060     1.4691830    -0.4263280
  F       -2.2394141    -0.3696256     0.0020546
  F        1.8245690    -0.6904460    -0.5579990
  C       -0.0320120     0.3860640     0.4547950
  C       -0.8949580    -0.7254520    -0.0889280
  C        1.4110010    -0.0260590     0.6001090
  H       -0.4223330     0.7179750     1.4244750
  H       -0.7480580    -1.6484420     0.4813360
  H       -0.6528610    -0.8980200    -1.1386560
  H        1.5335420    -0.7074240     1.4482380
  H        2.0415670     0.8553370     0.7402530
units angstrom
no_reorient  #important for SAPT in psi4, default
symmetry c1  #important for SAPT in psi4, default
}

set PROPERTIES_ORIGIN ["COM"]
properties('MP2/aug-cc-pvtz', properties = ['dipole'])
--------------------------------------------------------------------------

    Molecular point group: c1
  Charge       = 0
  Multiplicity = 1
  Basis Set: AUG-CC-PVTZ
    Blend: AUG-CC-PVTZ
  Basis Set: (AUG-CC-PVTZ AUX)
    Blend: AUG-CC-PVTZ-JKFIT

    Orbital Energies [Eh]
    ---------------------

    Doubly Occupied:

       1A    -26.300390     2A    -26.292944     3A    -26.289842
       4A    -11.340034     5A    -11.338134     6A    -11.327118
       7A     -1.612243     8A     -1.602067     9A     -1.592688
      10A     -1.093974    11A     -0.971894    12A     -0.857987
      13A     -0.758029    14A     -0.738150    15A     -0.736268
      16A     -0.705646    17A     -0.690001    18A     -0.678695
      19A     -0.671303    20A     -0.641185    21A     -0.620851
      22A     -0.555633    23A     -0.542365    24A     -0.531607
      25A     -0.510455

  @DF-RHF Final Energy:  -414.97835242720782

   => Energetics <=

    Nuclear Repulsion Energy =            257.9832826664145955
    One-Electron Energy =               -1087.9242662707108593
    Two-Electron Energy =                 414.9626311770883831
    Total Energy =                       -414.9783524272078239
  Basis Set: (AUG-CC-PVTZ AUX)
    Blend: AUG-CC-PVTZ-RI
    Molecular point group: c1

    Geometry (in Angstrom), charge = 0, multiplicity = 1:

       Center              X                  Y                   Z               Mass
    ------------   -----------------  -----------------  -----------------  -----------------
         F           -0.084745142148     1.451909717369    -0.384596487666    18.998403162730
         F           -2.215153242148    -0.386898882631     0.043786112334    18.998403162730
         F            1.848829857852    -0.707719282631    -0.516267487666    18.998403162730
         C           -0.007751142148     0.368790717369     0.496526512334    12.000000000000
         C           -0.870697142148    -0.742725282631    -0.047196487666    12.000000000000
         C            1.435261857852    -0.043332282631     0.641840512334    12.000000000000
         H           -0.398072142148     0.700701717369     1.466206512334     1.007825032230
         H           -0.723797142148    -1.665715282631     0.523067512334     1.007825032230
         H           -0.628600142148    -0.915293282631    -1.096924487666     1.007825032230
         H            1.557802857852    -0.724697282631     1.489969512334     1.007825032230
         H            2.065827857852     0.838063717369     0.781984512334     1.007825032230

  Basis Set: AUG-CC-PVTZ
    Blend: AUG-CC-PVTZ
  Basis Set: (AUG-CC-PVTZ AUX)
    Blend: AUG-CC-PVTZ-JKFIT
	 Reference Energy          =    -414.9783524272078239 [Eh]
	 Singles Energy            =      -0.0000000000000000 [Eh]
	 Same-Spin Energy          =      -0.3375765924655371 [Eh]
	 Opposite-Spin Energy      =      -1.0492102363579923 [Eh]
	 Correlation Energy        =      -1.3867868288235292 [Eh]
	 Total Energy              =    -416.3651392560313411 [Eh]

	 ================> DF-SCS-MP2 Energies <==================
	-----------------------------------------------------------
	 SCS Same-Spin Scale       =       0.3333333333333333 [-]
	 SCS Opposite-Spin Scale   =       1.2000000000000000 [-]
	 SCS Same-Spin Energy      =      -0.1125255308218457 [Eh]
	 SCS Opposite-Spin Energy  =      -1.2590522836295908 [Eh]
	 SCS Correlation Energy    =      -1.3715778144514363 [Eh]
	 SCS Total Energy          =    -416.3499302416592514 [Eh]
	-----------------------------------------------------------

  Dipole Moment: [D]
     X:     1.4084      Y:    -1.0143      Z:     2.4703     Total:     3.0191

*** Psi4 exiting successfully. Buy a developer a beer!
