                               Psi4 1.3.2 release

  ==> Input File <==

--------------------------------------------------------------------------
#psi4
#
memory 32 gb

molecule  {
0 1
  F       -0.0938585     1.4817354    -0.4118836
  F       -2.2329010    -0.3483750     0.0119380
  F        1.8245690    -0.6904460    -0.5579990
  C       -0.0320120     0.3860640     0.4547950
  C       -0.8949580    -0.7254520    -0.0889280
  C        1.4110010    -0.0260590     0.6001090
  H       -0.4223330     0.7179750     1.4244750
  H       -0.7480580    -1.6484420     0.4813360
  H       -0.6528610    -0.8980200    -1.1386560
  H        1.5335420    -0.7074240     1.4482380
  H        2.0415670     0.8553370     0.7402530
units angstrom
no_reorient  #important for SAPT in psi4, default
symmetry c1  #important for SAPT in psi4, default
}

set PROPERTIES_ORIGIN ["COM"]
properties('MP2/aug-cc-pvtz', properties = ['dipole'])
--------------------------------------------------------------------------

    Molecular point group: c1
  Charge       = 0
  Multiplicity = 1
  Basis Set: AUG-CC-PVTZ
    Blend: AUG-CC-PVTZ
  Basis Set: (AUG-CC-PVTZ AUX)
    Blend: AUG-CC-PVTZ-JKFIT

    Orbital Energies [Eh]
    ---------------------

    Doubly Occupied:

       1A    -26.300075     2A    -26.292716     3A    -26.290296
       4A    -11.339414     5A    -11.337250     6A    -11.327959
       7A     -1.612041     8A     -1.602069     9A     -1.592919
      10A     -1.093711    11A     -0.971863    12A     -0.857934
      13A     -0.757902    14A     -0.737975    15A     -0.736143
      16A     -0.705912    17A     -0.689742    18A     -0.678555
      19A     -0.671600    20A     -0.641280    21A     -0.620729
      22A     -0.554777    23A     -0.543633    24A     -0.531275
      25A     -0.510175

  @DF-RHF Final Energy:  -414.97833792454145

   => Energetics <=

    Nuclear Repulsion Energy =            258.0597009041874230
    One-Electron Energy =               -1088.0801848003334271
    Two-Electron Energy =                 415.0421459716046115
    Total Energy =                       -414.9783379245414494
  Basis Set: (AUG-CC-PVTZ AUX)
    Blend: AUG-CC-PVTZ-RI
    Molecular point group: c1

    Geometry (in Angstrom), charge = 0, multiplicity = 1:

       Center              X                  Y                   Z               Mass
    ------------   -----------------  -----------------  -----------------  -----------------
         F           -0.073795322614     1.457911320402    -0.374866653783    18.998403162730
         F           -2.212837822614    -0.372199079598     0.048954946217    18.998403162730
         F            1.844632177386    -0.714270079598    -0.520982053783    18.998403162730
         C           -0.011948822614     0.362239920402     0.491811946217    12.000000000000
         C           -0.874894822614    -0.749276079598    -0.051911053783    12.000000000000
         C            1.431064177386    -0.049883079598     0.637125946217    12.000000000000
         H           -0.402269822614     0.694150920402     1.461491946217     1.007825032230
         H           -0.727994822614    -1.672266079598     0.518352946217     1.007825032230
         H           -0.632797822614    -0.921844079598    -1.101639053783     1.007825032230
         H            1.553605177386    -0.731248079598     1.485254946217     1.007825032230
         H            2.061630177386     0.831512920402     0.777269946217     1.007825032230

  Basis Set: AUG-CC-PVTZ
    Blend: AUG-CC-PVTZ
  Basis Set: (AUG-CC-PVTZ AUX)
    Blend: AUG-CC-PVTZ-JKFIT
	 Reference Energy          =    -414.9783379245414494 [Eh]
	 Singles Energy            =      -0.0000000000000000 [Eh]
	 Same-Spin Energy          =      -0.3375751017204679 [Eh]
	 Opposite-Spin Energy      =      -1.0492019874399681 [Eh]
	 Correlation Energy        =      -1.3867770891604358 [Eh]
	 Total Energy              =    -416.3651150137018817 [Eh]

	 ================> DF-SCS-MP2 Energies <==================
	-----------------------------------------------------------
	 SCS Same-Spin Scale       =       0.3333333333333333 [-]
	 SCS Opposite-Spin Scale   =       1.2000000000000000 [-]
	 SCS Same-Spin Energy      =      -0.1125250339068226 [Eh]
	 SCS Opposite-Spin Energy  =      -1.2590423849279617 [Eh]
	 SCS Correlation Energy    =      -1.3715674188347844 [Eh]
	 SCS Total Energy          =    -416.3499053433762356 [Eh]
	-----------------------------------------------------------

  Dipole Moment: [D]
     X:     1.3660      Y:    -1.0643      Z:     2.4357     Total:     2.9886

*** Psi4 exiting successfully. Buy a developer a beer!
