                               Psi4 1.3.2 release

  ==> Input File <==

--------------------------------------------------------------------------
#psi4
#
memory 32 gb

molecule  {
0 1
  F       -0.1241300     1.4563007    -0.4405040
  F       -2.2329010    -0.3483750     0.0119380
  F        1.8245690    -0.6904460    -0.5579990
  C       -0.0320120     0.3860640     0.4547950
  C       -0.8949580    -0.7254520    -0.0889280
  C        1.4110010    -0.0260590     0.6001090
  H       -0.4223330     0.7179750     1.4244750
  H       -0.7480580    -1.6484420     0.4813360
  H       -0.6528610    -0.8980200    -1.1386560
  H        1.5335420    -0.7074240     1.4482380
  H        2.0415670     0.8553370     0.7402530
units angstrom
no_reorient  #important for SAPT in psi4, default
symmetry c1  #important for SAPT in psi4, default
}

set PROPERTIES_ORIGIN ["COM"]
properties('MP2/aug-cc-pvtz', properties = ['dipole'])
--------------------------------------------------------------------------

    Molecular point group: c1
  Charge       = 0
  Multiplicity = 1
  Basis Set: AUG-CC-PVTZ
    Blend: AUG-CC-PVTZ
  Basis Set: (AUG-CC-PVTZ AUX)
    Blend: AUG-CC-PVTZ-JKFIT

    Orbital Energies [Eh]
    ---------------------

    Doubly Occupied:

       1A    -26.300387     2A    -26.292654     3A    -26.289552
       4A    -11.339531     5A    -11.338101     6A    -11.326562
       7A     -1.612228     8A     -1.602181     9A     -1.592125
      10A     -1.093646    11A     -0.971751    12A     -0.857653
      13A     -0.757978    14A     -0.737693    15A     -0.736797
      16A     -0.705318    17A     -0.689753    18A     -0.678480
      19A     -0.670924    20A     -0.640500    21A     -0.620910
      22A     -0.556084    23A     -0.541915    24A     -0.532080
      25A     -0.509526

  @DF-RHF Final Energy:  -414.97818221325292

   => Energetics <=

    Nuclear Repulsion Energy =            258.3109159506023502
    One-Electron Energy =               -1088.5895353115561193
    Two-Electron Energy =                 415.3004371477009045
    Total Energy =                       -414.9781822132529214
  Basis Set: (AUG-CC-PVTZ AUX)
    Blend: AUG-CC-PVTZ-RI
    Molecular point group: c1

    Geometry (in Angstrom), charge = 0, multiplicity = 1:

       Center              X                  Y                   Z               Mass
    ------------   -----------------  -----------------  -----------------  -----------------
         F           -0.098200406899     1.437405696390    -0.397940610286    18.998403162730
         F           -2.206971406899    -0.367270003610     0.054501389714    18.998403162730
         F            1.850498593101    -0.709341003610    -0.515435610286    18.998403162730
         C           -0.006082406899     0.367168996390     0.497358389714    12.000000000000
         C           -0.869028406899    -0.744347003610    -0.046364610286    12.000000000000
         C            1.436930593101    -0.044954003610     0.642672389714    12.000000000000
         H           -0.396403406899     0.699079996390     1.467038389714     1.007825032230
         H           -0.722128406899    -1.667337003610     0.523899389714     1.007825032230
         H           -0.626931406899    -0.916915003610    -1.096092610286     1.007825032230
         H            1.559471593101    -0.726319003610     1.490801389714     1.007825032230
         H            2.067496593101     0.836441996390     0.782816389714     1.007825032230

  Basis Set: AUG-CC-PVTZ
    Blend: AUG-CC-PVTZ
  Basis Set: (AUG-CC-PVTZ AUX)
    Blend: AUG-CC-PVTZ-JKFIT
	 Reference Energy          =    -414.9781822132529214 [Eh]
	 Singles Energy            =      -0.0000000000000000 [Eh]
	 Same-Spin Energy          =      -0.3376109110139449 [Eh]
	 Opposite-Spin Energy      =      -1.0492556673121434 [Eh]
	 Correlation Energy        =      -1.3868665783260883 [Eh]
	 Total Energy              =    -416.3650487915789995 [Eh]

	 ================> DF-SCS-MP2 Energies <==================
	-----------------------------------------------------------
	 SCS Same-Spin Scale       =       0.3333333333333333 [-]
	 SCS Opposite-Spin Scale   =       1.2000000000000000 [-]
	 SCS Same-Spin Energy      =      -0.1125369703379816 [Eh]
	 SCS Opposite-Spin Energy  =      -1.2591068007745720 [Eh]
	 SCS Correlation Energy    =      -1.3716437711125538 [Eh]
	 SCS Total Energy          =    -416.3498259843654523 [Eh]
	-----------------------------------------------------------

  Dipole Moment: [D]
     X:     1.4178      Y:    -1.0218      Z:     2.4744     Total:     3.0293

*** Psi4 exiting successfully. Buy a developer a beer!
