                               Psi4 1.3.2 release

  ==> Input File <==

--------------------------------------------------------------------------
#psi4
#
memory 32 gb

molecule  {
0 1
  F       -0.0898782     1.4410012    -0.4612899
  F       -2.2329010    -0.3483750     0.0119380
  F        1.8245690    -0.6904460    -0.5579990
  C       -0.0320120     0.3860640     0.4547950
  C       -0.8949580    -0.7254520    -0.0889280
  C        1.4110010    -0.0260590     0.6001090
  H       -0.4223330     0.7179750     1.4244750
  H       -0.7480580    -1.6484420     0.4813360
  H       -0.6528610    -0.8980200    -1.1386560
  H        1.5335420    -0.7074240     1.4482380
  H        2.0415670     0.8553370     0.7402530
units angstrom
no_reorient  #important for SAPT in psi4, default
symmetry c1  #important for SAPT in psi4, default
}

set PROPERTIES_ORIGIN ["COM"]
properties('MP2/aug-cc-pvtz', properties = ['dipole'])
--------------------------------------------------------------------------

    Molecular point group: c1
  Charge       = 0
  Multiplicity = 1
  Basis Set: AUG-CC-PVTZ
    Blend: AUG-CC-PVTZ
  Basis Set: (AUG-CC-PVTZ AUX)
    Blend: AUG-CC-PVTZ-JKFIT

    Orbital Energies [Eh]
    ---------------------

    Doubly Occupied:

       1A    -26.299889     2A    -26.292792     3A    -26.289790
       4A    -11.339647     5A    -11.337212     6A    -11.326608
       7A     -1.612303     8A     -1.601840     9A     -1.592460
      10A     -1.093462    11A     -0.971627    12A     -0.857376
      13A     -0.758677    14A     -0.737351    15A     -0.736650
      16A     -0.705265    17A     -0.689375    18A     -0.678418
      19A     -0.670673    20A     -0.640651    21A     -0.621435
      22A     -0.555737    23A     -0.541430    24A     -0.532115
      25A     -0.509646

  @DF-RHF Final Energy:  -414.97793331859140

   => Energetics <=

    Nuclear Repulsion Energy =            258.5103592607416658
    One-Electron Energy =               -1088.9917286138818326
    Two-Electron Energy =                 415.5034360345487698
    Total Energy =                       -414.9779333185913970
  Basis Set: (AUG-CC-PVTZ AUX)
    Blend: AUG-CC-PVTZ-RI
    Molecular point group: c1

    Geometry (in Angstrom), charge = 0, multiplicity = 1:

       Center              X                  Y                   Z               Mass
    ------------   -----------------  -----------------  -----------------  -----------------
         F           -0.070586378327     1.425071137910    -0.414698340873    18.998403162730
         F           -2.213609178327    -0.364305062090     0.058529559127    18.998403162730
         F            1.843860821673    -0.706376062090    -0.511407440873    18.998403162730
         C           -0.012720178327     0.370133937910     0.501386559127    12.000000000000
         C           -0.875666178327    -0.741382062090    -0.042336440873    12.000000000000
         C            1.430292821673    -0.041989062090     0.646700559127    12.000000000000
         H           -0.403041178327     0.702044937910     1.471066559127     1.007825032230
         H           -0.728766178327    -1.664372062090     0.527927559127     1.007825032230
         H           -0.633569178327    -0.913950062090    -1.092064440873     1.007825032230
         H            1.552833821673    -0.723354062090     1.494829559127     1.007825032230
         H            2.060858821673     0.839406937910     0.786844559127     1.007825032230

  Basis Set: AUG-CC-PVTZ
    Blend: AUG-CC-PVTZ
  Basis Set: (AUG-CC-PVTZ AUX)
    Blend: AUG-CC-PVTZ-JKFIT
	 Reference Energy          =    -414.9779333185913970 [Eh]
	 Singles Energy            =      -0.0000000000000000 [Eh]
	 Same-Spin Energy          =      -0.3376290758827194 [Eh]
	 Opposite-Spin Energy      =      -1.0492986858329849 [Eh]
	 Correlation Energy        =      -1.3869277617157043 [Eh]
	 Total Energy              =    -416.3648610803070937 [Eh]

	 ================> DF-SCS-MP2 Energies <==================
	-----------------------------------------------------------
	 SCS Same-Spin Scale       =       0.3333333333333333 [-]
	 SCS Opposite-Spin Scale   =       1.2000000000000000 [-]
	 SCS Same-Spin Energy      =      -0.1125430252942398 [Eh]
	 SCS Opposite-Spin Energy  =      -1.2591584229995818 [Eh]
	 SCS Correlation Energy    =      -1.3717014482938217 [Eh]
	 SCS Total Energy          =    -416.3496347668852309 [Eh]
	-----------------------------------------------------------

  Dipole Moment: [D]
     X:     1.3678      Y:    -0.9996      Z:     2.4943     Total:     3.0152

*** Psi4 exiting successfully. Buy a developer a beer!
