                               Psi4 1.3.2 release

  ==> Input File <==

--------------------------------------------------------------------------
#psi4
#
memory 32 gb

molecule  {
0 1
  F       -0.1090060     1.4691830    -0.4263280
  F       -2.2259803    -0.3272393     0.0217906
  F        1.8245690    -0.6904460    -0.5579990
  C       -0.0320120     0.3860640     0.4547950
  C       -0.8949580    -0.7254520    -0.0889280
  C        1.4110010    -0.0260590     0.6001090
  H       -0.4223330     0.7179750     1.4244750
  H       -0.7480580    -1.6484420     0.4813360
  H       -0.6528610    -0.8980200    -1.1386560
  H        1.5335420    -0.7074240     1.4482380
  H        2.0415670     0.8553370     0.7402530
units angstrom
no_reorient  #important for SAPT in psi4, default
symmetry c1  #important for SAPT in psi4, default
}

set PROPERTIES_ORIGIN ["COM"]
properties('MP2/aug-cc-pvtz', properties = ['dipole'])
--------------------------------------------------------------------------

    Molecular point group: c1
  Charge       = 0
  Multiplicity = 1
  Basis Set: AUG-CC-PVTZ
    Blend: AUG-CC-PVTZ
  Basis Set: (AUG-CC-PVTZ AUX)
    Blend: AUG-CC-PVTZ-JKFIT

    Orbital Energies [Eh]
    ---------------------

    Doubly Occupied:

       1A    -26.300066     2A    -26.292427     3A    -26.290006
       4A    -11.338905     5A    -11.337217     6A    -11.327404
       7A     -1.612020     8A     -1.602180     9A     -1.592355
      10A     -1.093381    11A     -0.971718    12A     -0.857605
      13A     -0.757848    14A     -0.737501    15A     -0.736677
      16A     -0.705588    17A     -0.689479    18A     -0.678337
      19A     -0.671233    20A     -0.640605    21A     -0.620772
      22A     -0.555221    23A     -0.543194    24A     -0.531753
      25A     -0.509240

  @DF-RHF Final Energy:  -414.97818058791046

   => Energetics <=

    Nuclear Repulsion Energy =            258.3874075255774301
    One-Electron Energy =               -1088.7457128942724012
    Two-Electron Energy =                 415.3801247807845698
    Total Energy =                       -414.9781805879104581
  Basis Set: (AUG-CC-PVTZ AUX)
    Blend: AUG-CC-PVTZ-RI
    Molecular point group: c1

    Geometry (in Angstrom), charge = 0, multiplicity = 1:

       Center              X                  Y                   Z               Mass
    ------------   -----------------  -----------------  -----------------  -----------------
         F           -0.087348523395     1.443695533850    -0.388421193430    18.998403162730
         F           -2.204322823395    -0.352726766150     0.059697406570    18.998403162730
         F            1.846226476605    -0.715933466150    -0.520092193430    18.998403162730
         C           -0.010354523395     0.360576533850     0.492701806570    12.000000000000
         C           -0.873300523395    -0.750939466150    -0.051021193430    12.000000000000
         C            1.432658476605    -0.051546466150     0.638015806570    12.000000000000
         H           -0.400675523395     0.692487533850     1.462381806570     1.007825032230
         H           -0.726400523395    -1.673929466150     0.519242806570     1.007825032230
         H           -0.631203523395    -0.923507466150    -1.100749193430     1.007825032230
         H            1.555199476605    -0.732911466150     1.486144806570     1.007825032230
         H            2.063224476605     0.829849533850     0.778159806570     1.007825032230

  Basis Set: AUG-CC-PVTZ
    Blend: AUG-CC-PVTZ
  Basis Set: (AUG-CC-PVTZ AUX)
    Blend: AUG-CC-PVTZ-JKFIT
	 Reference Energy          =    -414.9781805879104581 [Eh]
	 Singles Energy            =      -0.0000000000000000 [Eh]
	 Same-Spin Energy          =      -0.3376089960110873 [Eh]
	 Opposite-Spin Energy      =      -1.0492468346223536 [Eh]
	 Correlation Energy        =      -1.3868558306334409 [Eh]
	 Total Energy              =    -416.3650364185439230 [Eh]

	 ================> DF-SCS-MP2 Energies <==================
	-----------------------------------------------------------
	 SCS Same-Spin Scale       =       0.3333333333333333 [-]
	 SCS Opposite-Spin Scale   =       1.2000000000000000 [-]
	 SCS Same-Spin Energy      =      -0.1125363320036958 [Eh]
	 SCS Opposite-Spin Energy  =      -1.2590962015468243 [Eh]
	 SCS Correlation Energy    =      -1.3716325335505202 [Eh]
	 SCS Total Energy          =    -416.3498131214609543 [Eh]
	-----------------------------------------------------------

  Dipole Moment: [D]
     X:     1.3745      Y:    -1.0724      Z:     2.4404     Total:     2.9991

*** Psi4 exiting successfully. Buy a developer a beer!
