                               Psi4 1.3.2 release

  ==> Input File <==

--------------------------------------------------------------------------
#psi4
#
memory 32 gb

molecule  {
0 1
  F       -0.1090060     1.4691830    -0.4263280
  F       -2.2409265    -0.3874408     0.0397954
  F        1.8245690    -0.6904460    -0.5579990
  C       -0.0320120     0.3860640     0.4547950
  C       -0.8949580    -0.7254520    -0.0889280
  C        1.4110010    -0.0260590     0.6001090
  H       -0.4223330     0.7179750     1.4244750
  H       -0.7480580    -1.6484420     0.4813360
  H       -0.6528610    -0.8980200    -1.1386560
  H        1.5335420    -0.7074240     1.4482380
  H        2.0415670     0.8553370     0.7402530
units angstrom
no_reorient  #important for SAPT in psi4, default
symmetry c1  #important for SAPT in psi4, default
}

set PROPERTIES_ORIGIN ["COM"]
properties('MP2/aug-cc-pvtz', properties = ['dipole'])
--------------------------------------------------------------------------

    Molecular point group: c1
  Charge       = 0
  Multiplicity = 1
  Basis Set: AUG-CC-PVTZ
    Blend: AUG-CC-PVTZ
  Basis Set: (AUG-CC-PVTZ AUX)
    Blend: AUG-CC-PVTZ-JKFIT

    Orbital Energies [Eh]
    ---------------------

    Doubly Occupied:

       1A    -26.300459     2A    -26.293068     3A    -26.290005
       4A    -11.339978     5A    -11.338072     6A    -11.327175
       7A     -1.612317     8A     -1.602137     9A     -1.593019
      10A     -1.093943    11A     -0.971927    12A     -0.858072
      13A     -0.758344    14A     -0.738099    15A     -0.736173
      16A     -0.705674    17A     -0.690232    18A     -0.678821
      19A     -0.671353    20A     -0.641589    21A     -0.620892
      22A     -0.555736    23A     -0.541615    24A     -0.532227
      25A     -0.510487

  @DF-RHF Final Energy:  -414.97825891116912

   => Energetics <=

    Nuclear Repulsion Energy =            257.8901135882886138
    One-Electron Energy =               -1087.7339165501477964
    Two-Electron Energy =                 414.8655440506900618
    Total Energy =                       -414.9782589111691209
  Basis Set: (AUG-CC-PVTZ AUX)
    Blend: AUG-CC-PVTZ-RI
    Molecular point group: c1

    Geometry (in Angstrom), charge = 0, multiplicity = 1:

       Center              X                  Y                   Z               Mass
    ------------   -----------------  -----------------  -----------------  -----------------
         F           -0.084452049069     1.455362184846    -0.391910404128    18.998403162730
         F           -2.216372549069    -0.401261615154     0.074212995872    18.998403162730
         F            1.849122950931    -0.704266815154    -0.523581404128    18.998403162730
         C           -0.007458049069     0.372243184846     0.489212595872    12.000000000000
         C           -0.870404049069    -0.739272815154    -0.054510404128    12.000000000000
         C            1.435554950931    -0.039879815154     0.634526595872    12.000000000000
         H           -0.397779049069     0.704154184846     1.458892595872     1.007825032230
         H           -0.723504049069    -1.662262815154     0.515753595872     1.007825032230
         H           -0.628307049069    -0.911840815154    -1.104238404128     1.007825032230
         H            1.558095950931    -0.721244815154     1.482655595872     1.007825032230
         H            2.066120950931     0.841516184846     0.774670595872     1.007825032230

  Basis Set: AUG-CC-PVTZ
    Blend: AUG-CC-PVTZ
  Basis Set: (AUG-CC-PVTZ AUX)
    Blend: AUG-CC-PVTZ-JKFIT
	 Reference Energy          =    -414.9782589111691209 [Eh]
	 Singles Energy            =      -0.0000000000000000 [Eh]
	 Same-Spin Energy          =      -0.3375648937409626 [Eh]
	 Opposite-Spin Energy      =      -1.0491960739810837 [Eh]
	 Correlation Energy        =      -1.3867609677220463 [Eh]
	 Total Energy              =    -416.3650198788911894 [Eh]

	 ================> DF-SCS-MP2 Energies <==================
	-----------------------------------------------------------
	 SCS Same-Spin Scale       =       0.3333333333333333 [-]
	 SCS Opposite-Spin Scale   =       1.2000000000000000 [-]
	 SCS Same-Spin Energy      =      -0.1125216312469875 [Eh]
	 SCS Opposite-Spin Energy  =      -1.2590352887773004 [Eh]
	 SCS Correlation Energy    =      -1.3715569200242879 [Eh]
	 SCS Total Energy          =    -416.3498158311933821 [Eh]
	-----------------------------------------------------------

  Dipole Moment: [D]
     X:     1.4101      Y:    -0.9933      Z:     2.4245     Total:     2.9755

*** Psi4 exiting successfully. Buy a developer a beer!
