                               Psi4 1.3.2 release

  ==> Input File <==

--------------------------------------------------------------------------
#psi4
#
memory 32 gb

molecule  {
0 1
  F       -0.1090060     1.4691830    -0.4263280
  F       -2.2455177    -0.3909846    -0.0078565
  F        1.8245690    -0.6904460    -0.5579990
  C       -0.0320120     0.3860640     0.4547950
  C       -0.8949580    -0.7254520    -0.0889280
  C        1.4110010    -0.0260590     0.6001090
  H       -0.4223330     0.7179750     1.4244750
  H       -0.7480580    -1.6484420     0.4813360
  H       -0.6528610    -0.8980200    -1.1386560
  H        1.5335420    -0.7074240     1.4482380
  H        2.0415670     0.8553370     0.7402530
units angstrom
no_reorient  #important for SAPT in psi4, default
symmetry c1  #important for SAPT in psi4, default
}

set PROPERTIES_ORIGIN ["COM"]
properties('MP2/aug-cc-pvtz', properties = ['dipole'])
--------------------------------------------------------------------------

    Molecular point group: c1
  Charge       = 0
  Multiplicity = 1
  Basis Set: AUG-CC-PVTZ
    Blend: AUG-CC-PVTZ
  Basis Set: (AUG-CC-PVTZ AUX)
    Blend: AUG-CC-PVTZ-JKFIT

    Orbital Energies [Eh]
    ---------------------

    Doubly Occupied:

       1A    -26.300539     2A    -26.293194     3A    -26.289751
       4A    -11.340596     5A    -11.338574     6A    -11.326973
       7A     -1.612360     8A     -1.602032     9A     -1.592834
      10A     -1.094259    11A     -0.971975    12A     -0.858187
      13A     -0.758128    14A     -0.738502    15A     -0.736051
      16A     -0.705683    17A     -0.690251    18A     -0.678866
      19A     -0.671328    20A     -0.641451    21A     -0.620852
      22A     -0.555834    23A     -0.541949    24A     -0.531536
      25A     -0.510967

  @DF-RHF Final Energy:  -414.97825728704652

   => Energetics <=

    Nuclear Repulsion Energy =            257.7898388046766627
    One-Electron Energy =               -1087.5308476963509747
    Two-Electron Energy =                 414.7627516046277378
    Total Energy =                       -414.9782572870465174
  Basis Set: (AUG-CC-PVTZ AUX)
    Blend: AUG-CC-PVTZ-RI
    Molecular point group: c1

    Geometry (in Angstrom), charge = 0, multiplicity = 1:

       Center              X                  Y                   Z               Mass
    ------------   -----------------  -----------------  -----------------  -----------------
         F           -0.083562304992     1.456048949757    -0.382675782290    18.998403162730
         F           -2.220074004992    -0.404118650243     0.035795717710    18.998403162730
         F            1.850012695008    -0.703580050243    -0.514346782290    18.998403162730
         C           -0.006568304992     0.372929949757     0.498447217710    12.000000000000
         C           -0.869514304992    -0.738586050243    -0.045275782290    12.000000000000
         C            1.436444695008    -0.039193050243     0.643761217710    12.000000000000
         H           -0.396889304992     0.704840949757     1.468127217710     1.007825032230
         H           -0.722614304992    -1.661576050243     0.524988217710     1.007825032230
         H           -0.627417304992    -0.911154050243    -1.095003782290     1.007825032230
         H            1.558985695008    -0.720558050243     1.491890217710     1.007825032230
         H            2.067010695008     0.842202949757     0.783905217710     1.007825032230

  Basis Set: AUG-CC-PVTZ
    Blend: AUG-CC-PVTZ
  Basis Set: (AUG-CC-PVTZ AUX)
    Blend: AUG-CC-PVTZ-JKFIT
	 Reference Energy          =    -414.9782572870465174 [Eh]
	 Singles Energy            =      -0.0000000000000000 [Eh]
	 Same-Spin Energy          =      -0.3375667921484989 [Eh]
	 Opposite-Spin Energy      =      -1.0492036322210336 [Eh]
	 Correlation Energy        =      -1.3867704243695327 [Eh]
	 Total Energy              =    -416.3650277114160758 [Eh]

	 ================> DF-SCS-MP2 Energies <==================
	-----------------------------------------------------------
	 SCS Same-Spin Scale       =       0.3333333333333333 [-]
	 SCS Opposite-Spin Scale   =       1.2000000000000000 [-]
	 SCS Same-Spin Energy      =      -0.1125222640494996 [Eh]
	 SCS Opposite-Spin Energy  =      -1.2590443586652402 [Eh]
	 SCS Correlation Energy    =      -1.3715666227147398 [Eh]
	 SCS Total Energy          =    -416.3498239097612554 [Eh]
	-----------------------------------------------------------

  Dipole Moment: [D]
     X:     1.4240      Y:    -0.9849      Z:     2.4853     Total:     3.0289

*** Psi4 exiting successfully. Buy a developer a beer!
