                               Psi4 1.3.2 release

  ==> Input File <==

--------------------------------------------------------------------------
#psi4
#
memory 32 gb

molecule  {
0 1
  F       -0.1090060     1.4691830    -0.4263280
  F       -2.2520502    -0.4667597     0.0950059
  F        1.8245690    -0.6904460    -0.5579990
  C       -0.0320120     0.3860640     0.4547950
  C       -0.8949580    -0.7254520    -0.0889280
  C        1.4110010    -0.0260590     0.6001090
  H       -0.4223330     0.7179750     1.4244750
  H       -0.7480580    -1.6484420     0.4813360
  H       -0.6528610    -0.8980200    -1.1386560
  H        1.5335420    -0.7074240     1.4482380
  H        2.0415670     0.8553370     0.7402530
units angstrom
no_reorient  #important for SAPT in psi4, default
symmetry c1  #important for SAPT in psi4, default
}

set PROPERTIES_ORIGIN ["COM"]
properties('MP2/aug-cc-pvtz', properties = ['dipole'])
--------------------------------------------------------------------------

    Molecular point group: c1
  Charge       = 0
  Multiplicity = 1
  Basis Set: AUG-CC-PVTZ
    Blend: AUG-CC-PVTZ
  Basis Set: (AUG-CC-PVTZ AUX)
    Blend: AUG-CC-PVTZ-JKFIT

    Orbital Energies [Eh]
    ---------------------

    Doubly Occupied:

       1A    -26.300840     2A    -26.293726     3A    -26.290102
       4A    -11.340969     5A    -11.338778     6A    -11.326972
       7A     -1.612669     8A     -1.602228     9A     -1.593947
      10A     -1.094402    11A     -0.972120    12A     -0.858641
      13A     -0.759174    14A     -0.738868    15A     -0.735513
      16A     -0.705818    17A     -0.691189    18A     -0.679459
      19A     -0.671460    20A     -0.642658    21A     -0.621042
      22A     -0.556260    23A     -0.538551    24A     -0.533202
      25A     -0.511584

  @DF-RHF Final Energy:  -414.97679839647219

   => Energetics <=

    Nuclear Repulsion Energy =            257.3600824801739577
    One-Electron Energy =               -1086.6534221796407564
    Two-Electron Energy =                 414.3165413029945512
    Total Energy =                       -414.9767983964721907
  Basis Set: (AUG-CC-PVTZ AUX)
    Blend: AUG-CC-PVTZ-RI
    Molecular point group: c1

    Geometry (in Angstrom), charge = 0, multiplicity = 1:

       Center              X                  Y                   Z               Mass
    ------------   -----------------  -----------------  -----------------  -----------------
         F           -0.082296349864     1.470733661034    -0.402609832462    18.998403162730
         F           -2.225340549864    -0.465209038966     0.118724067538    18.998403162730
         F            1.851278650136    -0.688895338966    -0.534280832462    18.998403162730
         C           -0.005302349864     0.387614661034     0.478513167538    12.000000000000
         C           -0.868248349864    -0.723901338966    -0.065209832462    12.000000000000
         C            1.437710650136    -0.024508338966     0.623827167538    12.000000000000
         H           -0.395623349864     0.719525661034     1.448193167538     1.007825032230
         H           -0.721348349864    -1.646891338966     0.505054167538     1.007825032230
         H           -0.626151349864    -0.896469338966    -1.114937832462     1.007825032230
         H            1.560251650136    -0.705873338966     1.471956167538     1.007825032230
         H            2.068276650136     0.856887661034     0.763971167538     1.007825032230

  Basis Set: AUG-CC-PVTZ
    Blend: AUG-CC-PVTZ
  Basis Set: (AUG-CC-PVTZ AUX)
    Blend: AUG-CC-PVTZ-JKFIT
	 Reference Energy          =    -414.9767983964721907 [Eh]
	 Singles Energy            =      -0.0000000000000000 [Eh]
	 Same-Spin Energy          =      -0.3375621015132435 [Eh]
	 Opposite-Spin Energy      =      -1.0492257274768566 [Eh]
	 Correlation Energy        =      -1.3867878289901001 [Eh]
	 Total Energy              =    -416.3635862254623135 [Eh]

	 ================> DF-SCS-MP2 Energies <==================
	-----------------------------------------------------------
	 SCS Same-Spin Scale       =       0.3333333333333333 [-]
	 SCS Opposite-Spin Scale   =       1.2000000000000000 [-]
	 SCS Same-Spin Energy      =      -0.1125207005044145 [Eh]
	 SCS Opposite-Spin Energy  =      -1.2590708729722280 [Eh]
	 SCS Correlation Energy    =      -1.3715915734766424 [Eh]
	 SCS Total Energy          =    -416.3483899699488120 [Eh]
	-----------------------------------------------------------

  Dipole Moment: [D]
     X:     1.4363      Y:    -0.8914      Z:     2.3632     Total:     2.9055

*** Psi4 exiting successfully. Buy a developer a beer!
