                               Psi4 1.4a3.dev225

  ==> Input File <==

--------------------------------------------------------------------------
#psi4
#
memory 32 gb

molecule  {
0 1
  F       -0.1084850     1.4692890    -0.4260300
  F       -2.2331630    -0.3482300     0.0117680
  F        1.8246690    -0.6901440    -0.5582290
  C       -0.0347148     0.4247399     0.4232545
  C       -0.8952010    -0.7252310    -0.0890380
  C        1.4108330    -0.0266950     0.6002700
  H       -0.4221970     0.7178410     1.4244990
  H       -0.7481970    -1.6482080     0.4812370
  H       -0.6530720    -0.8976150    -1.1387410
  H        1.5326250    -0.7089740     1.4478000
  H        2.0417420     0.8542580     0.7417190
units angstrom
no_reorient  #important for SAPT in psi4, default
symmetry c1  #important for SAPT in psi4, default
}

set PROPERTIES_ORIGIN ["COM"]
properties('MP2/aug-cc-pvtz', properties = ['dipole'])
--------------------------------------------------------------------------

    Molecular point group: c1
  Charge       = 0
  Multiplicity = 1
  Basis Set: AUG-CC-PVTZ
    Blend: AUG-CC-PVTZ
  Basis Set: (AUG-CC-PVTZ AUX)
    Blend: AUG-CC-PVTZ-JKFIT

    Orbital Energies [Eh]
    ---------------------

    Doubly Occupied:

       1A    -26.304862     2A    -26.298298     3A    -26.288053
       4A    -11.339454     5A    -11.335605     6A    -11.325268
       7A     -1.631119     8A     -1.604605     9A     -1.594650
      10A     -1.085671    11A     -0.967653    12A     -0.861395
      13A     -0.762355    14A     -0.742739    15A     -0.738757
      16A     -0.705428    17A     -0.696440    18A     -0.684261
      19A     -0.675136    20A     -0.646125    21A     -0.622077
      22A     -0.555224    23A     -0.542138    24A     -0.522059
      25A     -0.499189

  @DF-RHF Final Energy:  -414.97754385198431

   => Energetics <=

    Nuclear Repulsion Energy =            258.5179603191146498
    One-Electron Energy =               -1088.9338895355663226
    Two-Electron Energy =                 415.4383853644673650
    Total Energy =                       -414.9775438519843078
  Basis Set: (AUG-CC-PVTZ AUX)
    Blend: AUG-CC-PVTZ-RI
    Molecular point group: c1

    Geometry (in Angstrom), charge = 0, multiplicity = 1:

       Center              X                  Y                   Z               Mass
    ------------   -----------------  -----------------  -----------------  -----------------
         F           -0.085164933412     1.443128792538    -0.382348474664    18.998403162730
         F           -2.209842933412    -0.374390207462     0.055449525336    18.998403162730
         F            1.847989066588    -0.716304207462    -0.514547474664    18.998403162730
         C           -0.011394733412     0.398579692538     0.466936025336    12.000000000000
         C           -0.871880933412    -0.751391207462    -0.045356474664    12.000000000000
         C            1.434153066588    -0.052855207462     0.643951525336    12.000000000000
         H           -0.398876933412     0.691680792538     1.468180525336     1.007825032230
         H           -0.724876933412    -1.674368207462     0.524918525336     1.007825032230
         H           -0.629751933412    -0.923775207462    -1.095059474664     1.007825032230
         H            1.555945066588    -0.735134207462     1.491481525336     1.007825032230
         H            2.065062066588     0.828097792538     0.785400525336     1.007825032230

  Basis Set: AUG-CC-PVTZ
    Blend: AUG-CC-PVTZ
  Basis Set: (AUG-CC-PVTZ AUX)
    Blend: AUG-CC-PVTZ-JKFIT
	 Reference Energy          =    -414.9775438519843078 [Eh]
	 Singles Energy            =      -0.0000000000000000 [Eh]
	 Same-Spin Energy          =      -0.3373325702894195 [Eh]
	 Opposite-Spin Energy      =      -1.0481982404449908 [Eh]
	 Correlation Energy        =      -1.3855308107344104 [Eh]
	 Total Energy              =    -416.3630746627187023 [Eh]

	 ================> DF-SCS-MP2 Energies <==================
	-----------------------------------------------------------
	 SCS Same-Spin Scale       =       0.3333333333333333 [-]
	 SCS Opposite-Spin Scale   =       1.2000000000000000 [-]
	 SCS Same-Spin Energy      =      -0.1124441900964732 [Eh]
	 SCS Opposite-Spin Energy  =      -1.2578378885339889 [Eh]
	 SCS Correlation Energy    =      -1.3702820786304621 [Eh]
	 SCS Total Energy          =    -416.3478259306147606 [Eh]
	-----------------------------------------------------------

  Dipole Moment: [D]
     X:     1.3718      Y:    -0.8713      Z:     2.3228     Total:     2.8349

*** Psi4 exiting successfully. Buy a developer a beer!
