                               Psi4 1.3.2 release

  ==> Input File <==

--------------------------------------------------------------------------
#psi4
#
memory 32 gb

molecule  {
0 1
  F       -0.1392260     1.4430924    -0.4544073
  F       -2.2329010    -0.3483750     0.0119380
  F        1.8245690    -0.6904460    -0.5579990
  C       -0.0320120     0.3860640     0.4547950
  C       -0.8949580    -0.7254520    -0.0889280
  C        1.4110010    -0.0260590     0.6001090
  H       -0.4223330     0.7179750     1.4244750
  H       -0.7480580    -1.6484420     0.4813360
  H       -0.6528610    -0.8980200    -1.1386560
  H        1.5335420    -0.7074240     1.4482380
  H        2.0415670     0.8553370     0.7402530
units angstrom
no_reorient  #important for SAPT in psi4, default
symmetry c1  #important for SAPT in psi4, default
}

set PROPERTIES_ORIGIN ["COM"]
properties('MP2/aug-cc-pvtz', properties = ['dipole'])
--------------------------------------------------------------------------

    Molecular point group: c1
  Charge       = 0
  Multiplicity = 1
  Basis Set: AUG-CC-PVTZ
    Blend: AUG-CC-PVTZ
  Basis Set: (AUG-CC-PVTZ AUX)
    Blend: AUG-CC-PVTZ-JKFIT

    Orbital Energies [Eh]
    ---------------------

    Doubly Occupied:

       1A    -26.300540     2A    -26.292613     3A    -26.289171
       4A    -11.339602     5A    -11.338503     6A    -11.325861
       7A     -1.612336     8A     -1.602263     9A     -1.591710
      10A     -1.093606    11A     -0.971694    12A     -0.857515
      13A     -0.758029    14A     -0.737738    15A     -0.736974
      16A     -0.705024    17A     -0.689770    18A     -0.678442
      19A     -0.670560    20A     -0.640070    21A     -0.620985
      22A     -0.556741    23A     -0.541042    24A     -0.532474
      25A     -0.509114

  @DF-RHF Final Energy:  -414.97789967536943

   => Energetics <=

    Nuclear Repulsion Energy =            258.4452025623612030
    One-Electron Energy =               -1088.8614516363024904
    Two-Electron Energy =                 415.4383493985719156
    Total Energy =                       -414.9778996753694287
  Basis Set: (AUG-CC-PVTZ AUX)
    Blend: AUG-CC-PVTZ-RI
    Molecular point group: c1

    Geometry (in Angstrom), charge = 0, multiplicity = 1:

       Center              X                  Y                   Z               Mass
    ------------   -----------------  -----------------  -----------------  -----------------
         F           -0.110370902328     1.426757077234    -0.409149543056    18.998403162730
         F           -2.204045902328    -0.364710322766     0.057195756944    18.998403162730
         F            1.853424097672    -0.706781322766    -0.512741243056    18.998403162730
         C           -0.003156902328     0.369728677234     0.500052756944    12.000000000000
         C           -0.866102902328    -0.741787322766    -0.043670243056    12.000000000000
         C            1.439856097672    -0.042394322766     0.645366756944    12.000000000000
         H           -0.393477902328     0.701639677234     1.469732756944     1.007825032230
         H           -0.719202902328    -1.664777322766     0.526593756944     1.007825032230
         H           -0.624005902328    -0.914355322766    -1.093398243056     1.007825032230
         H            1.562397097672    -0.723759322766     1.493495756944     1.007825032230
         H            2.070422097672     0.839001677234     0.785510756944     1.007825032230

  Basis Set: AUG-CC-PVTZ
    Blend: AUG-CC-PVTZ
  Basis Set: (AUG-CC-PVTZ AUX)
    Blend: AUG-CC-PVTZ-JKFIT
	 Reference Energy          =    -414.9778996753694287 [Eh]
	 Singles Energy            =      -0.0000000000000000 [Eh]
	 Same-Spin Energy          =      -0.3376360335049485 [Eh]
	 Opposite-Spin Energy      =      -1.0492953288236671 [Eh]
	 Correlation Energy        =      -1.3869313623286157 [Eh]
	 Total Energy              =    -416.3648310376980248 [Eh]

	 ================> DF-SCS-MP2 Energies <==================
	-----------------------------------------------------------
	 SCS Same-Spin Scale       =       0.3333333333333333 [-]
	 SCS Opposite-Spin Scale   =       1.2000000000000000 [-]
	 SCS Same-Spin Energy      =      -0.1125453445016495 [Eh]
	 SCS Opposite-Spin Energy  =      -1.2591543945884005 [Eh]
	 SCS Correlation Energy    =      -1.3716997390900501 [Eh]
	 SCS Total Energy          =    -416.3495994144594761 [Eh]
	-----------------------------------------------------------

  Dipole Moment: [D]
     X:     1.4435      Y:    -0.9994      Z:     2.4928     Total:     3.0490

*** Psi4 exiting successfully. Buy a developer a beer!
