                               Psi4 1.4a3.dev225

  ==> Input File <==

--------------------------------------------------------------------------
#psi4
#
memory 32 gb

molecule  {
0 1
  F       -0.1084850     1.4692890    -0.4260300
  F       -2.2331630    -0.3482300     0.0117680
  F        1.8246690    -0.6901440    -0.5582290
  C       -0.0292432     0.3472661     0.4862455
  C       -0.8952010    -0.7252310    -0.0890380
  C        1.4108330    -0.0266950     0.6002700
  H       -0.4221970     0.7178410     1.4244990
  H       -0.7481970    -1.6482080     0.4812370
  H       -0.6530720    -0.8976150    -1.1387410
  H        1.5326250    -0.7089740     1.4478000
  H        2.0417420     0.8542580     0.7417190
units angstrom
no_reorient  #important for SAPT in psi4, default
symmetry c1  #important for SAPT in psi4, default
}

set PROPERTIES_ORIGIN ["COM"]
properties('MP2/aug-cc-pvtz', properties = ['dipole'])
--------------------------------------------------------------------------

    Molecular point group: c1
  Charge       = 0
  Multiplicity = 1
  Basis Set: AUG-CC-PVTZ
    Blend: AUG-CC-PVTZ
  Basis Set: (AUG-CC-PVTZ AUX)
    Blend: AUG-CC-PVTZ-JKFIT

    Orbital Energies [Eh]
    ---------------------

    Doubly Occupied:

       1A    -26.302180     2A    -26.291849     3A    -26.280434
       4A    -11.340610     5A    -11.339737     6A    -11.329369
       7A     -1.610585     8A     -1.600204     9A     -1.575089
      10A     -1.101665    11A     -0.976196    12A     -0.856198
      13A     -0.755893    14A     -0.738304    15A     -0.732644
      16A     -0.707837    17A     -0.682919    18A     -0.676365
      19A     -0.663166    20A     -0.633342    21A     -0.617843
      22A     -0.556741    23A     -0.542786    24A     -0.538152
      25A     -0.519195

  @DF-RHF Final Energy:  -414.97463342269890

   => Energetics <=

    Nuclear Repulsion Energy =            257.8629914317759244
    One-Electron Energy =               -1087.7366395573487807
    Two-Electron Energy =                 414.8990147028738988
    Total Energy =                       -414.9746334226989006
  Basis Set: (AUG-CC-PVTZ AUX)
    Blend: AUG-CC-PVTZ-RI
    Molecular point group: c1

    Geometry (in Angstrom), charge = 0, multiplicity = 1:

       Center              X                  Y                   Z               Mass
    ------------   -----------------  -----------------  -----------------  -----------------
         F           -0.085834690597     1.452612057798    -0.390058956942    18.998403162730
         F           -2.210512690597    -0.364906942202     0.047739043058    18.998403162730
         F            1.847319309403    -0.706820942202    -0.522257956942    18.998403162730
         C           -0.006592890597     0.330589157798     0.522216543058    12.000000000000
         C           -0.872550690597    -0.741907942202    -0.053066956942    12.000000000000
         C            1.433483309403    -0.043371942202     0.636241043058    12.000000000000
         H           -0.399546690597     0.701164057798     1.460470043058     1.007825032230
         H           -0.725546690597    -1.664884942202     0.517208043058     1.007825032230
         H           -0.630421690597    -0.914291942202    -1.102769956942     1.007825032230
         H            1.555275309403    -0.725650942202     1.483771043058     1.007825032230
         H            2.064392309403     0.837581057798     0.777690043058     1.007825032230

  Basis Set: AUG-CC-PVTZ
    Blend: AUG-CC-PVTZ
  Basis Set: (AUG-CC-PVTZ AUX)
    Blend: AUG-CC-PVTZ-JKFIT
	 Reference Energy          =    -414.9746334226989006 [Eh]
	 Singles Energy            =      -0.0000000000000000 [Eh]
	 Same-Spin Energy          =      -0.3379666909865473 [Eh]
	 Opposite-Spin Energy      =      -1.0504165567792867 [Eh]
	 Correlation Energy        =      -1.3883832477658340 [Eh]
	 Total Energy              =    -416.3630166704647309 [Eh]

	 ================> DF-SCS-MP2 Energies <==================
	-----------------------------------------------------------
	 SCS Same-Spin Scale       =       0.3333333333333333 [-]
	 SCS Opposite-Spin Scale   =       1.2000000000000000 [-]
	 SCS Same-Spin Energy      =      -0.1126555636621824 [Eh]
	 SCS Opposite-Spin Energy  =      -1.2604998681351440 [Eh]
	 SCS Correlation Energy    =      -1.3731554317973265 [Eh]
	 SCS Total Energy          =    -416.3477888544962298 [Eh]
	-----------------------------------------------------------

  Dipole Moment: [D]
     X:     1.4103      Y:    -1.2136      Z:     2.5789     Total:     3.1800

*** Psi4 exiting successfully. Buy a developer a beer!
