                               Psi4 1.4a3.dev225

  ==> Input File <==

--------------------------------------------------------------------------
#psi4
#
memory 32 gb

molecule  {
0 1
  F       -0.1084850     1.4692890    -0.4260300
  F       -2.2331630    -0.3482300     0.0117680
  F        1.8246690    -0.6901440    -0.5582290
  C       -0.0308847     0.3705082     0.4673482
  C       -0.8952010    -0.7252310    -0.0890380
  C        1.4108330    -0.0266950     0.6002700
  H       -0.4221970     0.7178410     1.4244990
  H       -0.7481970    -1.6482080     0.4812370
  H       -0.6530720    -0.8976150    -1.1387410
  H        1.5326250    -0.7089740     1.4478000
  H        2.0417420     0.8542580     0.7417190
units angstrom
no_reorient  #important for SAPT in psi4, default
symmetry c1  #important for SAPT in psi4, default
}

set PROPERTIES_ORIGIN ["COM"]
properties('MP2/aug-cc-pvtz', properties = ['dipole'])
--------------------------------------------------------------------------

    Molecular point group: c1
  Charge       = 0
  Multiplicity = 1
  Basis Set: AUG-CC-PVTZ
    Blend: AUG-CC-PVTZ
  Basis Set: (AUG-CC-PVTZ AUX)
    Blend: AUG-CC-PVTZ-JKFIT

    Orbital Energies [Eh]
    ---------------------

    Doubly Occupied:

       1A    -26.301012     2A    -26.290703     3A    -26.287829
       4A    -11.339782     5A    -11.338505     6A    -11.328086
       7A     -1.610598     8A     -1.600479     9A     -1.587110
      10A     -1.096901    11A     -0.973536    12A     -0.856964
      13A     -0.756886    14A     -0.737872    15A     -0.734745
      16A     -0.706401    17A     -0.686650    18A     -0.677432
      19A     -0.668500    20A     -0.638132    21A     -0.619853
      22A     -0.555755    23A     -0.542918    24A     -0.534661
      25A     -0.513793

  @DF-RHF Final Energy:  -414.97734348909643

   => Energetics <=

    Nuclear Repulsion Energy =            258.0525974562460760
    One-Electron Energy =               -1088.0896755813462278
    Two-Electron Energy =                 415.0597346360037250
    Total Energy =                       -414.9773434890964268
  Basis Set: (AUG-CC-PVTZ AUX)
    Blend: AUG-CC-PVTZ-RI
    Molecular point group: c1

    Geometry (in Angstrom), charge = 0, multiplicity = 1:

       Center              X                  Y                   Z               Mass
    ------------   -----------------  -----------------  -----------------  -----------------
         F           -0.085633760994     1.449767083116    -0.387745812259    18.998403162730
         F           -2.210311760994    -0.367751916884     0.050052187741    18.998403162730
         F            1.847520239006    -0.709665916884    -0.519944812259    18.998403162730
         C           -0.008033460994     0.350986283116     0.505632387741    12.000000000000
         C           -0.872349760994    -0.744752916884    -0.050753812259    12.000000000000
         C            1.433684239006    -0.046216916884     0.638554187741    12.000000000000
         H           -0.399345760994     0.698319083116     1.462783187741     1.007825032230
         H           -0.725345760994    -1.667729916884     0.519521187741     1.007825032230
         H           -0.630220760994    -0.917136916884    -1.100456812259     1.007825032230
         H            1.555476239006    -0.728495916884     1.486084187741     1.007825032230
         H            2.064593239006     0.834736083116     0.780003187741     1.007825032230

  Basis Set: AUG-CC-PVTZ
    Blend: AUG-CC-PVTZ
  Basis Set: (AUG-CC-PVTZ AUX)
    Blend: AUG-CC-PVTZ-JKFIT
	 Reference Energy          =    -414.9773434890964268 [Eh]
	 Singles Energy            =      -0.0000000000000000 [Eh]
	 Same-Spin Energy          =      -0.3377276310666621 [Eh]
	 Opposite-Spin Energy      =      -1.0496812738427865 [Eh]
	 Correlation Energy        =      -1.3874089049094487 [Eh]
	 Total Energy              =    -416.3647523940058477 [Eh]

	 ================> DF-SCS-MP2 Energies <==================
	-----------------------------------------------------------
	 SCS Same-Spin Scale       =       0.3333333333333333 [-]
	 SCS Opposite-Spin Scale   =       1.2000000000000000 [-]
	 SCS Same-Spin Energy      =      -0.1125758770222207 [Eh]
	 SCS Opposite-Spin Energy  =      -1.2596175286113438 [Eh]
	 SCS Correlation Energy    =      -1.3721934056335645 [Eh]
	 SCS Total Energy          =    -416.3495368947299653 [Eh]
	-----------------------------------------------------------

  Dipole Moment: [D]
     X:     1.3987      Y:    -1.1125      Z:     2.5057     Total:     3.0778

*** Psi4 exiting successfully. Buy a developer a beer!
