                               Psi4 1.3.2 release

  ==> Input File <==

--------------------------------------------------------------------------
#psi4
#
memory 32 gb

molecule  {
0 1
  F       -0.1693154     1.4157139    -0.4813788
  F       -2.2329010    -0.3483750     0.0119380
  F        1.8245690    -0.6904460    -0.5579990
  C       -0.0320120     0.3860640     0.4547950
  C       -0.8949580    -0.7254520    -0.0889280
  C        1.4110010    -0.0260590     0.6001090
  H       -0.4223330     0.7179750     1.4244750
  H       -0.7480580    -1.6484420     0.4813360
  H       -0.6528610    -0.8980200    -1.1386560
  H        1.5335420    -0.7074240     1.4482380
  H        2.0415670     0.8553370     0.7402530
units angstrom
no_reorient  #important for SAPT in psi4, default
symmetry c1  #important for SAPT in psi4, default
}

set PROPERTIES_ORIGIN ["COM"]
properties('MP2/aug-cc-pvtz', properties = ['dipole'])
--------------------------------------------------------------------------

    Molecular point group: c1
  Charge       = 0
  Multiplicity = 1
  Basis Set: AUG-CC-PVTZ
    Blend: AUG-CC-PVTZ
  Basis Set: (AUG-CC-PVTZ AUX)
    Blend: AUG-CC-PVTZ-JKFIT

    Orbital Energies [Eh]
    ---------------------

    Doubly Occupied:

       1A    -26.300838     2A    -26.292512     3A    -26.288393
       4A    -11.339861     5A    -11.339171     6A    -11.324457
       7A     -1.612584     8A     -1.602480     9A     -1.590844
      10A     -1.093512    11A     -0.971577    12A     -0.857246
      13A     -0.758158    14A     -0.738397    15A     -0.736830
      16A     -0.704450    17A     -0.689819    18A     -0.678367
      19A     -0.669779    20A     -0.639133    21A     -0.621102
      22A     -0.558046    23A     -0.539292    24A     -0.533236
      25A     -0.508108

  @DF-RHF Final Energy:  -414.97691388245954

   => Energetics <=

    Nuclear Repulsion Energy =            258.7315339183736000
    One-Electron Energy =               -1089.4405117417968540
    Two-Electron Energy =                 415.7320639409637693
    Total Energy =                       -414.9769138824595416
  Basis Set: (AUG-CC-PVTZ AUX)
    Blend: AUG-CC-PVTZ-RI
    Molecular point group: c1

    Geometry (in Angstrom), charge = 0, multiplicity = 1:

       Center              X                  Y                   Z               Mass
    ------------   -----------------  -----------------  -----------------  -----------------
         F           -0.134629176385     1.404684348756    -0.430894145432    18.998403162730
         F           -2.198214776385    -0.359404551244     0.062422654568    18.998403162730
         F            1.859255223615    -0.701475551244    -0.507514345432    18.998403162730
         C            0.002674223615     0.375034448756     0.505279654568    12.000000000000
         C           -0.860271776385    -0.736481551244    -0.038443345432    12.000000000000
         C            1.445687223615    -0.037088551244     0.650593654568    12.000000000000
         H           -0.387646776385     0.706945448756     1.474959654568     1.007825032230
         H           -0.713371776385    -1.659471551244     0.531820654568     1.007825032230
         H           -0.618174776385    -0.909049551244    -1.088171345432     1.007825032230
         H            1.568228223615    -0.718453551244     1.498722654568     1.007825032230
         H            2.076253223615     0.844307448756     0.790737654568     1.007825032230

  Basis Set: AUG-CC-PVTZ
    Blend: AUG-CC-PVTZ
  Basis Set: (AUG-CC-PVTZ AUX)
    Blend: AUG-CC-PVTZ-JKFIT
	 Reference Energy          =    -414.9769138824595416 [Eh]
	 Singles Energy            =      -0.0000000000000000 [Eh]
	 Same-Spin Energy          =      -0.3377011731591526 [Eh]
	 Opposite-Spin Energy      =      -1.0494006943749485 [Eh]
	 Correlation Energy        =      -1.3871018675341011 [Eh]
	 Total Energy              =    -416.3640157499936549 [Eh]

	 ================> DF-SCS-MP2 Energies <==================
	-----------------------------------------------------------
	 SCS Same-Spin Scale       =       0.3333333333333333 [-]
	 SCS Opposite-Spin Scale   =       1.2000000000000000 [-]
	 SCS Same-Spin Energy      =      -0.1125670577197175 [Eh]
	 SCS Opposite-Spin Energy  =      -1.2592808332499381 [Eh]
	 SCS Correlation Energy    =      -1.3718478909696556 [Eh]
	 SCS Total Energy          =    -416.3487617734292030 [Eh]
	-----------------------------------------------------------

  Dipole Moment: [D]
     X:     1.4947      Y:    -0.9520      Z:     2.5279     Total:     3.0872

*** Psi4 exiting successfully. Buy a developer a beer!
