                               Psi4 1.4a3.dev225

  ==> Input File <==

--------------------------------------------------------------------------
#psi4
#
memory 32 gb

molecule  {
0 1
  F       -0.1084850     1.4692890    -0.4260300
  F       -2.2331630    -0.3482300     0.0117680
  F        1.8246690    -0.6901440    -0.5582290
  C       -0.0319790     0.3860030     0.4547500
  C       -0.9432009    -0.7117059    -0.0854215
  C        1.4108330    -0.0266950     0.6002700
  H       -0.4221970     0.7178410     1.4244990
  H       -0.7481970    -1.6482080     0.4812370
  H       -0.6530720    -0.8976150    -1.1387410
  H        1.5326250    -0.7089740     1.4478000
  H        2.0417420     0.8542580     0.7417190
units angstrom
no_reorient  #important for SAPT in psi4, default
symmetry c1  #important for SAPT in psi4, default
}

set PROPERTIES_ORIGIN ["COM"]
properties('MP2/aug-cc-pvtz', properties = ['dipole'])
--------------------------------------------------------------------------

    Molecular point group: c1
  Charge       = 0
  Multiplicity = 1
  Basis Set: AUG-CC-PVTZ
    Blend: AUG-CC-PVTZ
  Basis Set: (AUG-CC-PVTZ AUX)
    Blend: AUG-CC-PVTZ-JKFIT

    Orbital Energies [Eh]
    ---------------------

    Doubly Occupied:

       1A    -26.301417     2A    -26.298344     3A    -26.290835
       4A    -11.337566     5A    -11.336567     6A    -11.328057
       7A     -1.625696     8A     -1.608390     9A     -1.595867
      10A     -1.087808    11A     -0.969839    12A     -0.857489
      13A     -0.758887    14A     -0.742210    15A     -0.740425
      16A     -0.712762    17A     -0.691941    18A     -0.689699
      19A     -0.674697    20A     -0.643831    21A     -0.621579
      22A     -0.553566    23A     -0.533702    24A     -0.526249
      25A     -0.502010

  @DF-RHF Final Energy:  -414.97733064925040

   => Energetics <=

    Nuclear Repulsion Energy =            258.3740132420282407
    One-Electron Energy =               -1088.6438204524365574
    Two-Electron Energy =                 415.2924765611579119
    Total Energy =                       -414.9773306492504048
  Basis Set: (AUG-CC-PVTZ AUX)
    Blend: AUG-CC-PVTZ-RI
    Molecular point group: c1

    Geometry (in Angstrom), charge = 0, multiplicity = 1:

       Center              X                  Y                   Z               Mass
    ------------   -----------------  -----------------  -----------------  -----------------
         F           -0.079624331725     1.446214870504    -0.386646397443    18.998403162730
         F           -2.204302331725    -0.371304129496     0.051151602557    18.998403162730
         F            1.853529668275    -0.713218129496    -0.518845397443    18.998403162730
         C           -0.003118331725     0.362928870504     0.494133602557    12.000000000000
         C           -0.914340231725    -0.734780029496    -0.046037897443    12.000000000000
         C            1.439693668275    -0.049769129496     0.639653602557    12.000000000000
         H           -0.393336331725     0.694766870504     1.463882602557     1.007825032230
         H           -0.719336331725    -1.671282129496     0.520620602557     1.007825032230
         H           -0.624211331725    -0.920689129496    -1.099357397443     1.007825032230
         H            1.561485668275    -0.732048129496     1.487183602557     1.007825032230
         H            2.070602668275     0.831183870504     0.781102602557     1.007825032230

  Basis Set: AUG-CC-PVTZ
    Blend: AUG-CC-PVTZ
  Basis Set: (AUG-CC-PVTZ AUX)
    Blend: AUG-CC-PVTZ-JKFIT
	 Reference Energy          =    -414.9773306492504048 [Eh]
	 Singles Energy            =      -0.0000000000000000 [Eh]
	 Same-Spin Energy          =      -0.3374008451741821 [Eh]
	 Opposite-Spin Energy      =      -1.0482499728140875 [Eh]
	 Correlation Energy        =      -1.3856508179882696 [Eh]
	 Total Energy              =    -416.3629814672386829 [Eh]

	 ================> DF-SCS-MP2 Energies <==================
	-----------------------------------------------------------
	 SCS Same-Spin Scale       =       0.3333333333333333 [-]
	 SCS Opposite-Spin Scale   =       1.2000000000000000 [-]
	 SCS Same-Spin Energy      =      -0.1124669483913940 [Eh]
	 SCS Opposite-Spin Energy  =      -1.2578999673769049 [Eh]
	 SCS Correlation Energy    =      -1.3703669157682989 [Eh]
	 SCS Total Energy          =    -416.3476975650186773 [Eh]
	-----------------------------------------------------------

  Dipole Moment: [D]
     X:     1.1610      Y:    -0.9962      Z:     2.4597     Total:     2.8967

*** Psi4 exiting successfully. Buy a developer a beer!
