                               Psi4 1.3.2 release

  ==> Input File <==

--------------------------------------------------------------------------
#psi4
#
memory 32 gb

molecule  {
0 1
  F       -0.1090060     1.4691830    -0.4263280
  F       -2.2473121    -0.4269184     0.0674959
  F        1.8245690    -0.6904460    -0.5579990
  C       -0.0320120     0.3860640     0.4547950
  C       -0.8949580    -0.7254520    -0.0889280
  C        1.4110010    -0.0260590     0.6001090
  H       -0.4223330     0.7179750     1.4244750
  H       -0.7480580    -1.6484420     0.4813360
  H       -0.6528610    -0.8980200    -1.1386560
  H        1.5335420    -0.7074240     1.4482380
  H        2.0415670     0.8553370     0.7402530
units angstrom
no_reorient  #important for SAPT in psi4, default
symmetry c1  #important for SAPT in psi4, default
}

set PROPERTIES_ORIGIN ["COM"]
properties('MP2/aug-cc-pvtz', properties = ['dipole'])
--------------------------------------------------------------------------

    Molecular point group: c1
  Charge       = 0
  Multiplicity = 1
  Basis Set: AUG-CC-PVTZ
    Blend: AUG-CC-PVTZ
  Basis Set: (AUG-CC-PVTZ AUX)
    Blend: AUG-CC-PVTZ-JKFIT

    Orbital Energies [Eh]
    ---------------------

    Doubly Occupied:

       1A    -26.300662     2A    -26.293413     3A    -26.290061
       4A    -11.340478     5A    -11.338438     6A    -11.327080
       7A     -1.612498     8A     -1.602174     9A     -1.593488
      10A     -1.094183    11A     -0.972031    12A     -0.858355
      13A     -0.758757    14A     -0.738469    15A     -0.735833
      16A     -0.705741    17A     -0.690714    18A     -0.679134
      19A     -0.671414    20A     -0.642172    21A     -0.620964
      22A     -0.556013    23A     -0.540206    24A     -0.532736
      25A     -0.511056

  @DF-RHF Final Energy:  -414.97775039381634

   => Energetics <=

    Nuclear Repulsion Energy =            257.6160949758412357
    One-Electron Energy =               -1087.1755453936268623
    Two-Electron Energy =                 414.5817000239693471
    Total Energy =                       -414.9777503938163363
  Basis Set: (AUG-CC-PVTZ AUX)
    Blend: AUG-CC-PVTZ-RI
    Molecular point group: c1

    Geometry (in Angstrom), charge = 0, multiplicity = 1:

       Center              X                  Y                   Z               Mass
    ------------   -----------------  -----------------  -----------------  -----------------
         F           -0.083214562186     1.463012681617    -0.397278577113    18.998403162730
         F           -2.221520662186    -0.433088718383     0.096545322887    18.998403162730
         F            1.850360437814    -0.696616318383    -0.528949577113    18.998403162730
         C           -0.006220562186     0.379893681617     0.483844422887    12.000000000000
         C           -0.869166562186    -0.731622318383    -0.059878577113    12.000000000000
         C            1.436792437814    -0.032229318383     0.629158422887    12.000000000000
         H           -0.396541562186     0.711804681617     1.453524422887     1.007825032230
         H           -0.722266562186    -1.654612318383     0.510385422887     1.007825032230
         H           -0.627069562186    -0.904190318383    -1.109606577113     1.007825032230
         H            1.559333437814    -0.713594318383     1.477287422887     1.007825032230
         H            2.067358437814     0.849166681617     0.769302422887     1.007825032230

  Basis Set: AUG-CC-PVTZ
    Blend: AUG-CC-PVTZ
  Basis Set: (AUG-CC-PVTZ AUX)
    Blend: AUG-CC-PVTZ-JKFIT
	 Reference Energy          =    -414.9777503938163363 [Eh]
	 Singles Energy            =      -0.0000000000000000 [Eh]
	 Same-Spin Energy          =      -0.3375552319167676 [Eh]
	 Opposite-Spin Energy      =      -1.0491961398540774 [Eh]
	 Correlation Energy        =      -1.3867513717708451 [Eh]
	 Total Energy              =    -416.3645017655871925 [Eh]

	 ================> DF-SCS-MP2 Energies <==================
	-----------------------------------------------------------
	 SCS Same-Spin Scale       =       0.3333333333333333 [-]
	 SCS Opposite-Spin Scale   =       1.2000000000000000 [-]
	 SCS Same-Spin Energy      =      -0.1125184106389225 [Eh]
	 SCS Opposite-Spin Energy  =      -1.2590353678248929 [Eh]
	 SCS Correlation Energy    =      -1.3715537784638154 [Eh]
	 SCS Total Energy          =    -416.3493041722801422 [Eh]
	-----------------------------------------------------------

  Dipole Moment: [D]
     X:     1.4249      Y:    -0.9426      Z:     2.3938     Total:     2.9409

*** Psi4 exiting successfully. Buy a developer a beer!
