                               Psi4 1.3.2 release

  ==> Input File <==

--------------------------------------------------------------------------
#psi4
#
memory 32 gb

molecule  {
0 1
  F       -0.1090060     1.4691830    -0.4263280
  F       -2.2119715    -0.2716687    -0.0441113
  F        1.8245690    -0.6904460    -0.5579990
  C       -0.0320120     0.3860640     0.4547950
  C       -0.8949580    -0.7254520    -0.0889280
  C        1.4110010    -0.0260590     0.6001090
  H       -0.4223330     0.7179750     1.4244750
  H       -0.7480580    -1.6484420     0.4813360
  H       -0.6528610    -0.8980200    -1.1386560
  H        1.5335420    -0.7074240     1.4482380
  H        2.0415670     0.8553370     0.7402530
units angstrom
no_reorient  #important for SAPT in psi4, default
symmetry c1  #important for SAPT in psi4, default
}

set PROPERTIES_ORIGIN ["COM"]
properties('MP2/aug-cc-pvtz', properties = ['dipole'])
--------------------------------------------------------------------------

    Molecular point group: c1
  Charge       = 0
  Multiplicity = 1
  Basis Set: AUG-CC-PVTZ
    Blend: AUG-CC-PVTZ
  Basis Set: (AUG-CC-PVTZ AUX)
    Blend: AUG-CC-PVTZ-JKFIT

    Orbital Energies [Eh]
    ---------------------

    Doubly Occupied:

       1A    -26.299709     2A    -26.291823     3A    -26.289689
       4A    -11.338434     5A    -11.336830     6A    -11.327414
       7A     -1.611757     8A     -1.602133     9A     -1.591450
      10A     -1.093099    11A     -0.971524    12A     -0.857246
      13A     -0.757137    14A     -0.738065    15A     -0.736428
      16A     -0.705518    17A     -0.688748    18A     -0.677936
      19A     -0.671024    20A     -0.639192    21A     -0.620698
      22A     -0.554736    23A     -0.544403    24A     -0.530465
      25A     -0.508551

  @DF-RHF Final Energy:  -414.97715207977353

   => Energetics <=

    Nuclear Repulsion Energy =            258.8233390179399294
    One-Electron Energy =               -1089.6329627295560840
    Two-Electron Energy =                 415.8324716318426226
    Total Energy =                       -414.9771520797735320
  Basis Set: (AUG-CC-PVTZ AUX)
    Blend: AUG-CC-PVTZ-RI
    Molecular point group: c1

    Geometry (in Angstrom), charge = 0, multiplicity = 1:

       Center              X                  Y                   Z               Mass
    ------------   -----------------  -----------------  -----------------  -----------------
         F           -0.090063335825     1.432926320527    -0.375649842761    18.998403162730
         F           -2.193028835825    -0.307925379473     0.006566857239    18.998403162730
         F            1.843511664175    -0.726702679473    -0.507320842761    18.998403162730
         C           -0.013069335825     0.349807320527     0.505473157239    12.000000000000
         C           -0.876015335825    -0.761708679473    -0.038249842761    12.000000000000
         C            1.429943664175    -0.062315679473     0.650787157239    12.000000000000
         H           -0.403390335825     0.681718320527     1.475153157239     1.007825032230
         H           -0.729115335825    -1.684698679473     0.532014157239     1.007825032230
         H           -0.633918335825    -0.934276679473    -1.087977842761     1.007825032230
         H            1.552484664175    -0.743680679473     1.498916157239     1.007825032230
         H            2.060509664175     0.819080320527     0.790931157239     1.007825032230

  Basis Set: AUG-CC-PVTZ
    Blend: AUG-CC-PVTZ
  Basis Set: (AUG-CC-PVTZ AUX)
    Blend: AUG-CC-PVTZ-JKFIT
	 Reference Energy          =    -414.9771520797735320 [Eh]
	 Singles Energy            =      -0.0000000000000000 [Eh]
	 Same-Spin Energy          =      -0.3376891345271602 [Eh]
	 Opposite-Spin Energy      =      -1.0493646908420557 [Eh]
	 Correlation Energy        =      -1.3870538253692160 [Eh]
	 Total Energy              =    -416.3642059051427395 [Eh]

	 ================> DF-SCS-MP2 Energies <==================
	-----------------------------------------------------------
	 SCS Same-Spin Scale       =       0.3333333333333333 [-]
	 SCS Opposite-Spin Scale   =       1.2000000000000000 [-]
	 SCS Same-Spin Energy      =      -0.1125630448423867 [Eh]
	 SCS Opposite-Spin Energy  =      -1.2592376290104668 [Eh]
	 SCS Correlation Energy    =      -1.3718006738528534 [Eh]
	 SCS Total Energy          =    -416.3489527536264063 [Eh]
	-----------------------------------------------------------

  Dipole Moment: [D]
     X:     1.3457      Y:    -1.1414      Z:     2.5167     Total:     3.0737

*** Psi4 exiting successfully. Buy a developer a beer!
