                               Psi4 1.3.2 release

  ==> Input File <==

--------------------------------------------------------------------------
#psi4
#
memory 32 gb

molecule  {
0 1
  F       -0.0994524     1.4552550    -0.4439458
  F       -2.2329010    -0.3483750     0.0119380
  F        1.8245690    -0.6904460    -0.5579990
  C       -0.0320120     0.3860640     0.4547950
  C       -0.8949580    -0.7254520    -0.0889280
  C        1.4110010    -0.0260590     0.6001090
  H       -0.4223330     0.7179750     1.4244750
  H       -0.7480580    -1.6484420     0.4813360
  H       -0.6528610    -0.8980200    -1.1386560
  H        1.5335420    -0.7074240     1.4482380
  H        2.0415670     0.8553370     0.7402530
units angstrom
no_reorient  #important for SAPT in psi4, default
symmetry c1  #important for SAPT in psi4, default
}

set PROPERTIES_ORIGIN ["COM"]
properties('MP2/aug-cc-pvtz', properties = ['dipole'])
--------------------------------------------------------------------------

    Molecular point group: c1
  Charge       = 0
  Multiplicity = 1
  Basis Set: AUG-CC-PVTZ
    Blend: AUG-CC-PVTZ
  Basis Set: (AUG-CC-PVTZ AUX)
    Blend: AUG-CC-PVTZ-JKFIT

    Orbital Energies [Eh]
    ---------------------

    Doubly Occupied:

       1A    -26.300064     2A    -26.292744     3A    -26.289859
       4A    -11.339558     5A    -11.337449     6A    -11.326937
       7A     -1.612209     8A     -1.601982     9A     -1.592495
      10A     -1.093574    11A     -0.971718    12A     -0.857584
      13A     -0.758298    14A     -0.737563    15A     -0.736584
      16A     -0.705440    17A     -0.689557    18A     -0.678468
      19A     -0.670976    20A     -0.640782    21A     -0.621135
      22A     -0.555572    23A     -0.542111    24A     -0.531937
      25A     -0.509767

  @DF-RHF Final Energy:  -414.97818907322375

   => Energetics <=

    Nuclear Repulsion Energy =            258.3442404366296614
    One-Electron Energy =               -1088.6561357224466065
    Two-Electron Energy =                 415.3337062125931993
    Total Energy =                       -414.9781890732237457
  Basis Set: (AUG-CC-PVTZ AUX)
    Blend: AUG-CC-PVTZ-RI
    Molecular point group: c1

    Geometry (in Angstrom), charge = 0, multiplicity = 1:

       Center              X                  Y                   Z               Mass
    ------------   -----------------  -----------------  -----------------  -----------------
         F           -0.078305161934     1.436562646107    -0.400715412298    18.998403162730
         F           -2.211753761934    -0.367067353893     0.055168387702    18.998403162730
         F            1.845716238066    -0.709138353893    -0.514768612298    18.998403162730
         C           -0.010864761934     0.367371646107     0.498025387702    12.000000000000
         C           -0.873810761934    -0.744144353893    -0.045697612298    12.000000000000
         C            1.432148238066    -0.044751353893     0.643339387702    12.000000000000
         H           -0.401185761934     0.699282646107     1.467705387702     1.007825032230
         H           -0.726910761934    -1.667134353893     0.524566387702     1.007825032230
         H           -0.631713761934    -0.916712353893    -1.095425612298     1.007825032230
         H            1.554689238066    -0.726116353893     1.491468387702     1.007825032230
         H            2.062714238066     0.836644646107     0.783483387702     1.007825032230

  Basis Set: AUG-CC-PVTZ
    Blend: AUG-CC-PVTZ
  Basis Set: (AUG-CC-PVTZ AUX)
    Blend: AUG-CC-PVTZ-JKFIT
	 Reference Energy          =    -414.9781890732237457 [Eh]
	 Singles Energy            =      -0.0000000000000000 [Eh]
	 Same-Spin Energy          =      -0.3376077627479808 [Eh]
	 Opposite-Spin Energy      =      -1.0492577018316083 [Eh]
	 Correlation Energy        =      -1.3868654645795890 [Eh]
	 Total Energy              =    -416.3650545378033598 [Eh]

	 ================> DF-SCS-MP2 Energies <==================
	-----------------------------------------------------------
	 SCS Same-Spin Scale       =       0.3333333333333333 [-]
	 SCS Opposite-Spin Scale   =       1.2000000000000000 [-]
	 SCS Same-Spin Energy      =      -0.1125359209159936 [Eh]
	 SCS Opposite-Spin Energy  =      -1.2591092421979300 [Eh]
	 SCS Correlation Energy    =      -1.3716451631139235 [Eh]
	 SCS Total Energy          =    -416.3498342363376423 [Eh]
	-----------------------------------------------------------

  Dipole Moment: [D]
     X:     1.3799      Y:    -1.0219      Z:     2.4751     Total:     3.0124

*** Psi4 exiting successfully. Buy a developer a beer!
