                               Psi4 1.3.2 release

  ==> Input File <==

--------------------------------------------------------------------------
#psi4
#
memory 32 gb

molecule  {
0 1
  F       -0.1090060     1.4691830    -0.4263280
  F       -2.1853419    -0.2235074     0.0704883
  F        1.8245690    -0.6904460    -0.5579990
  C       -0.0320120     0.3860640     0.4547950
  C       -0.8949580    -0.7254520    -0.0889280
  C        1.4110010    -0.0260590     0.6001090
  H       -0.4223330     0.7179750     1.4244750
  H       -0.7480580    -1.6484420     0.4813360
  H       -0.6528610    -0.8980200    -1.1386560
  H        1.5335420    -0.7074240     1.4482380
  H        2.0415670     0.8553370     0.7402530
units angstrom
no_reorient  #important for SAPT in psi4, default
symmetry c1  #important for SAPT in psi4, default
}

set PROPERTIES_ORIGIN ["COM"]
properties('MP2/aug-cc-pvtz', properties = ['dipole'])
--------------------------------------------------------------------------

    Molecular point group: c1
  Charge       = 0
  Multiplicity = 1
  Basis Set: AUG-CC-PVTZ
    Blend: AUG-CC-PVTZ
  Basis Set: (AUG-CC-PVTZ AUX)
    Blend: AUG-CC-PVTZ-JKFIT

    Orbital Energies [Eh]
    ---------------------

    Doubly Occupied:

       1A    -26.299103     2A    -26.291039     3A    -26.290322
       4A    -11.336074     5A    -11.334699     6A    -11.328089
       7A     -1.611615     8A     -1.602680     9A     -1.591269
      10A     -1.091768    11A     -0.971194    12A     -0.856795
      13A     -0.757530    14A     -0.738440    15A     -0.735325
      16A     -0.705521    17A     -0.688024    18A     -0.677410
      19A     -0.670957    20A     -0.638835    21A     -0.620101
      22A     -0.554154    23A     -0.545206    24A     -0.532076
      25A     -0.505136

  @DF-RHF Final Energy:  -414.97551517436136

   => Energetics <=

    Nuclear Repulsion Energy =            259.5027772779512816
    One-Electron Energy =               -1091.0098624620122791
    Two-Electron Energy =                 416.5315700096996352
    Total Energy =                       -414.9755151743613624
  Basis Set: (AUG-CC-PVTZ AUX)
    Blend: AUG-CC-PVTZ-RI
    Molecular point group: c1

    Geometry (in Angstrom), charge = 0, multiplicity = 1:

       Center              X                  Y                   Z               Mass
    ------------   -----------------  -----------------  -----------------  -----------------
         F           -0.095223975499     1.423592980351    -0.397858484365    18.998403162730
         F           -2.171559875499    -0.269097419649     0.098957815635    18.998403162730
         F            1.838351024501    -0.736036019649    -0.529529484365    18.998403162730
         C           -0.018229975499     0.340473980351     0.483264515635    12.000000000000
         C           -0.881175975499    -0.771042019649    -0.060458484365    12.000000000000
         C            1.424783024501    -0.071649019649     0.628578515635    12.000000000000
         H           -0.408550975499     0.672384980351     1.452944515635     1.007825032230
         H           -0.734275975499    -1.694032019649     0.509805515635     1.007825032230
         H           -0.639078975499    -0.943610019649    -1.110186484365     1.007825032230
         H            1.547324024501    -0.753014019649     1.476707515635     1.007825032230
         H            2.055349024501     0.809746980351     0.768722515635     1.007825032230

  Basis Set: AUG-CC-PVTZ
    Blend: AUG-CC-PVTZ
  Basis Set: (AUG-CC-PVTZ AUX)
    Blend: AUG-CC-PVTZ-JKFIT
	 Reference Energy          =    -414.9755151743613624 [Eh]
	 Singles Energy            =      -0.0000000000000000 [Eh]
	 Same-Spin Energy          =      -0.3377699382480782 [Eh]
	 Opposite-Spin Energy      =      -1.0494848860109647 [Eh]
	 Correlation Energy        =      -1.3872548242590428 [Eh]
	 Total Energy              =    -416.3627699986204220 [Eh]

	 ================> DF-SCS-MP2 Energies <==================
	-----------------------------------------------------------
	 SCS Same-Spin Scale       =       0.3333333333333333 [-]
	 SCS Opposite-Spin Scale   =       1.2000000000000000 [-]
	 SCS Same-Spin Energy      =      -0.1125899794160261 [Eh]
	 SCS Opposite-Spin Energy  =      -1.2593818632131575 [Eh]
	 SCS Correlation Energy    =      -1.3719718426291836 [Eh]
	 SCS Total Energy          =    -416.3474870169905557 [Eh]
	-----------------------------------------------------------

  Dipole Moment: [D]
     X:     1.2725      Y:    -1.2131      Z:     2.3659     Total:     2.9476

*** Psi4 exiting successfully. Buy a developer a beer!
