                               Psi4 1.3.2 release

  ==> Input File <==

--------------------------------------------------------------------------
#psi4
#
memory 32 gb

molecule  {
0 1
  F       -0.1469570     1.5215550    -0.3532276
  F       -2.2329010    -0.3483750     0.0119380
  F        1.8245690    -0.6904460    -0.5579990
  C       -0.0320120     0.3860640     0.4547950
  C       -0.8949580    -0.7254520    -0.0889280
  C        1.4110010    -0.0260590     0.6001090
  H       -0.4223330     0.7179750     1.4244750
  H       -0.7480580    -1.6484420     0.4813360
  H       -0.6528610    -0.8980200    -1.1386560
  H        1.5335420    -0.7074240     1.4482380
  H        2.0415670     0.8553370     0.7402530
units angstrom
no_reorient  #important for SAPT in psi4, default
symmetry c1  #important for SAPT in psi4, default
}

set PROPERTIES_ORIGIN ["COM"]
properties('MP2/aug-cc-pvtz', properties = ['dipole'])
--------------------------------------------------------------------------

    Molecular point group: c1
  Charge       = 0
  Multiplicity = 1
  Basis Set: AUG-CC-PVTZ
    Blend: AUG-CC-PVTZ
  Basis Set: (AUG-CC-PVTZ AUX)
    Blend: AUG-CC-PVTZ-JKFIT

    Orbital Energies [Eh]
    ---------------------

    Doubly Occupied:

       1A    -26.300833     2A    -26.292414     3A    -26.290177
       4A    -11.339219     5A    -11.338477     6A    -11.328518
       7A     -1.611945     8A     -1.602588     9A     -1.592657
      10A     -1.094052    11A     -0.972165    12A     -0.858641
      13A     -0.756671    14A     -0.738791    15A     -0.736075
      16A     -0.706291    17A     -0.690530    18A     -0.678712
      19A     -0.672371    20A     -0.641304    21A     -0.619491
      22A     -0.555130    23A     -0.545276    24A     -0.529882
      25A     -0.510235

  @DF-RHF Final Energy:  -414.97771231086017

   => Energetics <=

    Nuclear Repulsion Energy =            257.5775978787723375
    One-Electron Energy =               -1087.1057297969796309
    Two-Electron Energy =                 414.5504196073470666
    Total Energy =                       -414.9777123108601700
  Basis Set: (AUG-CC-PVTZ AUX)
    Blend: AUG-CC-PVTZ-RI
    Molecular point group: c1

    Geometry (in Angstrom), charge = 0, multiplicity = 1:

       Center              X                  Y                   Z               Mass
    ------------   -----------------  -----------------  -----------------  -----------------
         F           -0.116603685858     1.490014146301    -0.327577797140    18.998403162730
         F           -2.202547685858    -0.379915853699     0.037587802860    18.998403162730
         F            1.854922314142    -0.721986853699    -0.532349197140    18.998403162730
         C           -0.001658685858     0.354523146301     0.480444802860    12.000000000000
         C           -0.864604685858    -0.756992853699    -0.063278197140    12.000000000000
         C            1.441354314142    -0.057599853699     0.625758802860    12.000000000000
         H           -0.391979685858     0.686434146301     1.450124802860     1.007825032230
         H           -0.717704685858    -1.679982853699     0.506985802860     1.007825032230
         H           -0.622507685858    -0.929560853699    -1.113006197140     1.007825032230
         H            1.563895314142    -0.738964853699     1.473887802860     1.007825032230
         H            2.071920314142     0.823796146301     0.765902802860     1.007825032230

  Basis Set: AUG-CC-PVTZ
    Blend: AUG-CC-PVTZ
  Basis Set: (AUG-CC-PVTZ AUX)
    Blend: AUG-CC-PVTZ-JKFIT
	 Reference Energy          =    -414.9777123108601700 [Eh]
	 Singles Energy            =      -0.0000000000000000 [Eh]
	 Same-Spin Energy          =      -0.3375644827636263 [Eh]
	 Opposite-Spin Energy      =      -1.0491728071932132 [Eh]
	 Correlation Energy        =      -1.3867372899568395 [Eh]
	 Total Energy              =    -416.3644496008170108 [Eh]

	 ================> DF-SCS-MP2 Energies <==================
	-----------------------------------------------------------
	 SCS Same-Spin Scale       =       0.3333333333333333 [-]
	 SCS Opposite-Spin Scale   =       1.2000000000000000 [-]
	 SCS Same-Spin Energy      =      -0.1125214942545421 [Eh]
	 SCS Opposite-Spin Energy  =      -1.2590073686318557 [Eh]
	 SCS Correlation Energy    =      -1.3715288628863977 [Eh]
	 SCS Total Energy          =    -416.3492411737465773 [Eh]
	-----------------------------------------------------------

  Dipole Moment: [D]
     X:     1.4392      Y:    -1.1233      Z:     2.3714     Total:     2.9927

*** Psi4 exiting successfully. Buy a developer a beer!
