                               Psi4 1.3.2 release

  ==> Input File <==

--------------------------------------------------------------------------
#psi4
#
memory 32 gb

molecule  {
0 1
  F       -0.1090060     1.4691830    -0.4263280
  F       -2.2329010    -0.3483750     0.0119380
  F        1.8245690    -0.6904460    -0.5579990
  C       -0.0320120     0.3860640     0.4547950
  C       -0.7989600    -0.7525075    -0.0961652
  C        1.4110010    -0.0260590     0.6001090
  H       -0.4223330     0.7179750     1.4244750
  H       -0.7480580    -1.6484420     0.4813360
  H       -0.6528610    -0.8980200    -1.1386560
  H        1.5335420    -0.7074240     1.4482380
  H        2.0415670     0.8553370     0.7402530
units angstrom
no_reorient  #important for SAPT in psi4, default
symmetry c1  #important for SAPT in psi4, default
}

set PROPERTIES_ORIGIN ["COM"]
properties('MP2/aug-cc-pvtz', properties = ['dipole'])
--------------------------------------------------------------------------

    Molecular point group: c1
  Charge       = 0
  Multiplicity = 1
  Basis Set: AUG-CC-PVTZ
    Blend: AUG-CC-PVTZ
  Basis Set: (AUG-CC-PVTZ AUX)
    Blend: AUG-CC-PVTZ-JKFIT

    Orbital Energies [Eh]
    ---------------------

    Doubly Occupied:

       1A    -26.304478     2A    -26.296490     3A    -26.266906
       4A    -11.343640     5A    -11.340188     6A    -11.329131
       7A     -1.615601     8A     -1.602391     9A     -1.550830
      10A     -1.106058    11A     -0.976210    12A     -0.861025
      13A     -0.760691    14A     -0.736991    15A     -0.734048
      16A     -0.699813    17A     -0.689587    18A     -0.670819
      19A     -0.643931    20A     -0.633279    21A     -0.610492
      22A     -0.560469    23A     -0.556525    24A     -0.543031
      25A     -0.516318

  @DF-RHF Final Energy:  -414.96763807134749

   => Energetics <=

    Nuclear Repulsion Energy =            257.9028085400057648
    One-Electron Energy =               -1087.8430069297949103
    Two-Electron Energy =                 414.9725603184417082
    Total Energy =                       -414.9676380713474941
  Basis Set: (AUG-CC-PVTZ AUX)
    Blend: AUG-CC-PVTZ-RI
    Molecular point group: c1

    Geometry (in Angstrom), charge = 0, multiplicity = 1:

       Center              X                  Y                   Z               Mass
    ------------   -----------------  -----------------  -----------------  -----------------
         F           -0.097758077914     1.451103250262    -0.385625947581    18.998403162730
         F           -2.221653077914    -0.366454749738     0.052640052419    18.998403162730
         F            1.835816922086    -0.708525749738    -0.517296947581    18.998403162730
         C           -0.020764077914     0.367984250262     0.495497052419    12.000000000000
         C           -0.787712077914    -0.770587249738    -0.055463147581    12.000000000000
         C            1.422248922086    -0.044138749738     0.640811052419    12.000000000000
         H           -0.411085077914     0.699895250262     1.465177052419     1.007825032230
         H           -0.736810077914    -1.666521749738     0.522038052419     1.007825032230
         H           -0.641613077914    -0.916099749738    -1.097953947581     1.007825032230
         H            1.544789922086    -0.725503749738     1.488940052419     1.007825032230
         H            2.052814922086     0.837257250262     0.780955052419     1.007825032230

  Basis Set: AUG-CC-PVTZ
    Blend: AUG-CC-PVTZ
  Basis Set: (AUG-CC-PVTZ AUX)
    Blend: AUG-CC-PVTZ-JKFIT
	 Reference Energy          =    -414.9676380713474941 [Eh]
	 Singles Energy            =      -0.0000000000000000 [Eh]
	 Same-Spin Energy          =      -0.3382780079302946 [Eh]
	 Opposite-Spin Energy      =      -1.0516229390308842 [Eh]
	 Correlation Energy        =      -1.3899009469611787 [Eh]
	 Total Energy              =    -416.3575390183086711 [Eh]

	 ================> DF-SCS-MP2 Energies <==================
	-----------------------------------------------------------
	 SCS Same-Spin Scale       =       0.3333333333333333 [-]
	 SCS Opposite-Spin Scale   =       1.2000000000000000 [-]
	 SCS Same-Spin Energy      =      -0.1127593359767649 [Eh]
	 SCS Opposite-Spin Energy  =      -1.2619475268370610 [Eh]
	 SCS Correlation Energy    =      -1.3747068628138259 [Eh]
	 SCS Total Energy          =    -416.3423449341613036 [Eh]
	-----------------------------------------------------------

  Dipole Moment: [D]
     X:     1.8278      Y:    -1.1196      Z:     2.4496     Total:     3.2550

*** Psi4 exiting successfully. Buy a developer a beer!
