                               Psi4 1.4a3.dev225

  ==> Input File <==

--------------------------------------------------------------------------
#psi4
#
memory 32 gb

molecule  {
0 1
  F       -0.1084850     1.4692890    -0.4260300
  F       -2.2331630    -0.3482300     0.0117680
  F        1.8246690    -0.6901440    -0.5582290
  C       -0.0319790     0.3860030     0.4547500
  C       -0.9144010    -0.7198210    -0.0875914
  C        1.4108330    -0.0266950     0.6002700
  H       -0.4221970     0.7178410     1.4244990
  H       -0.7481970    -1.6482080     0.4812370
  H       -0.6530720    -0.8976150    -1.1387410
  H        1.5326250    -0.7089740     1.4478000
  H        2.0417420     0.8542580     0.7417190
units angstrom
no_reorient  #important for SAPT in psi4, default
symmetry c1  #important for SAPT in psi4, default
}

set PROPERTIES_ORIGIN ["COM"]
properties('MP2/aug-cc-pvtz', properties = ['dipole'])
--------------------------------------------------------------------------

    Molecular point group: c1
  Charge       = 0
  Multiplicity = 1
  Basis Set: AUG-CC-PVTZ
    Blend: AUG-CC-PVTZ
  Basis Set: (AUG-CC-PVTZ AUX)
    Blend: AUG-CC-PVTZ-JKFIT

    Orbital Energies [Eh]
    ---------------------

    Doubly Occupied:

       1A    -26.299466     2A    -26.294513     3A    -26.291959
       4A    -11.338686     5A    -11.337234     6A    -11.327433
       7A     -1.613494     8A     -1.606593     9A     -1.595630
      10A     -1.091319    11A     -0.970986    12A     -0.857528
      13A     -0.758031    14A     -0.739148    15A     -0.737786
      16A     -0.708176    17A     -0.690505    18A     -0.682790
      19A     -0.673472    20A     -0.642187    21A     -0.621388
      22A     -0.554656    23A     -0.539031    24A     -0.529689
      25A     -0.507099

  @DF-RHF Final Energy:  -414.97853371889943

   => Energetics <=

    Nuclear Repulsion Energy =            258.2536636128536429
    One-Electron Energy =               -1088.4467974801359560
    Two-Electron Energy =                 415.2146001483828854
    Total Energy =                       -414.9785337188994276
  Basis Set: (AUG-CC-PVTZ AUX)
    Blend: AUG-CC-PVTZ-RI
    Molecular point group: c1

    Geometry (in Angstrom), charge = 0, multiplicity = 1:

       Center              X                  Y                   Z               Mass
    ------------   -----------------  -----------------  -----------------  -----------------
         F           -0.083149614996     1.447208208199    -0.386380788459    18.998403162730
         F           -2.207827614996    -0.370310791801     0.051417211541    18.998403162730
         F            1.850004385004    -0.712224791801    -0.518579788459    18.998403162730
         C           -0.006643614996     0.363922208199     0.494399211541    12.000000000000
         C           -0.889065614996    -0.741901791801    -0.047942188459    12.000000000000
         C            1.436168385004    -0.048775791801     0.639919211541    12.000000000000
         H           -0.396861614996     0.695760208199     1.464148211541     1.007825032230
         H           -0.722861614996    -1.670288791801     0.520886211541     1.007825032230
         H           -0.627736614996    -0.919695791801    -1.099091788459     1.007825032230
         H            1.557960385004    -0.731054791801     1.487449211541     1.007825032230
         H            2.067077385004     0.832177208199     0.781368211541     1.007825032230

  Basis Set: AUG-CC-PVTZ
    Blend: AUG-CC-PVTZ
  Basis Set: (AUG-CC-PVTZ AUX)
    Blend: AUG-CC-PVTZ-JKFIT
	 Reference Energy          =    -414.9785337188994276 [Eh]
	 Singles Energy            =      -0.0000000000000000 [Eh]
	 Same-Spin Energy          =      -0.3375011526033445 [Eh]
	 Opposite-Spin Energy      =      -1.0488104095578152 [Eh]
	 Correlation Energy        =      -1.3863115621611597 [Eh]
	 Total Energy              =    -416.3648452810605818 [Eh]

	 ================> DF-SCS-MP2 Energies <==================
	-----------------------------------------------------------
	 SCS Same-Spin Scale       =       0.3333333333333333 [-]
	 SCS Opposite-Spin Scale   =       1.2000000000000000 [-]
	 SCS Same-Spin Energy      =      -0.1125003842011148 [Eh]
	 SCS Opposite-Spin Energy  =      -1.2585724914693783 [Eh]
	 SCS Correlation Energy    =      -1.3710728756704931 [Eh]
	 SCS Total Energy          =    -416.3496065945699343 [Eh]
	-----------------------------------------------------------

  Dipole Moment: [D]
     X:     1.3004      Y:    -1.0262      Z:     2.4570     Total:     2.9632

*** Psi4 exiting successfully. Buy a developer a beer!
