                               Psi4 1.3.2 release

  ==> Input File <==

--------------------------------------------------------------------------
#psi4
#
memory 32 gb

molecule  {
0 1
  F       -0.1090060     1.4691830    -0.4263280
  F       -2.2564889    -0.4340017    -0.0277497
  F        1.8245690    -0.6904460    -0.5579990
  C       -0.0320120     0.3860640     0.4547950
  C       -0.8949580    -0.7254520    -0.0889280
  C        1.4110010    -0.0260590     0.6001090
  H       -0.4223330     0.7179750     1.4244750
  H       -0.7480580    -1.6484420     0.4813360
  H       -0.6528610    -0.8980200    -1.1386560
  H        1.5335420    -0.7074240     1.4482380
  H        2.0415670     0.8553370     0.7402530
units angstrom
no_reorient  #important for SAPT in psi4, default
symmetry c1  #important for SAPT in psi4, default
}

set PROPERTIES_ORIGIN ["COM"]
properties('MP2/aug-cc-pvtz', properties = ['dipole'])
--------------------------------------------------------------------------

    Molecular point group: c1
  Charge       = 0
  Multiplicity = 1
  Basis Set: AUG-CC-PVTZ
    Blend: AUG-CC-PVTZ
  Basis Set: (AUG-CC-PVTZ AUX)
    Blend: AUG-CC-PVTZ-JKFIT

    Orbital Energies [Eh]
    ---------------------

    Doubly Occupied:

       1A    -26.300814     2A    -26.293679     3A    -26.289552
       4A    -11.341713     5A    -11.339419     6A    -11.326682
       7A     -1.612596     8A     -1.602000     9A     -1.593091
      10A     -1.094808    11A     -0.972124    12A     -0.858601
      13A     -0.758339    14A     -0.739204    15A     -0.735651
      16A     -0.705777    17A     -0.690730    18A     -0.679194
      19A     -0.671354    20A     -0.641938    21A     -0.620779
      22A     -0.556220    23A     -0.541120    24A     -0.531401
      25A     -0.511793

  @DF-RHF Final Energy:  -414.97771548907309

   => Energetics <=

    Nuclear Repulsion Energy =            257.4197473767384849
    One-Electron Energy =               -1086.7777667201021359
    Two-Electron Energy =                 414.3803038542905028
    Total Energy =                       -414.9777154890730912
  Basis Set: (AUG-CC-PVTZ AUX)
    Blend: AUG-CC-PVTZ-RI
    Molecular point group: c1

    Geometry (in Angstrom), charge = 0, multiplicity = 1:

       Center              X                  Y                   Z               Mass
    ------------   -----------------  -----------------  -----------------  -----------------
         F           -0.081436159275     1.464385378128    -0.378820612209    18.998403162730
         F           -2.228919059275    -0.438799321872     0.019757687791    18.998403162730
         F            1.852138840725    -0.695243621872    -0.510491612209    18.998403162730
         C           -0.004442159275     0.381266378128     0.502302387791    12.000000000000
         C           -0.867388159275    -0.730249621872    -0.041420612209    12.000000000000
         C            1.438570840725    -0.030856621872     0.647616387791    12.000000000000
         H           -0.394763159275     0.713177378128     1.471982387791     1.007825032230
         H           -0.720488159275    -1.653239621872     0.528843387791     1.007825032230
         H           -0.625291159275    -0.902817621872    -1.091148612209     1.007825032230
         H            1.561111840725    -0.712221621872     1.495745387791     1.007825032230
         H            2.069136840725     0.850539378128     0.787760387791     1.007825032230

  Basis Set: AUG-CC-PVTZ
    Blend: AUG-CC-PVTZ
  Basis Set: (AUG-CC-PVTZ AUX)
    Blend: AUG-CC-PVTZ-JKFIT
	 Reference Energy          =    -414.9777154890730912 [Eh]
	 Singles Energy            =      -0.0000000000000000 [Eh]
	 Same-Spin Energy          =      -0.3375595439936409 [Eh]
	 Opposite-Spin Energy      =      -1.0492129287788718 [Eh]
	 Correlation Energy        =      -1.3867724727725128 [Eh]
	 Total Energy              =    -416.3644879618456116 [Eh]

	 ================> DF-SCS-MP2 Energies <==================
	-----------------------------------------------------------
	 SCS Same-Spin Scale       =       0.3333333333333333 [-]
	 SCS Opposite-Spin Scale   =       1.2000000000000000 [-]
	 SCS Same-Spin Energy      =      -0.1125198479978803 [Eh]
	 SCS Opposite-Spin Energy  =      -1.2590555145346463 [Eh]
	 SCS Correlation Energy    =      -1.3715753625325267 [Eh]
	 SCS Total Energy          =    -416.3492908516056445 [Eh]
	-----------------------------------------------------------

  Dipole Moment: [D]
     X:     1.4523      Y:    -0.9257      Z:     2.5151     Total:     3.0483

*** Psi4 exiting successfully. Buy a developer a beer!
