                               Psi4 1.4a3.dev225

  ==> Input File <==

--------------------------------------------------------------------------
#psi4
#
memory 32 gb

molecule  {
0 1
  F       -0.1084850     1.4692890    -0.4260300
  F       -2.2331630    -0.3482300     0.0117680
  F        1.8246690    -0.6901440    -0.5582290
  C       -0.0319790     0.3860030     0.4547500
  C       -0.8760010    -0.7306410    -0.0904846
  C        1.4108330    -0.0266950     0.6002700
  H       -0.4221970     0.7178410     1.4244990
  H       -0.7481970    -1.6482080     0.4812370
  H       -0.6530720    -0.8976150    -1.1387410
  H        1.5326250    -0.7089740     1.4478000
  H        2.0417420     0.8542580     0.7417190
units angstrom
no_reorient  #important for SAPT in psi4, default
symmetry c1  #important for SAPT in psi4, default
}

set PROPERTIES_ORIGIN ["COM"]
properties('MP2/aug-cc-pvtz', properties = ['dipole'])
--------------------------------------------------------------------------

    Molecular point group: c1
  Charge       = 0
  Multiplicity = 1
  Basis Set: AUG-CC-PVTZ
    Blend: AUG-CC-PVTZ
  Basis Set: (AUG-CC-PVTZ AUX)
    Blend: AUG-CC-PVTZ-JKFIT

    Orbital Energies [Eh]
    ---------------------

    Doubly Occupied:

       1A    -26.301028     2A    -26.293466     3A    -26.285380
       4A    -11.340250     5A    -11.338138     6A    -11.327275
       7A     -1.612504     8A     -1.600749     9A     -1.585202
      10A     -1.096123    11A     -0.972657    12A     -0.858238
      13A     -0.758154    14A     -0.736999    15A     -0.735528
      16A     -0.703551    17A     -0.689279    18A     -0.675812
      19A     -0.667019    20A     -0.639620    21A     -0.619813
      22A     -0.556290    23A     -0.546361    24A     -0.533689
      25A     -0.512110

  @DF-RHF Final Energy:  -414.97741595384440

   => Energetics <=

    Nuclear Repulsion Energy =            258.1157676661844675
    One-Electron Energy =               -1088.2158981278184910
    Two-Electron Energy =                 415.1227145077896807
    Total Energy =                       -414.9774159538443996
  Basis Set: (AUG-CC-PVTZ AUX)
    Blend: AUG-CC-PVTZ-RI
    Molecular point group: c1

    Geometry (in Angstrom), charge = 0, multiplicity = 1:

       Center              X                  Y                   Z               Mass
    ------------   -----------------  -----------------  -----------------  -----------------
         F           -0.087850009013     1.448532642138    -0.386026643147    18.998403162730
         F           -2.212528009013    -0.368986357862     0.051771356853    18.998403162730
         F            1.845303990987    -0.710900357862    -0.518225643147    18.998403162730
         C           -0.011344009013     0.365246642138     0.494753356853    12.000000000000
         C           -0.855366009013    -0.751397357862    -0.050481243147    12.000000000000
         C            1.431467990987    -0.047451357862     0.640273356853    12.000000000000
         H           -0.401562009013     0.697084642138     1.464502356853     1.007825032230
         H           -0.727562009013    -1.668964357862     0.521240356853     1.007825032230
         H           -0.632437009013    -0.918371357862    -1.098737643147     1.007825032230
         H            1.553259990987    -0.729730357862     1.487803356853     1.007825032230
         H            2.062376990987     0.833501642138     0.781722356853     1.007825032230

  Basis Set: AUG-CC-PVTZ
    Blend: AUG-CC-PVTZ
  Basis Set: (AUG-CC-PVTZ AUX)
    Blend: AUG-CC-PVTZ-JKFIT
	 Reference Energy          =    -414.9774159538443996 [Eh]
	 Singles Energy            =      -0.0000000000000000 [Eh]
	 Same-Spin Energy          =      -0.3376968681220756 [Eh]
	 Opposite-Spin Energy      =      -1.0496567488009398 [Eh]
	 Correlation Energy        =      -1.3873536169230154 [Eh]
	 Total Energy              =    -416.3647695707674075 [Eh]

	 ================> DF-SCS-MP2 Energies <==================
	-----------------------------------------------------------
	 SCS Same-Spin Scale       =       0.3333333333333333 [-]
	 SCS Opposite-Spin Scale   =       1.2000000000000000 [-]
	 SCS Same-Spin Energy      =      -0.1125656227073585 [Eh]
	 SCS Opposite-Spin Energy  =      -1.2595880985611279 [Eh]
	 SCS Correlation Energy    =      -1.3721537212684864 [Eh]
	 SCS Total Energy          =    -416.3495696751128889 [Eh]
	-----------------------------------------------------------

  Dipole Moment: [D]
     X:     1.4803      Y:    -1.0618      Z:     2.4539     Total:     3.0562

*** Psi4 exiting successfully. Buy a developer a beer!
