                               Psi4 1.3.2 release

  ==> Input File <==

--------------------------------------------------------------------------
#psi4
#
memory 32 gb

molecule  {
0 1
  F       -0.0514345     1.3808178    -0.5278241
  F       -2.2329010    -0.3483750     0.0119380
  F        1.8245690    -0.6904460    -0.5579990
  C       -0.0320120     0.3860640     0.4547950
  C       -0.8949580    -0.7254520    -0.0889280
  C        1.4110010    -0.0260590     0.6001090
  H       -0.4223330     0.7179750     1.4244750
  H       -0.7480580    -1.6484420     0.4813360
  H       -0.6528610    -0.8980200    -1.1386560
  H        1.5335420    -0.7074240     1.4482380
  H        2.0415670     0.8553370     0.7402530
units angstrom
no_reorient  #important for SAPT in psi4, default
symmetry c1  #important for SAPT in psi4, default
}

set PROPERTIES_ORIGIN ["COM"]
properties('MP2/aug-cc-pvtz', properties = ['dipole'])
--------------------------------------------------------------------------

    Molecular point group: c1
  Charge       = 0
  Multiplicity = 1
  Basis Set: AUG-CC-PVTZ
    Blend: AUG-CC-PVTZ
  Basis Set: (AUG-CC-PVTZ AUX)
    Blend: AUG-CC-PVTZ-JKFIT

    Orbital Energies [Eh]
    ---------------------

    Doubly Occupied:

       1A    -26.299112     2A    -26.292909     3A    -26.289492
       4A    -11.340009     5A    -11.336239     6A    -11.325253
       7A     -1.612843     8A     -1.601182     9A     -1.592289
      10A     -1.092960    11A     -0.971274    12A     -0.856548
      13A     -0.760352    14A     -0.737503    15A     -0.735934
      16A     -0.704552    17A     -0.688706    18A     -0.678210
      19A     -0.669368    20A     -0.640016    21A     -0.622492
      22A     -0.556565    23A     -0.538692    24A     -0.532022
      25A     -0.509082

  @DF-RHF Final Energy:  -414.97572948969406

   => Energetics <=

    Nuclear Repulsion Energy =            259.2188632849242254
    One-Electron Energy =               -1090.4219719266202446
    Two-Electron Energy =                 416.2273791520019017
    Total Energy =                       -414.9757294896940607
  Basis Set: (AUG-CC-PVTZ AUX)
    Blend: AUG-CC-PVTZ-RI
    Molecular point group: c1

    Geometry (in Angstrom), charge = 0, multiplicity = 1:

       Center              X                  Y                   Z               Mass
    ------------   -----------------  -----------------  -----------------  -----------------
         F           -0.039592812143     1.376550881246    -0.468338654662    18.998403162730
         F           -2.221059312143    -0.352641918754     0.071423445338    18.998403162730
         F            1.836410687857    -0.694712918754    -0.498513554662    18.998403162730
         C           -0.020170312143     0.381797081246     0.514280445338    12.000000000000
         C           -0.883116312143    -0.729718918754    -0.029442554662    12.000000000000
         C            1.422842687857    -0.030325918754     0.659594445338    12.000000000000
         H           -0.410491312143     0.713708081246     1.483960445338     1.007825032230
         H           -0.736216312143    -1.652708918754     0.540821445338     1.007825032230
         H           -0.641019312143    -0.902286918754    -1.079170554662     1.007825032230
         H            1.545383687857    -0.711690918754     1.507723445338     1.007825032230
         H            2.053408687857     0.851070081246     0.799738445338     1.007825032230

  Basis Set: AUG-CC-PVTZ
    Blend: AUG-CC-PVTZ
  Basis Set: (AUG-CC-PVTZ AUX)
    Blend: AUG-CC-PVTZ-JKFIT
	 Reference Energy          =    -414.9757294896940607 [Eh]
	 Singles Energy            =      -0.0000000000000000 [Eh]
	 Same-Spin Energy          =      -0.3377559024197916 [Eh]
	 Opposite-Spin Energy      =      -1.0495395807486430 [Eh]
	 Correlation Energy        =      -1.3872954831684345 [Eh]
	 Total Energy              =    -416.3630249728624904 [Eh]

	 ================> DF-SCS-MP2 Energies <==================
	-----------------------------------------------------------
	 SCS Same-Spin Scale       =       0.3333333333333333 [-]
	 SCS Opposite-Spin Scale   =       1.2000000000000000 [-]
	 SCS Same-Spin Energy      =      -0.1125853008065972 [Eh]
	 SCS Opposite-Spin Energy  =      -1.2594474968983715 [Eh]
	 SCS Correlation Energy    =      -1.3720327977049687 [Eh]
	 SCS Total Energy          =    -416.3477622873990072 [Eh]
	-----------------------------------------------------------

  Dipole Moment: [D]
     X:     1.3191      Y:    -0.9046      Z:     2.5656     Total:     3.0233

*** Psi4 exiting successfully. Buy a developer a beer!
