                               Psi4 1.3.2 release

  ==> Input File <==

--------------------------------------------------------------------------
#psi4
#
memory 32 gb

molecule  {
0 1
  F       -0.1090060     1.4691830    -0.4263280
  F       -2.1990931    -0.2341216    -0.0722350
  F        1.8245690    -0.6904460    -0.5579990
  C       -0.0320120     0.3860640     0.4547950
  C       -0.8949580    -0.7254520    -0.0889280
  C        1.4110010    -0.0260590     0.6001090
  H       -0.4223330     0.7179750     1.4244750
  H       -0.7480580    -1.6484420     0.4813360
  H       -0.6528610    -0.8980200    -1.1386560
  H        1.5335420    -0.7074240     1.4482380
  H        2.0415670     0.8553370     0.7402530
units angstrom
no_reorient  #important for SAPT in psi4, default
symmetry c1  #important for SAPT in psi4, default
}

set PROPERTIES_ORIGIN ["COM"]
properties('MP2/aug-cc-pvtz', properties = ['dipole'])
--------------------------------------------------------------------------

    Molecular point group: c1
  Charge       = 0
  Multiplicity = 1
  Basis Set: AUG-CC-PVTZ
    Blend: AUG-CC-PVTZ
  Basis Set: (AUG-CC-PVTZ AUX)
    Blend: AUG-CC-PVTZ-JKFIT

    Orbital Energies [Eh]
    ---------------------

    Doubly Occupied:

       1A    -26.299415     2A    -26.291334     3A    -26.289521
       4A    -11.337908     5A    -11.336371     6A    -11.327484
       7A     -1.611585     8A     -1.602167     9A     -1.590845
      10A     -1.092780    11A     -0.971359    12A     -0.856980
      13A     -0.756750    14A     -0.738584    15A     -0.736092
      16A     -0.705479    17A     -0.688241    18A     -0.677658
      19A     -0.670851    20A     -0.638151    21A     -0.620636
      22A     -0.554358    23A     -0.544872    24A     -0.529792
      25A     -0.507833

  @DF-RHF Final Energy:  -414.97590661375580

   => Energetics <=

    Nuclear Repulsion Energy =            259.1726344546320320
    One-Electron Energy =               -1090.3429878616132100
    Two-Electron Energy =                 416.1944467932253247
    Total Energy =                       -414.9759066137557966
  Basis Set: (AUG-CC-PVTZ AUX)
    Blend: AUG-CC-PVTZ-RI
    Molecular point group: c1

    Geometry (in Angstrom), charge = 0, multiplicity = 1:

       Center              X                  Y                   Z               Mass
    ------------   -----------------  -----------------  -----------------  -----------------
         F           -0.092559084239     1.425649941838    -0.370199656426    18.998403162730
         F           -2.182646184239    -0.277654658162    -0.016106656426    18.998403162730
         F            1.841015915761    -0.733979058162    -0.501870656426    18.998403162730
         C           -0.015565084239     0.342530941838     0.510923343574    12.000000000000
         C           -0.878511084239    -0.768985058162    -0.032799656426    12.000000000000
         C            1.427447915761    -0.069592058162     0.656237343574    12.000000000000
         H           -0.405886084239     0.674441941838     1.480603343574     1.007825032230
         H           -0.731611084239    -1.691975058162     0.537464343574     1.007825032230
         H           -0.636414084239    -0.941553058162    -1.082527656426     1.007825032230
         H            1.549988915761    -0.750957058162     1.504366343574     1.007825032230
         H            2.058013915761     0.811803941838     0.796381343574     1.007825032230

  Basis Set: AUG-CC-PVTZ
    Blend: AUG-CC-PVTZ
  Basis Set: (AUG-CC-PVTZ AUX)
    Blend: AUG-CC-PVTZ-JKFIT
	 Reference Energy          =    -414.9759066137557966 [Eh]
	 Singles Energy            =      -0.0000000000000000 [Eh]
	 Same-Spin Energy          =      -0.3377616601869293 [Eh]
	 Opposite-Spin Energy      =      -1.0494756280903912 [Eh]
	 Correlation Energy        =      -1.3872372882773205 [Eh]
	 Total Energy              =    -416.3631439020331300 [Eh]

	 ================> DF-SCS-MP2 Energies <==================
	-----------------------------------------------------------
	 SCS Same-Spin Scale       =       0.3333333333333333 [-]
	 SCS Opposite-Spin Scale   =       1.2000000000000000 [-]
	 SCS Same-Spin Energy      =      -0.1125872200623098 [Eh]
	 SCS Opposite-Spin Energy  =      -1.2593707537084693 [Eh]
	 SCS Correlation Energy    =      -1.3719579737707790 [Eh]
	 SCS Total Energy          =    -416.3478645875266011 [Eh]
	-----------------------------------------------------------

  Dipole Moment: [D]
     X:     1.3178      Y:    -1.1889      Z:     2.5470     Total:     3.1044

*** Psi4 exiting successfully. Buy a developer a beer!
