                               Psi4 1.3.2 release

  ==> Input File <==

--------------------------------------------------------------------------
#psi4
#
memory 32 gb

molecule  {
0 1
  F       -0.1090060     1.4691830    -0.4263280
  F       -2.2329010    -0.3483750     0.0119380
  F        1.8245690    -0.6904460    -0.5579990
  C       -0.0320120     0.3860640     0.4547950
  C       -0.7029619    -0.7795629    -0.1034024
  C        1.4110010    -0.0260590     0.6001090
  H       -0.4223330     0.7179750     1.4244750
  H       -0.7480580    -1.6484420     0.4813360
  H       -0.6528610    -0.8980200    -1.1386560
  H        1.5335420    -0.7074240     1.4482380
  H        2.0415670     0.8553370     0.7402530
units angstrom
no_reorient  #important for SAPT in psi4, default
symmetry c1  #important for SAPT in psi4, default
}

set PROPERTIES_ORIGIN ["COM"]
properties('MP2/aug-cc-pvtz', properties = ['dipole'])
--------------------------------------------------------------------------

    Molecular point group: c1
  Charge       = 0
  Multiplicity = 1
  Basis Set: AUG-CC-PVTZ
    Blend: AUG-CC-PVTZ
  Basis Set: (AUG-CC-PVTZ AUX)
    Blend: AUG-CC-PVTZ-JKFIT

    Orbital Energies [Eh]
    ---------------------

    Doubly Occupied:

       1A    -26.309654     2A    -26.300339     3A    -26.242814
       4A    -11.348428     5A    -11.343428     6A    -11.335069
       7A     -1.620726     8A     -1.605887     9A     -1.512550
      10A     -1.118956    11A     -0.980681    12A     -0.865679
      13A     -0.766146    14A     -0.741277    15A     -0.735132
      16A     -0.701593    17A     -0.693596    18A     -0.669745
      19A     -0.636445    20A     -0.609808    21A     -0.590745
      22A     -0.563972    23A     -0.559765    24A     -0.552286
      25A     -0.514766

  @DF-RHF Final Energy:  -414.94538900940449

   => Energetics <=

    Nuclear Repulsion Energy =            257.7178959266055926
    One-Electron Energy =               -1087.4875983705048839
    Two-Electron Energy =                 414.8243134344947975
    Total Energy =                       -414.9453890094044937
  Basis Set: (AUG-CC-PVTZ AUX)
    Blend: AUG-CC-PVTZ-RI
    Molecular point group: c1

    Geometry (in Angstrom), charge = 0, multiplicity = 1:

       Center              X                  Y                   Z               Mass
    ------------   -----------------  -----------------  -----------------  -----------------
         F           -0.109508830383     1.454414996102    -0.384740070196    18.998403162730
         F           -2.233403830383    -0.363143003898     0.053525929804    18.998403162730
         F            1.824066169617    -0.705214003898    -0.516411070196    18.998403162730
         C           -0.032514830383     0.371295996102     0.496382929804    12.000000000000
         C           -0.703464730383    -0.794330903898    -0.061814470196    12.000000000000
         C            1.410498169617    -0.040827003898     0.641696929804    12.000000000000
         H           -0.422835830383     0.703206996102     1.466062929804     1.007825032230
         H           -0.748560830383    -1.663210003898     0.522923929804     1.007825032230
         H           -0.653363830383    -0.912788003898    -1.097068070196     1.007825032230
         H            1.533039169617    -0.722192003898     1.489825929804     1.007825032230
         H            2.041064169617     0.840568996102     0.781840929804     1.007825032230

  Basis Set: AUG-CC-PVTZ
    Blend: AUG-CC-PVTZ
  Basis Set: (AUG-CC-PVTZ AUX)
    Blend: AUG-CC-PVTZ-JKFIT
	 Reference Energy          =    -414.9453890094044937 [Eh]
	 Singles Energy            =      -0.0000000000000000 [Eh]
	 Same-Spin Energy          =      -0.3392819657533335 [Eh]
	 Opposite-Spin Energy      =      -1.0543508434405582 [Eh]
	 Correlation Energy        =      -1.3936328091938917 [Eh]
	 Total Energy              =    -416.3390218185983827 [Eh]

	 ================> DF-SCS-MP2 Energies <==================
	-----------------------------------------------------------
	 SCS Same-Spin Scale       =       0.3333333333333333 [-]
	 SCS Opposite-Spin Scale   =       1.2000000000000000 [-]
	 SCS Same-Spin Energy      =      -0.1130939885844445 [Eh]
	 SCS Opposite-Spin Energy  =      -1.2652210121286698 [Eh]
	 SCS Correlation Energy    =      -1.3783150007131142 [Eh]
	 SCS Total Energy          =    -416.3237040101175808 [Eh]
	-----------------------------------------------------------

  Dipole Moment: [D]
     X:     2.2492      Y:    -1.1749      Z:     2.4469     Total:     3.5251

*** Psi4 exiting successfully. Buy a developer a beer!
