                               Psi4 1.3.2 release

  ==> Input File <==

--------------------------------------------------------------------------
#psi4
#
memory 32 gb

molecule  {
0 1
  F       -0.1090060     1.4691830    -0.4263280
  F       -2.2329010    -0.3483750     0.0119380
  F        1.8245690    -0.6904460    -0.5579990
  C       -0.0320120     0.3860640     0.4547950
  C       -0.9909560    -0.6983965    -0.0816908
  C        1.4110010    -0.0260590     0.6001090
  H       -0.4223330     0.7179750     1.4244750
  H       -0.7480580    -1.6484420     0.4813360
  H       -0.6528610    -0.8980200    -1.1386560
  H        1.5335420    -0.7074240     1.4482380
  H        2.0415670     0.8553370     0.7402530
units angstrom
no_reorient  #important for SAPT in psi4, default
symmetry c1  #important for SAPT in psi4, default
}

set PROPERTIES_ORIGIN ["COM"]
properties('MP2/aug-cc-pvtz', properties = ['dipole'])
--------------------------------------------------------------------------

    Molecular point group: c1
  Charge       = 0
  Multiplicity = 1
  Basis Set: AUG-CC-PVTZ
    Blend: AUG-CC-PVTZ
  Basis Set: (AUG-CC-PVTZ AUX)
    Blend: AUG-CC-PVTZ-JKFIT

    Orbital Energies [Eh]
    ---------------------

    Doubly Occupied:

       1A    -26.313212     2A    -26.296529     3A    -26.288944
       4A    -11.335968     5A    -11.335249     6A    -11.330105
       7A     -1.654786     8A     -1.607009     9A     -1.594601
      10A     -1.082132    11A     -0.968305    12A     -0.858804
      13A     -0.763481    14A     -0.750548    15A     -0.746810
      16A     -0.721281    17A     -0.698740    18A     -0.694197
      19A     -0.674911    20A     -0.645608    21A     -0.620726
      22A     -0.551890    23A     -0.528762    24A     -0.515960
      25A     -0.491566

  @DF-RHF Final Energy:  -414.97071825181945

   => Energetics <=

    Nuclear Repulsion Energy =            258.6135126542195053
    One-Electron Energy =               -1089.0282137226852228
    Two-Electron Energy =                 415.4439828166463258
    Total Energy =                       -414.9707182518194486
  Basis Set: (AUG-CC-PVTZ AUX)
    Blend: AUG-CC-PVTZ-RI
    Molecular point group: c1

    Geometry (in Angstrom), charge = 0, multiplicity = 1:

       Center              X                  Y                   Z               Mass
    ------------   -----------------  -----------------  -----------------  -----------------
         F           -0.074256597455     1.444479734100    -0.387397702350    18.998403162730
         F           -2.198151597455    -0.373078265900     0.050868297650    18.998403162730
         F            1.859318402545    -0.715149265900    -0.519068702350    18.998403162730
         C            0.002737402545     0.361360734100     0.493725297650    12.000000000000
         C           -0.956206597455    -0.723099765900    -0.042760502350    12.000000000000
         C            1.445750402545    -0.050762265900     0.639039297650    12.000000000000
         H           -0.387583597455     0.693271734100     1.463405297650     1.007825032230
         H           -0.713308597455    -1.673145265900     0.520266297650     1.007825032230
         H           -0.618111597455    -0.922723265900    -1.099725702350     1.007825032230
         H            1.568291402545    -0.732127265900     1.487168297650     1.007825032230
         H            2.076316402545     0.830633734100     0.779183297650     1.007825032230

  Basis Set: AUG-CC-PVTZ
    Blend: AUG-CC-PVTZ
  Basis Set: (AUG-CC-PVTZ AUX)
    Blend: AUG-CC-PVTZ-JKFIT
	 Reference Energy          =    -414.9707182518194486 [Eh]
	 Singles Energy            =      -0.0000000000000000 [Eh]
	 Same-Spin Energy          =      -0.3373274532457125 [Eh]
	 Opposite-Spin Energy      =      -1.0474826652212053 [Eh]
	 Correlation Energy        =      -1.3848101184669177 [Eh]
	 Total Energy              =    -416.3555283702863790 [Eh]

	 ================> DF-SCS-MP2 Energies <==================
	-----------------------------------------------------------
	 SCS Same-Spin Scale       =       0.3333333333333333 [-]
	 SCS Opposite-Spin Scale   =       1.2000000000000000 [-]
	 SCS Same-Spin Energy      =      -0.1124424844152375 [Eh]
	 SCS Opposite-Spin Energy  =      -1.2569791982654464 [Eh]
	 SCS Correlation Energy    =      -1.3694216826806838 [Eh]
	 SCS Total Energy          =    -416.3401399345001437 [Eh]
	-----------------------------------------------------------

  Dipole Moment: [D]
     X:     0.9183      Y:    -0.9383      Z:     2.4654     Total:     2.7932

*** Psi4 exiting successfully. Buy a developer a beer!
