                               Psi4 1.3.2 release

  ==> Input File <==

--------------------------------------------------------------------------
#psi4
#
memory 32 gb

molecule  {
0 1
  F       -0.1090060     1.4691830    -0.4263280
  F       -2.2186542    -0.3062248     0.0316096
  F        1.8245690    -0.6904460    -0.5579990
  C       -0.0320120     0.3860640     0.4547950
  C       -0.8949580    -0.7254520    -0.0889280
  C        1.4110010    -0.0260590     0.6001090
  H       -0.4223330     0.7179750     1.4244750
  H       -0.7480580    -1.6484420     0.4813360
  H       -0.6528610    -0.8980200    -1.1386560
  H        1.5335420    -0.7074240     1.4482380
  H        2.0415670     0.8553370     0.7402530
units angstrom
no_reorient  #important for SAPT in psi4, default
symmetry c1  #important for SAPT in psi4, default
}

set PROPERTIES_ORIGIN ["COM"]
properties('MP2/aug-cc-pvtz', properties = ['dipole'])
--------------------------------------------------------------------------

    Molecular point group: c1
  Charge       = 0
  Multiplicity = 1
  Basis Set: AUG-CC-PVTZ
    Blend: AUG-CC-PVTZ
  Basis Set: (AUG-CC-PVTZ AUX)
    Blend: AUG-CC-PVTZ-JKFIT

    Orbital Energies [Eh]
    ---------------------

    Doubly Occupied:

       1A    -26.299891     2A    -26.292161     3A    -26.290079
       4A    -11.338339     5A    -11.336739     6A    -11.327545
       7A     -1.611916     8A     -1.602257     9A     -1.592168
      10A     -1.093073    11A     -0.971622    12A     -0.857424
      13A     -0.757767    14A     -0.737371    15A     -0.736703
      16A     -0.705567    17A     -0.689206    18A     -0.678153
      19A     -0.671189    20A     -0.640289    21A     -0.620693
      22A     -0.555009    23A     -0.543606    24A     -0.531826
      25A     -0.508539

  @DF-RHF Final Energy:  -414.97790877599374

   => Energetics <=

    Nuclear Repulsion Energy =            258.5982749309740143
    One-Electron Energy =               -1089.1740999481635299
    Two-Electron Energy =                 415.5979162411958328
    Total Energy =                       -414.9779087759937397
  Basis Set: (AUG-CC-PVTZ AUX)
    Blend: AUG-CC-PVTZ-RI
    Molecular point group: c1

    Geometry (in Angstrom), charge = 0, multiplicity = 1:

       Center              X                  Y                   Z               Mass
    ------------   -----------------  -----------------  -----------------  -----------------
         F           -0.088768272934     1.439623063274    -0.390324050437    18.998403162730
         F           -2.198416472934    -0.335784736726     0.067613549563    18.998403162730
         F            1.844806727066    -0.720005936726    -0.521995050437    18.998403162730
         C           -0.011774272934     0.356504063274     0.490798949563    12.000000000000
         C           -0.874720272934    -0.755011936726    -0.052924050437    12.000000000000
         C            1.431238727066    -0.055618936726     0.636112949563    12.000000000000
         H           -0.402095272934     0.688415063274     1.460478949563     1.007825032230
         H           -0.727820272934    -1.678001936726     0.517339949563     1.007825032230
         H           -0.632623272934    -0.927579936726    -1.102652050437     1.007825032230
         H            1.553779727066    -0.736983936726     1.484241949563     1.007825032230
         H            2.061804727066     0.825777063274     0.776256949563     1.007825032230

  Basis Set: AUG-CC-PVTZ
    Blend: AUG-CC-PVTZ
  Basis Set: (AUG-CC-PVTZ AUX)
    Blend: AUG-CC-PVTZ-JKFIT
	 Reference Energy          =    -414.9779087759937397 [Eh]
	 Singles Energy            =      -0.0000000000000000 [Eh]
	 Same-Spin Energy          =      -0.3376318044694572 [Eh]
	 Opposite-Spin Energy      =      -1.0492772336387564 [Eh]
	 Correlation Energy        =      -1.3869090381082136 [Eh]
	 Total Energy              =    -416.3648178141019685 [Eh]

	 ================> DF-SCS-MP2 Energies <==================
	-----------------------------------------------------------
	 SCS Same-Spin Scale       =       0.3333333333333333 [-]
	 SCS Opposite-Spin Scale   =       1.2000000000000000 [-]
	 SCS Same-Spin Energy      =      -0.1125439348231524 [Eh]
	 SCS Opposite-Spin Energy  =      -1.2591326803665075 [Eh]
	 SCS Correlation Energy    =      -1.3716766151896600 [Eh]
	 SCS Total Energy          =    -416.3495853911833819 [Eh]
	-----------------------------------------------------------

  Dipole Moment: [D]
     X:     1.3561      Y:    -1.1011      Z:     2.4254     Total:     2.9890

*** Psi4 exiting successfully. Buy a developer a beer!
