                               Psi4 1.4a3.dev225

  ==> Input File <==

--------------------------------------------------------------------------
#psi4
#
memory 32 gb

molecule  {
0 1
  F       -0.1084850     1.4692890    -0.4260300
  F       -2.2331630    -0.3482300     0.0117680
  F        1.8246690    -0.6901440    -0.5582290
  C       -0.0319790     0.3860030     0.4547500
  C       -0.8472011    -0.7387561    -0.0926545
  C        1.4108330    -0.0266950     0.6002700
  H       -0.4221970     0.7178410     1.4244990
  H       -0.7481970    -1.6482080     0.4812370
  H       -0.6530720    -0.8976150    -1.1387410
  H        1.5326250    -0.7089740     1.4478000
  H        2.0417420     0.8542580     0.7417190
units angstrom
no_reorient  #important for SAPT in psi4, default
symmetry c1  #important for SAPT in psi4, default
}

set PROPERTIES_ORIGIN ["COM"]
properties('MP2/aug-cc-pvtz', properties = ['dipole'])
--------------------------------------------------------------------------

    Molecular point group: c1
  Charge       = 0
  Multiplicity = 1
  Basis Set: AUG-CC-PVTZ
    Blend: AUG-CC-PVTZ
  Basis Set: (AUG-CC-PVTZ AUX)
    Blend: AUG-CC-PVTZ-JKFIT

    Orbital Energies [Eh]
    ---------------------

    Doubly Occupied:

       1A    -26.302264     2A    -26.294603     3A    -26.278515
       4A    -11.341474     5A    -11.338861     6A    -11.327641
       7A     -1.613525     8A     -1.601003     9A     -1.572128
      10A     -1.099810    11A     -0.973970    12A     -0.859122
      13A     -0.758841    14A     -0.736481    15A     -0.734593
      16A     -0.701359    17A     -0.688990    18A     -0.673468
      19A     -0.658287    20A     -0.637621    21A     -0.617325
      22A     -0.557722    23A     -0.551032    24A     -0.537037
      25A     -0.514489

  @DF-RHF Final Energy:  -414.97480957801213

   => Energetics <=

    Nuclear Repulsion Energy =            258.0270534138617222
    One-Electron Energy =               -1088.0634006242410123
    Two-Electron Energy =                 415.0615376323671626
    Total Energy =                       -414.9748095780121275
  Basis Set: (AUG-CC-PVTZ AUX)
    Blend: AUG-CC-PVTZ-RI
    Molecular point group: c1

    Geometry (in Angstrom), charge = 0, multiplicity = 1:

       Center              X                  Y                   Z               Mass
    ------------   -----------------  -----------------  -----------------  -----------------
         F           -0.091375292285     1.449525979832    -0.385761034164    18.998403162730
         F           -2.216053292285    -0.367993020168     0.052036965836    18.998403162730
         F            1.841778707715    -0.709907020168    -0.517960034164    18.998403162730
         C           -0.014869292285     0.366239979832     0.495018965836    12.000000000000
         C           -0.830091392285    -0.758519120168    -0.052385534164    12.000000000000
         C            1.427942707715    -0.046458020168     0.640538965836    12.000000000000
         H           -0.405087292285     0.698077979832     1.464767965836     1.007825032230
         H           -0.731087292285    -1.667971020168     0.521505965836     1.007825032230
         H           -0.635962292285    -0.917378020168    -1.098472034164     1.007825032230
         H            1.549734707715    -0.728737020168     1.488068965836     1.007825032230
         H            2.058851707715     0.834494979832     0.781987965836     1.007825032230

  Basis Set: AUG-CC-PVTZ
    Blend: AUG-CC-PVTZ
  Basis Set: (AUG-CC-PVTZ AUX)
    Blend: AUG-CC-PVTZ-JKFIT
	 Reference Energy          =    -414.9748095780121275 [Eh]
	 Singles Energy            =      -0.0000000000000000 [Eh]
	 Same-Spin Energy          =      -0.3378869829858221 [Eh]
	 Opposite-Spin Energy      =      -1.0503558111746631 [Eh]
	 Correlation Energy        =      -1.3882427941604853 [Eh]
	 Total Energy              =    -416.3630523721726036 [Eh]

	 ================> DF-SCS-MP2 Energies <==================
	-----------------------------------------------------------
	 SCS Same-Spin Scale       =       0.3333333333333333 [-]
	 SCS Opposite-Spin Scale   =       1.2000000000000000 [-]
	 SCS Same-Spin Energy      =      -0.1126289943286074 [Eh]
	 SCS Opposite-Spin Energy  =      -1.2604269734095956 [Eh]
	 SCS Correlation Energy    =      -1.3730559677382030 [Eh]
	 SCS Total Energy          =    -416.3478655457503237 [Eh]
	-----------------------------------------------------------

  Dipole Moment: [D]
     X:     1.6119      Y:    -1.0856      Z:     2.4521     Total:     3.1288

*** Psi4 exiting successfully. Buy a developer a beer!
