                               Psi4 1.3.2 release

  ==> Input File <==

--------------------------------------------------------------------------
#psi4
#
memory 32 gb

molecule  {
0 1
  F       -0.1090060     1.4691830    -0.4263280
  F       -2.2027948    -0.2645854     0.0511343
  F        1.8245690    -0.6904460    -0.5579990
  C       -0.0320120     0.3860640     0.4547950
  C       -0.8949580    -0.7254520    -0.0889280
  C        1.4110010    -0.0260590     0.6001090
  H       -0.4223330     0.7179750     1.4244750
  H       -0.7480580    -1.6484420     0.4813360
  H       -0.6528610    -0.8980200    -1.1386560
  H        1.5335420    -0.7074240     1.4482380
  H        2.0415670     0.8553370     0.7402530
units angstrom
no_reorient  #important for SAPT in psi4, default
symmetry c1  #important for SAPT in psi4, default
}

set PROPERTIES_ORIGIN ["COM"]
properties('MP2/aug-cc-pvtz', properties = ['dipole'])
--------------------------------------------------------------------------

    Molecular point group: c1
  Charge       = 0
  Multiplicity = 1
  Basis Set: AUG-CC-PVTZ
    Blend: AUG-CC-PVTZ
  Basis Set: (AUG-CC-PVTZ AUX)
    Blend: AUG-CC-PVTZ-JKFIT

    Orbital Energies [Eh]
    ---------------------

    Doubly Occupied:

       1A    -26.299516     2A    -26.291611     3A    -26.290211
       4A    -11.337206     5A    -11.335745     6A    -11.327821
       7A     -1.611736     8A     -1.602449     9A     -1.591749
      10A     -1.092436    11A     -0.971418    12A     -0.857089
      13A     -0.757629    14A     -0.737792    15A     -0.736106
      16A     -0.705538    17A     -0.688634    18A     -0.677778
      19A     -0.671085    20A     -0.639602    21A     -0.620453
      22A     -0.554581    23A     -0.544418    24A     -0.531962
      25A     -0.506956

  @DF-RHF Final Energy:  -414.97697961610743

   => Energetics <=

    Nuclear Repulsion Energy =            259.0381096316835965
    One-Electron Energy =               -1090.0671392486765399
    Two-Electron Energy =                 416.0520500008855151
    Total Energy =                       -414.9769796161074282
  Basis Set: (AUG-CC-PVTZ AUX)
    Blend: AUG-CC-PVTZ-RI
    Molecular point group: c1

    Geometry (in Angstrom), charge = 0, multiplicity = 1:

       Center              X                  Y                   Z               Mass
    ------------   -----------------  -----------------  -----------------  -----------------
         F           -0.091841719357     1.431553624016    -0.394107807664    18.998403162730
         F           -2.185630519357    -0.302214775984     0.083354492336    18.998403162730
         F            1.841733280643    -0.728075375984    -0.525778807664    18.998403162730
         C           -0.014847719357     0.348434624016     0.487015192336    12.000000000000
         C           -0.877793719357    -0.763081375984    -0.056707807664    12.000000000000
         C            1.428165280643    -0.063688375984     0.632329192336    12.000000000000
         H           -0.405168719357     0.680345624016     1.456695192336     1.007825032230
         H           -0.730893719357    -1.686071375984     0.513556192336     1.007825032230
         H           -0.635696719357    -0.935649375984    -1.106435807664     1.007825032230
         H            1.550706280643    -0.745053375984     1.480458192336     1.007825032230
         H            2.058731280643     0.817707624016     0.772473192336     1.007825032230

  Basis Set: AUG-CC-PVTZ
    Blend: AUG-CC-PVTZ
  Basis Set: (AUG-CC-PVTZ AUX)
    Blend: AUG-CC-PVTZ-JKFIT
	 Reference Energy          =    -414.9769796161074282 [Eh]
	 Singles Energy            =      -0.0000000000000000 [Eh]
	 Same-Spin Energy          =      -0.3376912184954889 [Eh]
	 Opposite-Spin Energy      =      -1.0493633514206191 [Eh]
	 Correlation Energy        =      -1.3870545699161081 [Eh]
	 Total Energy              =    -416.3640341860235594 [Eh]

	 ================> DF-SCS-MP2 Energies <==================
	-----------------------------------------------------------
	 SCS Same-Spin Scale       =       0.3333333333333333 [-]
	 SCS Opposite-Spin Scale   =       1.2000000000000000 [-]
	 SCS Same-Spin Energy      =      -0.1125637394984963 [Eh]
	 SCS Opposite-Spin Energy  =      -1.2592360217047429 [Eh]
	 SCS Correlation Energy    =      -1.3717997612032393 [Eh]
	 SCS Total Energy          =    -416.3487793773106773 [Eh]
	-----------------------------------------------------------

  Dipole Moment: [D]
     X:     1.3163      Y:    -1.1577      Z:     2.3956     Total:     2.9685

*** Psi4 exiting successfully. Buy a developer a beer!
