                               Psi4 1.4a3.dev225

  ==> Input File <==

--------------------------------------------------------------------------
#psi4
#
memory 32 gb

molecule  {
0 1
  F       -0.1084850     1.4692890    -0.4260300
  F       -2.2331630    -0.3482300     0.0117680
  F        1.8246690    -0.6901440    -0.5582290
  C       -0.0330733     0.4014978     0.4421518
  C       -0.8952010    -0.7252310    -0.0890380
  C        1.4108330    -0.0266950     0.6002700
  H       -0.4221970     0.7178410     1.4244990
  H       -0.7481970    -1.6482080     0.4812370
  H       -0.6530720    -0.8976150    -1.1387410
  H        1.5326250    -0.7089740     1.4478000
  H        2.0417420     0.8542580     0.7417190
units angstrom
no_reorient  #important for SAPT in psi4, default
symmetry c1  #important for SAPT in psi4, default
}

set PROPERTIES_ORIGIN ["COM"]
properties('MP2/aug-cc-pvtz', properties = ['dipole'])
--------------------------------------------------------------------------

    Molecular point group: c1
  Charge       = 0
  Multiplicity = 1
  Basis Set: AUG-CC-PVTZ
    Blend: AUG-CC-PVTZ
  Basis Set: (AUG-CC-PVTZ AUX)
    Blend: AUG-CC-PVTZ-JKFIT

    Orbital Energies [Eh]
    ---------------------

    Doubly Occupied:

       1A    -26.299461     2A    -26.297572     3A    -26.289186
       4A    -11.339319     5A    -11.336852     6A    -11.326452
       7A     -1.617366     8A     -1.604081     9A     -1.594480
      10A     -1.090496    11A     -0.970115    12A     -0.858958
      13A     -0.759395    14A     -0.738821    15A     -0.737810
      16A     -0.705119    17A     -0.692905    18A     -0.680414
      19A     -0.673246    20A     -0.643345    21A     -0.621512
      22A     -0.555298    23A     -0.542577    24A     -0.528131
      25A     -0.505740

  @DF-RHF Final Energy:  -414.97861213495418

   => Energetics <=

    Nuclear Repulsion Energy =            258.3136152876780329
    One-Electron Energy =               -1088.5671489812471009
    Two-Electron Energy =                 415.2749215586149489
    Total Energy =                       -414.9786121349541759
  Basis Set: (AUG-CC-PVTZ AUX)
    Blend: AUG-CC-PVTZ-RI
    Molecular point group: c1

    Geometry (in Angstrom), charge = 0, multiplicity = 1:

       Center              X                  Y                   Z               Mass
    ------------   -----------------  -----------------  -----------------  -----------------
         F           -0.085365863016     1.445973767220    -0.384661619348    18.998403162730
         F           -2.210043863016    -0.371545232780     0.053136380652    18.998403162730
         F            1.847788136984    -0.713459232780    -0.516860619348    18.998403162730
         C           -0.009954163016     0.378182567220     0.483520180652    12.000000000000
         C           -0.872081863016    -0.748546232780    -0.047669619348    12.000000000000
         C            1.433952136984    -0.050010232780     0.641638380652    12.000000000000
         H           -0.399077863016     0.694525767220     1.465867380652     1.007825032230
         H           -0.725077863016    -1.671523232780     0.522605380652     1.007825032230
         H           -0.629952863016    -0.920930232780    -1.097372619348     1.007825032230
         H            1.555744136984    -0.732289232780     1.489168380652     1.007825032230
         H            2.064861136984     0.830942767220     0.783087380652     1.007825032230

  Basis Set: AUG-CC-PVTZ
    Blend: AUG-CC-PVTZ
  Basis Set: (AUG-CC-PVTZ AUX)
    Blend: AUG-CC-PVTZ-JKFIT
	 Reference Energy          =    -414.9786121349541759 [Eh]
	 Singles Energy            =      -0.0000000000000000 [Eh]
	 Same-Spin Energy          =      -0.3374722221965767 [Eh]
	 Opposite-Spin Energy      =      -1.0487873916518637 [Eh]
	 Correlation Energy        =      -1.3862596138484404 [Eh]
	 Total Energy              =    -416.3648717488026136 [Eh]

	 ================> DF-SCS-MP2 Energies <==================
	-----------------------------------------------------------
	 SCS Same-Spin Scale       =       0.3333333333333333 [-]
	 SCS Opposite-Spin Scale   =       1.2000000000000000 [-]
	 SCS Same-Spin Energy      =      -0.1124907407321922 [Eh]
	 SCS Opposite-Spin Energy  =      -1.2585448699822364 [Eh]
	 SCS Correlation Energy    =      -1.3710356107144286 [Eh]
	 SCS Total Energy          =    -416.3496477456686193 [Eh]
	-----------------------------------------------------------

  Dipole Moment: [D]
     X:     1.3834      Y:    -0.9759      Z:     2.4036     Total:     2.9400

*** Psi4 exiting successfully. Buy a developer a beer!
