                               Psi4 1.3.2 release

  ==> Input File <==

--------------------------------------------------------------------------
#psi4
#
memory 32 gb

molecule  {
0 1
  F       -0.1090060     1.4691830    -0.4263280
  F       -2.2329010    -0.3483750     0.0119380
  F        1.8245690    -0.6904460    -0.5579990
  C       -0.0320120     0.3860640     0.4547950
  C       -0.8949580    -0.7254520    -0.0889280
  C        1.4110010    -0.0260590     0.6001090
  H       -0.4223330     0.7179750     1.4244750
  H       -0.7480580    -1.6484420     0.4813360
  H       -0.6528610    -0.8980200    -1.1386560
  H        1.5335420    -0.7074240     1.4482380
  H        2.0415670     0.8553370     0.7402530
units angstrom
no_reorient  #important for SAPT in psi4, default
symmetry c1  #important for SAPT in psi4, default
}

set PROPERTIES_ORIGIN ["COM"]
properties('MP2/aug-cc-pvtz', properties = ['dipole'])
--------------------------------------------------------------------------

    Molecular point group: c1
  Charge       = 0
  Multiplicity = 1
  Basis Set: AUG-CC-PVTZ
    Blend: AUG-CC-PVTZ
  Basis Set: (AUG-CC-PVTZ AUX)
    Blend: AUG-CC-PVTZ-JKFIT

    Orbital Energies [Eh]
    ---------------------

    Doubly Occupied:

       1A    -26.300232     2A    -26.292688     3A    -26.289927
       4A    -11.339470     5A    -11.337681     6A    -11.327261
       7A     -1.612130     8A     -1.602117     9A     -1.592529
      10A     -1.093681    11A     -0.971808    12A     -0.857793
      13A     -0.757935    14A     -0.737806    15A     -0.736487
      16A     -0.705614    17A     -0.689744    18A     -0.678518
      19A     -0.671271    20A     -0.640903    21A     -0.620825
      22A     -0.555429    23A     -0.542780    24A     -0.531680
      25A     -0.509879

  @DF-RHF Final Energy:  -414.97832763012093

   => Energetics <=

    Nuclear Repulsion Energy =            258.1824407626700690
    One-Electron Energy =               -1088.3291605771403283
    Two-Electron Energy =                 415.1683921843493863
    Total Energy =                       -414.9783276301209298
  Basis Set: (AUG-CC-PVTZ AUX)
    Blend: AUG-CC-PVTZ-RI
    Molecular point group: c1

    Geometry (in Angstrom), charge = 0, multiplicity = 1:

       Center              X                  Y                   Z               Mass
    ------------   -----------------  -----------------  -----------------  -----------------
         F           -0.086007337685     1.447791492181    -0.386511824965    18.998403162730
         F           -2.209902337685    -0.369766507819     0.051754175035    18.998403162730
         F            1.847567662315    -0.711837507819    -0.518182824965    18.998403162730
         C           -0.009013337685     0.364672492181     0.494611175035    12.000000000000
         C           -0.871959337685    -0.746843507819    -0.049111824965    12.000000000000
         C            1.433999662315    -0.047450507819     0.639925175035    12.000000000000
         H           -0.399334337685     0.696583492181     1.464291175035     1.007825032230
         H           -0.725059337685    -1.669833507819     0.521152175035     1.007825032230
         H           -0.629862337685    -0.919411507819    -1.098839824965     1.007825032230
         H            1.556540662315    -0.728815507819     1.488054175035     1.007825032230
         H            2.064565662315     0.833945492181     0.780069175035     1.007825032230

  Basis Set: AUG-CC-PVTZ
    Blend: AUG-CC-PVTZ
  Basis Set: (AUG-CC-PVTZ AUX)
    Blend: AUG-CC-PVTZ-JKFIT
	 Reference Energy          =    -414.9783276301209298 [Eh]
	 Singles Energy            =      -0.0000000000000000 [Eh]
	 Same-Spin Energy          =      -0.3375906279076684 [Eh]
	 Opposite-Spin Energy      =      -1.0492245735190036 [Eh]
	 Correlation Energy        =      -1.3868152014266719 [Eh]
	 Total Energy              =    -416.3651428315475869 [Eh]

	 ================> DF-SCS-MP2 Energies <==================
	-----------------------------------------------------------
	 SCS Same-Spin Scale       =       0.3333333333333333 [-]
	 SCS Opposite-Spin Scale   =       1.2000000000000000 [-]
	 SCS Same-Spin Energy      =      -0.1125302093025561 [Eh]
	 SCS Opposite-Spin Energy  =      -1.2590694882228042 [Eh]
	 SCS Correlation Energy    =      -1.3715996975253604 [Eh]
	 SCS Total Energy          =    -416.3499273276462986 [Eh]
	-----------------------------------------------------------

  Dipole Moment: [D]
     X:     1.3919      Y:    -1.0435      Z:     2.4553     Total:     3.0092

*** Psi4 exiting successfully. Buy a developer a beer!
