                               Psi4 1.3.2 release

  ==> Input File <==

--------------------------------------------------------------------------
#psi4
#
memory 32 gb

molecule  {
0 1
  F       -0.1185362     1.4827811    -0.4084418
  F       -2.2329010    -0.3483750     0.0119380
  F        1.8245690    -0.6904460    -0.5579990
  C       -0.0320120     0.3860640     0.4547950
  C       -0.8949580    -0.7254520    -0.0889280
  C        1.4110010    -0.0260590     0.6001090
  H       -0.4223330     0.7179750     1.4244750
  H       -0.7480580    -1.6484420     0.4813360
  H       -0.6528610    -0.8980200    -1.1386560
  H        1.5335420    -0.7074240     1.4482380
  H        2.0415670     0.8553370     0.7402530
units angstrom
no_reorient  #important for SAPT in psi4, default
symmetry c1  #important for SAPT in psi4, default
}

set PROPERTIES_ORIGIN ["COM"]
properties('MP2/aug-cc-pvtz', properties = ['dipole'])
--------------------------------------------------------------------------

    Molecular point group: c1
  Charge       = 0
  Multiplicity = 1
  Basis Set: AUG-CC-PVTZ
    Blend: AUG-CC-PVTZ
  Basis Set: (AUG-CC-PVTZ AUX)
    Blend: AUG-CC-PVTZ-JKFIT

    Orbital Energies [Eh]
    ---------------------

    Doubly Occupied:

       1A    -26.300393     2A    -26.292627     3A    -26.289992
       4A    -11.339386     5A    -11.337907     6A    -11.327582
       7A     -1.612065     8A     -1.602244     9A     -1.592561
      10A     -1.093782    11A     -0.971898    12A     -0.858003
      13A     -0.757591    14A     -0.738056    15A     -0.736382
      16A     -0.705787    17A     -0.689935    18A     -0.678567
      19A     -0.671557    20A     -0.641015    21A     -0.620504
      22A     -0.555311    23A     -0.543435    24A     -0.531346
      25A     -0.509983

  @DF-RHF Final Energy:  -414.97834920141952

   => Energetics <=

    Nuclear Repulsion Energy =            258.0249156453465957
    One-Electron Energy =               -1088.0107124830899465
    Two-Electron Energy =                 415.0074476363238318
    Total Energy =                       -414.9783492014195190
  Basis Set: (AUG-CC-PVTZ AUX)
    Blend: AUG-CC-PVTZ-RI
    Molecular point group: c1

    Geometry (in Angstrom), charge = 0, multiplicity = 1:

       Center              X                  Y                   Z               Mass
    ------------   -----------------  -----------------  -----------------  -----------------
         F           -0.093690648200     1.458754370684    -0.372091851771    18.998403162730
         F           -2.208055448200    -0.372401729316     0.048287948229    18.998403162730
         F            1.849414551800    -0.714472729316    -0.521649051771    18.998403162730
         C           -0.007166448200     0.362037270684     0.491144948229    12.000000000000
         C           -0.870112448200    -0.749478729316    -0.052578051771    12.000000000000
         C            1.435846551800    -0.050085729316     0.636458948229    12.000000000000
         H           -0.397487448200     0.693948270684     1.460824948229     1.007825032230
         H           -0.723212448200    -1.672468729316     0.517685948229     1.007825032230
         H           -0.628015448200    -0.922046729316    -1.102306051771     1.007825032230
         H            1.558387551800    -0.731450729316     1.484587948229     1.007825032230
         H            2.066412551800     0.831310270684     0.776602948229     1.007825032230

  Basis Set: AUG-CC-PVTZ
    Blend: AUG-CC-PVTZ
  Basis Set: (AUG-CC-PVTZ AUX)
    Blend: AUG-CC-PVTZ-JKFIT
	 Reference Energy          =    -414.9783492014195190 [Eh]
	 Singles Energy            =      -0.0000000000000000 [Eh]
	 Same-Spin Energy          =      -0.3375776964768755 [Eh]
	 Opposite-Spin Energy      =      -1.0491994040609338 [Eh]
	 Correlation Energy        =      -1.3867771005378093 [Eh]
	 Total Energy              =    -416.3651263019573321 [Eh]

	 ================> DF-SCS-MP2 Energies <==================
	-----------------------------------------------------------
	 SCS Same-Spin Scale       =       0.3333333333333333 [-]
	 SCS Opposite-Spin Scale   =       1.2000000000000000 [-]
	 SCS Same-Spin Energy      =      -0.1125258988256252 [Eh]
	 SCS Opposite-Spin Energy  =      -1.2590392848731204 [Eh]
	 SCS Correlation Energy    =      -1.3715651836987457 [Eh]
	 SCS Total Energy          =    -416.3499143851182680 [Eh]
	-----------------------------------------------------------

  Dipole Moment: [D]
     X:     1.4039      Y:    -1.0644      Z:     2.4351     Total:     3.0056

*** Psi4 exiting successfully. Buy a developer a beer!
