                               Psi4 1.3.2 release

  ==> Input File <==

--------------------------------------------------------------------------
#psi4
#
memory 32 gb

molecule  {
0 1
  F       -0.0786922     1.4939540    -0.3971752
  F       -2.2329010    -0.3483750     0.0119380
  F        1.8245690    -0.6904460    -0.5579990
  C       -0.0320120     0.3860640     0.4547950
  C       -0.8949580    -0.7254520    -0.0889280
  C        1.4110010    -0.0260590     0.6001090
  H       -0.4223330     0.7179750     1.4244750
  H       -0.7480580    -1.6484420     0.4813360
  H       -0.6528610    -0.8980200    -1.1386560
  H        1.5335420    -0.7074240     1.4482380
  H        2.0415670     0.8553370     0.7402530
units angstrom
no_reorient  #important for SAPT in psi4, default
symmetry c1  #important for SAPT in psi4, default
}

set PROPERTIES_ORIGIN ["COM"]
properties('MP2/aug-cc-pvtz', properties = ['dipole'])
--------------------------------------------------------------------------

    Molecular point group: c1
  Charge       = 0
  Multiplicity = 1
  Basis Set: AUG-CC-PVTZ
    Blend: AUG-CC-PVTZ
  Basis Set: (AUG-CC-PVTZ AUX)
    Blend: AUG-CC-PVTZ-JKFIT

    Orbital Energies [Eh]
    ---------------------

    Doubly Occupied:

       1A    -26.299915     2A    -26.292737     3A    -26.290660
       4A    -11.339361     5A    -11.336811     6A    -11.328654
       7A     -1.611962     8A     -1.602037     9A     -1.593298
      10A     -1.093737    11A     -0.971917    12A     -0.858077
      13A     -0.757876    14A     -0.738168    15A     -0.735799
      16A     -0.706210    17A     -0.689748    18A     -0.678590
      19A     -0.671913    20A     -0.641631    21A     -0.620622
      22A     -0.554133    23A     -0.544468    24A     -0.530865
      25A     -0.510416

  @DF-RHF Final Energy:  -414.97821484175296

   => Energetics <=

    Nuclear Repulsion Energy =            257.9426253522024695
    One-Electron Energy =               -1087.8424742534252800
    Two-Electron Energy =                 414.9216340594699091
    Total Energy =                       -414.9782148417529584
  Basis Set: (AUG-CC-PVTZ AUX)
    Blend: AUG-CC-PVTZ-RI
    Molecular point group: c1

    Geometry (in Angstrom), charge = 0, multiplicity = 1:

       Center              X                  Y                   Z               Mass
    ------------   -----------------  -----------------  -----------------  -----------------
         F           -0.061568150858     1.467762036846    -0.363008644047    18.998403162730
         F           -2.215776950858    -0.374566963154     0.046104555953    18.998403162730
         F            1.841693049142    -0.716637963154    -0.523832444047    18.998403162730
         C           -0.014887950858     0.359872036846     0.488961555953    12.000000000000
         C           -0.877833950858    -0.751643963154    -0.054761444047    12.000000000000
         C            1.428125049142    -0.052250963154     0.634275555953    12.000000000000
         H           -0.405208950858     0.691783036846     1.458641555953     1.007825032230
         H           -0.730933950858    -1.674633963154     0.515502555953     1.007825032230
         H           -0.635736950858    -0.924211963154    -1.104489444047     1.007825032230
         H            1.550666049142    -0.733615963154     1.482404555953     1.007825032230
         H            2.058691049142     0.829145036846     0.774419555953     1.007825032230

  Basis Set: AUG-CC-PVTZ
    Blend: AUG-CC-PVTZ
  Basis Set: (AUG-CC-PVTZ AUX)
    Blend: AUG-CC-PVTZ-JKFIT
	 Reference Energy          =    -414.9782148417529584 [Eh]
	 Singles Energy            =      -0.0000000000000000 [Eh]
	 Same-Spin Energy          =      -0.3375642584722438 [Eh]
	 Opposite-Spin Energy      =      -1.0491878663143286 [Eh]
	 Correlation Energy        =      -1.3867521247865724 [Eh]
	 Total Energy              =    -416.3649669665395550 [Eh]

	 ================> DF-SCS-MP2 Energies <==================
	-----------------------------------------------------------
	 SCS Same-Spin Scale       =       0.3333333333333333 [-]
	 SCS Opposite-Spin Scale   =       1.2000000000000000 [-]
	 SCS Same-Spin Energy      =      -0.1125214194907479 [Eh]
	 SCS Opposite-Spin Energy  =      -1.2590254395771943 [Eh]
	 SCS Correlation Energy    =      -1.3715468590679423 [Eh]
	 SCS Total Energy          =    -416.3497617008209204 [Eh]
	-----------------------------------------------------------

  Dipole Moment: [D]
     X:     1.3400      Y:    -1.0843      Z:     2.4156     Total:     2.9676

*** Psi4 exiting successfully. Buy a developer a beer!
