                               Psi4 1.3.2 release

  ==> Input File <==

--------------------------------------------------------------------------
#psi4
#
memory 32 gb

molecule  {
0 1
  F       -0.1657339     1.5456814    -0.3151781
  F       -2.2329010    -0.3483750     0.0119380
  F        1.8245690    -0.6904460    -0.5579990
  C       -0.0320120     0.3860640     0.4547950
  C       -0.8949580    -0.7254520    -0.0889280
  C        1.4110010    -0.0260590     0.6001090
  H       -0.4223330     0.7179750     1.4244750
  H       -0.7480580    -1.6484420     0.4813360
  H       -0.6528610    -0.8980200    -1.1386560
  H        1.5335420    -0.7074240     1.4482380
  H        2.0415670     0.8553370     0.7402530
units angstrom
no_reorient  #important for SAPT in psi4, default
symmetry c1  #important for SAPT in psi4, default
}

set PROPERTIES_ORIGIN ["COM"]
properties('MP2/aug-cc-pvtz', properties = ['dipole'])
--------------------------------------------------------------------------

    Molecular point group: c1
  Charge       = 0
  Multiplicity = 1
  Basis Set: AUG-CC-PVTZ
    Blend: AUG-CC-PVTZ
  Basis Set: (AUG-CC-PVTZ AUX)
    Blend: AUG-CC-PVTZ-JKFIT

    Orbital Energies [Eh]
    ---------------------

    Doubly Occupied:

       1A    -26.301091     2A    -26.292253     3A    -26.290290
       4A    -11.339368     5A    -11.338572     6A    -11.329120
       7A     -1.611918     8A     -1.602796     9A     -1.592727
      10A     -1.094202    11A     -0.972337    12A     -0.859074
      13A     -0.756161    14A     -0.739245    15A     -0.735892
      16A     -0.706614    17A     -0.690943    18A     -0.678809
      19A     -0.672880    20A     -0.641465    21A     -0.618784
      22A     -0.555174    23A     -0.546374    24A     -0.528527
      25A     -0.510343

  @DF-RHF Final Energy:  -414.97670120263649

   => Energetics <=

    Nuclear Repulsion Energy =            257.3000642257478603
    One-Electron Energy =               -1086.5436088819665201
    Two-Electron Energy =                 414.2668434535821689
    Total Energy =                       -414.9767012026364910
  Basis Set: (AUG-CC-PVTZ AUX)
    Blend: AUG-CC-PVTZ-RI
    Molecular point group: c1

    Geometry (in Angstrom), charge = 0, multiplicity = 1:

       Center              X                  Y                   Z               Mass
    ------------   -----------------  -----------------  -----------------  -----------------
         F           -0.131741747306     1.509465010167    -0.296902037613    18.998403162730
         F           -2.198908847306    -0.384591389833     0.030214062387    18.998403162730
         F            1.858561152694    -0.726662389833    -0.539722937613    18.998403162730
         C            0.001980152694     0.349847610167     0.473071062387    12.000000000000
         C           -0.860965847306    -0.761668389833    -0.070651937613    12.000000000000
         C            1.444993152694    -0.062275389833     0.618385062387    12.000000000000
         H           -0.388340847306     0.681758610167     1.442751062387     1.007825032230
         H           -0.714065847306    -1.684658389833     0.499612062387     1.007825032230
         H           -0.618868847306    -0.934236389833    -1.120379937613     1.007825032230
         H            1.567534152694    -0.743640389833     1.466514062387     1.007825032230
         H            2.075559152694     0.819120610167     0.758529062387     1.007825032230

  Basis Set: AUG-CC-PVTZ
    Blend: AUG-CC-PVTZ
  Basis Set: (AUG-CC-PVTZ AUX)
    Blend: AUG-CC-PVTZ-JKFIT
	 Reference Energy          =    -414.9767012026364910 [Eh]
	 Singles Energy            =      -0.0000000000000000 [Eh]
	 Same-Spin Energy          =      -0.3375774697078684 [Eh]
	 Opposite-Spin Energy      =      -1.0491971228024424 [Eh]
	 Correlation Energy        =      -1.3867745925103108 [Eh]
	 Total Energy              =    -416.3634757951468259 [Eh]

	 ================> DF-SCS-MP2 Energies <==================
	-----------------------------------------------------------
	 SCS Same-Spin Scale       =       0.3333333333333333 [-]
	 SCS Opposite-Spin Scale   =       1.2000000000000000 [-]
	 SCS Same-Spin Energy      =      -0.1125258232359561 [Eh]
	 SCS Opposite-Spin Energy  =      -1.2590365473629308 [Eh]
	 SCS Correlation Energy    =      -1.3715623705988869 [Eh]
	 SCS Total Energy          =    -416.3482635732353856 [Eh]
	-----------------------------------------------------------

  Dipole Moment: [D]
     X:     1.4622      Y:    -1.1589      Z:     2.3266     Total:     2.9823

*** Psi4 exiting successfully. Buy a developer a beer!
