                               Psi4 1.3.2 release

  ==> Input File <==

--------------------------------------------------------------------------
#psi4
#
memory 32 gb

molecule  {
0 1
  F       -0.0706799     1.4115342    -0.4951357
  F       -2.2329010    -0.3483750     0.0119380
  F        1.8245690    -0.6904460    -0.5579990
  C       -0.0320120     0.3860640     0.4547950
  C       -0.8949580    -0.7254520    -0.0889280
  C        1.4110010    -0.0260590     0.6001090
  H       -0.4223330     0.7179750     1.4244750
  H       -0.7480580    -1.6484420     0.4813360
  H       -0.6528610    -0.8980200    -1.1386560
  H        1.5335420    -0.7074240     1.4482380
  H        2.0415670     0.8553370     0.7402530
units angstrom
no_reorient  #important for SAPT in psi4, default
symmetry c1  #important for SAPT in psi4, default
}

set PROPERTIES_ORIGIN ["COM"]
properties('MP2/aug-cc-pvtz', properties = ['dipole'])
--------------------------------------------------------------------------

    Molecular point group: c1
  Charge       = 0
  Multiplicity = 1
  Basis Set: AUG-CC-PVTZ
    Blend: AUG-CC-PVTZ
  Basis Set: (AUG-CC-PVTZ AUX)
    Blend: AUG-CC-PVTZ-JKFIT

    Orbital Energies [Eh]
    ---------------------

    Doubly Occupied:

       1A    -26.299516     2A    -26.292867     3A    -26.289645
       4A    -11.339827     5A    -11.336730     6A    -11.325938
       7A     -1.612538     8A     -1.601529     9A     -1.592382
      10A     -1.093221    11A     -0.971449    12A     -0.856961
      13A     -0.759485    14A     -0.737258    15A     -0.736456
      16A     -0.704910    17A     -0.689028    18A     -0.678315
      19A     -0.670040    20A     -0.640357    21A     -0.621994
      22A     -0.556123    23A     -0.540053    24A     -0.532234
      25A     -0.509380

  @DF-RHF Final Energy:  -414.97706870366892

   => Energetics <=

    Nuclear Repulsion Energy =            258.8557138231957993
    One-Electron Energy =               -1089.6890913357465251
    Two-Electron Energy =                 415.8563088088817494
    Total Energy =                       -414.9770687036689196
  Basis Set: (AUG-CC-PVTZ AUX)
    Blend: AUG-CC-PVTZ-RI
    Molecular point group: c1

    Geometry (in Angstrom), charge = 0, multiplicity = 1:

       Center              X                  Y                   Z               Mass
    ------------   -----------------  -----------------  -----------------  -----------------
         F           -0.055108581401     1.401314646865    -0.441985049550    18.998403162730
         F           -2.217329681401    -0.358594553135     0.065088650450    18.998403162730
         F            1.840140318599    -0.700665553135    -0.504848349550    18.998403162730
         C           -0.016440681401     0.375844446865     0.507945650450    12.000000000000
         C           -0.879386681401    -0.735671553135    -0.035777349550    12.000000000000
         C            1.426572318599    -0.036278553135     0.653259650450    12.000000000000
         H           -0.406761681401     0.707755446865     1.477625650450     1.007825032230
         H           -0.732486681401    -1.658661553135     0.534486650450     1.007825032230
         H           -0.637289681401    -0.908239553135    -1.085505349550     1.007825032230
         H            1.549113318599    -0.717643553135     1.501388650450     1.007825032230
         H            2.057138318599     0.845117446865     0.793403650450     1.007825032230

  Basis Set: AUG-CC-PVTZ
    Blend: AUG-CC-PVTZ
  Basis Set: (AUG-CC-PVTZ AUX)
    Blend: AUG-CC-PVTZ-JKFIT
	 Reference Energy          =    -414.9770687036689196 [Eh]
	 Singles Energy            =      -0.0000000000000000 [Eh]
	 Same-Spin Energy          =      -0.3376841783628513 [Eh]
	 Opposite-Spin Energy      =      -1.0494038790515388 [Eh]
	 Correlation Energy        =      -1.3870880574143900 [Eh]
	 Total Energy              =    -416.3641567610833363 [Eh]

	 ================> DF-SCS-MP2 Energies <==================
	-----------------------------------------------------------
	 SCS Same-Spin Scale       =       0.3333333333333333 [-]
	 SCS Opposite-Spin Scale   =       1.2000000000000000 [-]
	 SCS Same-Spin Energy      =      -0.1125613927876171 [Eh]
	 SCS Opposite-Spin Energy  =      -1.2592846548618464 [Eh]
	 SCS Correlation Energy    =      -1.3718460476494634 [Eh]
	 SCS Total Energy          =    -416.3489147513183752 [Eh]
	-----------------------------------------------------------

  Dipole Moment: [D]
     X:     1.3435      Y:    -0.9533      Z:     2.5311     Total:     3.0200

*** Psi4 exiting successfully. Buy a developer a beer!
