                               Psi4 1.3.2 release

  ==> Input File <==

--------------------------------------------------------------------------
#psi4
#
memory 32 gb

molecule  {
0 1
  F       -0.0483214     1.5173753    -0.3669844
  F       -2.2329010    -0.3483750     0.0119380
  F        1.8245690    -0.6904460    -0.5579990
  C       -0.0320120     0.3860640     0.4547950
  C       -0.8949580    -0.7254520    -0.0889280
  C        1.4110010    -0.0260590     0.6001090
  H       -0.4223330     0.7179750     1.4244750
  H       -0.7480580    -1.6484420     0.4813360
  H       -0.6528610    -0.8980200    -1.1386560
  H        1.5335420    -0.7074240     1.4482380
  H        2.0415670     0.8553370     0.7402530
units angstrom
no_reorient  #important for SAPT in psi4, default
symmetry c1  #important for SAPT in psi4, default
}

set PROPERTIES_ORIGIN ["COM"]
properties('MP2/aug-cc-pvtz', properties = ['dipole'])
--------------------------------------------------------------------------

    Molecular point group: c1
  Charge       = 0
  Multiplicity = 1
  Basis Set: AUG-CC-PVTZ
    Blend: AUG-CC-PVTZ
  Basis Set: (AUG-CC-PVTZ AUX)
    Blend: AUG-CC-PVTZ-JKFIT

    Orbital Energies [Eh]
    ---------------------

    Doubly Occupied:

       1A    -26.299587     2A    -26.292757     3A    -26.291370
       4A    -11.339256     5A    -11.335913     6A    -11.330036
       7A     -1.611832     8A     -1.602018     9A     -1.594016
      10A     -1.093774    11A     -0.972021    12A     -0.858367
      13A     -0.757850    14A     -0.738594    15A     -0.735139
      16A     -0.706803    17A     -0.689790    18A     -0.678650
      19A     -0.672486    20A     -0.642254    21A     -0.620376
      22A     -0.552902    23A     -0.546048    24A     -0.530029
      25A     -0.510734

  @DF-RHF Final Energy:  -414.97757428376553

   => Energetics <=

    Nuclear Repulsion Energy =            257.7251812173169014
    One-Electron Energy =               -1087.4003052339974147
    Two-Electron Energy =                 414.6975497329149221
    Total Energy =                       -414.9775742837655343
  Basis Set: (AUG-CC-PVTZ AUX)
    Blend: AUG-CC-PVTZ-RI
    Molecular point group: c1

    Geometry (in Angstrom), charge = 0, multiplicity = 1:

       Center              X                  Y                   Z               Mass
    ------------   -----------------  -----------------  -----------------  -----------------
         F           -0.037083010253     1.486644444410    -0.338668620638    18.998403162730
         F           -2.221662610253    -0.379105855590     0.040253779362    18.998403162730
         F            1.835807389747    -0.721176855590    -0.529683220638    18.998403162730
         C           -0.020773610253     0.355333144410     0.483110779362    12.000000000000
         C           -0.883719610253    -0.756182855590    -0.060612220638    12.000000000000
         C            1.422239389747    -0.056789855590     0.628424779362    12.000000000000
         H           -0.411094610253     0.687244144410     1.452790779362     1.007825032230
         H           -0.736819610253    -1.679172855590     0.509651779362     1.007825032230
         H           -0.641622610253    -0.928750855590    -1.110340220638     1.007825032230
         H            1.544780389747    -0.738154855590     1.476553779362     1.007825032230
         H            2.052805389747     0.824606144410     0.768568779362     1.007825032230

  Basis Set: AUG-CC-PVTZ
    Blend: AUG-CC-PVTZ
  Basis Set: (AUG-CC-PVTZ AUX)
    Blend: AUG-CC-PVTZ-JKFIT
	 Reference Energy          =    -414.9775742837655343 [Eh]
	 Singles Energy            =      -0.0000000000000000 [Eh]
	 Same-Spin Energy          =      -0.3375563666825382 [Eh]
	 Opposite-Spin Energy      =      -1.0491849443110566 [Eh]
	 Correlation Energy        =      -1.3867413109935947 [Eh]
	 Total Energy              =    -416.3643155947591481 [Eh]

	 ================> DF-SCS-MP2 Energies <==================
	-----------------------------------------------------------
	 SCS Same-Spin Scale       =       0.3333333333333333 [-]
	 SCS Opposite-Spin Scale   =       1.2000000000000000 [-]
	 SCS Same-Spin Energy      =      -0.1125187888941794 [Eh]
	 SCS Opposite-Spin Energy  =      -1.2590219331732679 [Eh]
	 SCS Correlation Energy    =      -1.3715407220674474 [Eh]
	 SCS Total Energy          =    -416.3491150058329708 [Eh]
	-----------------------------------------------------------

  Dipole Moment: [D]
     X:     1.2879      Y:    -1.1219      Z:     2.3738     Total:     2.9244

*** Psi4 exiting successfully. Buy a developer a beer!
