                               Psi4 1.3.2 release

  ==> Input File <==

--------------------------------------------------------------------------
#psi4
#
memory 32 gb

molecule  {
0 1
  F       -0.1090060     1.4691830    -0.4263280
  F       -2.2329010    -0.3483750     0.0119380
  F        1.8245690    -0.6904460    -0.5579990
  C       -0.0430239     0.5409751     0.3287740
  C       -0.8949580    -0.7254520    -0.0889280
  C        1.4110010    -0.0260590     0.6001090
  H       -0.4223330     0.7179750     1.4244750
  H       -0.7480580    -1.6484420     0.4813360
  H       -0.6528610    -0.8980200    -1.1386560
  H        1.5335420    -0.7074240     1.4482380
  H        2.0415670     0.8553370     0.7402530
units angstrom
no_reorient  #important for SAPT in psi4, default
symmetry c1  #important for SAPT in psi4, default
}

set PROPERTIES_ORIGIN ["COM"]
properties('MP2/aug-cc-pvtz', properties = ['dipole'])
--------------------------------------------------------------------------

    Molecular point group: c1
  Charge       = 0
  Multiplicity = 1
  Basis Set: AUG-CC-PVTZ
    Blend: AUG-CC-PVTZ
  Basis Set: (AUG-CC-PVTZ AUX)
    Blend: AUG-CC-PVTZ-JKFIT

    Orbital Energies [Eh]
    ---------------------

    Doubly Occupied:

       1A    -26.343879     2A    -26.292289     3A    -26.282266
       4A    -11.346789     5A    -11.328848     6A    -11.319197
       7A     -1.731259     8A     -1.600138     9A     -1.590356
      10A     -1.062145    11A     -0.957142    12A     -0.892356
      13A     -0.795781    14A     -0.781021    15A     -0.756051
      16A     -0.711788    17A     -0.699592    18A     -0.694010
      19A     -0.681954    20A     -0.647358    21A     -0.619545
      22A     -0.553711    23A     -0.538575    24A     -0.482403
      25A     -0.461196

  @DF-RHF Final Energy:  -414.93668044298943

   => Energetics <=

    Nuclear Repulsion Energy =            259.7290284842406436
    One-Electron Energy =               -1090.9921187914460461
    Two-Electron Energy =                 416.3264098642159752
    Total Energy =                       -414.9366804429894273
  Basis Set: (AUG-CC-PVTZ AUX)
    Blend: AUG-CC-PVTZ-RI
    Molecular point group: c1

    Geometry (in Angstrom), charge = 0, multiplicity = 1:

       Center              X                  Y                   Z               Mass
    ------------   -----------------  -----------------  -----------------  -----------------
         F           -0.084659414016     1.428829429485    -0.371086086571    18.998403162730
         F           -2.208554414016    -0.388728570515     0.067179913429    18.998403162730
         F            1.848915585984    -0.730799570515    -0.502757086571    18.998403162730
         C           -0.018677314016     0.500621529485     0.384015913429    12.000000000000
         C           -0.870611414016    -0.765805570515    -0.033686086571    12.000000000000
         C            1.435347585984    -0.066412570515     0.655350913429    12.000000000000
         H           -0.397986414016     0.677621429485     1.479716913429     1.007825032230
         H           -0.723711414016    -1.688795570515     0.536577913429     1.007825032230
         H           -0.628514414016    -0.938373570515    -1.083414086571     1.007825032230
         H            1.557888585984    -0.747777570515     1.503479913429     1.007825032230
         H            2.065913585984     0.814983429485     0.795494913429     1.007825032230

  Basis Set: AUG-CC-PVTZ
    Blend: AUG-CC-PVTZ
  Basis Set: (AUG-CC-PVTZ AUX)
    Blend: AUG-CC-PVTZ-JKFIT
	 Reference Energy          =    -414.9366804429894273 [Eh]
	 Singles Energy            =      -0.0000000000000000 [Eh]
	 Same-Spin Energy          =      -0.3373788633773288 [Eh]
	 Opposite-Spin Energy      =      -1.0466724116752588 [Eh]
	 Correlation Energy        =      -1.3840512750525875 [Eh]
	 Total Energy              =    -416.3207317180419977 [Eh]

	 ================> DF-SCS-MP2 Energies <==================
	-----------------------------------------------------------
	 SCS Same-Spin Scale       =       0.3333333333333333 [-]
	 SCS Opposite-Spin Scale   =       1.2000000000000000 [-]
	 SCS Same-Spin Energy      =      -0.1124596211257762 [Eh]
	 SCS Opposite-Spin Energy  =      -1.2560068940103106 [Eh]
	 SCS Correlation Energy    =      -1.3684665151360869 [Eh]
	 SCS Total Energy          =    -416.3051469581255333 [Eh]
	-----------------------------------------------------------

  Dipole Moment: [D]
     X:     1.3110      Y:    -0.2903      Z:     1.8387     Total:     2.2768

*** Psi4 exiting successfully. Buy a developer a beer!
