                               Psi4 1.3.2 release

  ==> Input File <==

--------------------------------------------------------------------------
#psi4
#
memory 32 gb

molecule  {
0 1
  F       -0.1090060     1.4691830    -0.4263280
  F       -2.2329010    -0.3483750     0.0119380
  F        1.8245690    -0.6904460    -0.5579990
  C       -0.0375180     0.4635195     0.3917845
  C       -0.8949580    -0.7254520    -0.0889280
  C        1.4110010    -0.0260590     0.6001090
  H       -0.4223330     0.7179750     1.4244750
  H       -0.7480580    -1.6484420     0.4813360
  H       -0.6528610    -0.8980200    -1.1386560
  H        1.5335420    -0.7074240     1.4482380
  H        2.0415670     0.8553370     0.7402530
units angstrom
no_reorient  #important for SAPT in psi4, default
symmetry c1  #important for SAPT in psi4, default
}

set PROPERTIES_ORIGIN ["COM"]
properties('MP2/aug-cc-pvtz', properties = ['dipole'])
--------------------------------------------------------------------------

    Molecular point group: c1
  Charge       = 0
  Multiplicity = 1
  Basis Set: AUG-CC-PVTZ
    Blend: AUG-CC-PVTZ
  Basis Set: (AUG-CC-PVTZ AUX)
    Blend: AUG-CC-PVTZ-JKFIT

    Orbital Energies [Eh]
    ---------------------

    Doubly Occupied:

       1A    -26.317160     2A    -26.296344     3A    -26.286146
       4A    -11.340623     5A    -11.333496     6A    -11.323320
       7A     -1.659862     8A     -1.603512     9A     -1.593523
      10A     -1.077625    11A     -0.963777    12A     -0.867797
      13A     -0.769718    14A     -0.751793    15A     -0.742499
      16A     -0.708982    17A     -0.697341    18A     -0.690899
      19A     -0.677764    20A     -0.648462    21A     -0.622022
      22A     -0.555064    23A     -0.541187    24A     -0.510318
      25A     -0.487447

  @DF-RHF Final Energy:  -414.97123216645542

   => Energetics <=

    Nuclear Repulsion Energy =            258.8816776289039581
    One-Electron Energy =               -1089.5724608521738901
    Two-Electron Energy =                 415.7195510568145096
    Total Energy =                       -414.9712321664554224
  Basis Set: (AUG-CC-PVTZ AUX)
    Blend: AUG-CC-PVTZ-RI
    Molecular point group: c1

    Geometry (in Angstrom), charge = 0, multiplicity = 1:

       Center              X                  Y                   Z               Mass
    ------------   -----------------  -----------------  -----------------  -----------------
         F           -0.085333369730     1.438310466953    -0.378798955768    18.998403162730
         F           -2.209228369730    -0.379247533047     0.059467044232    18.998403162730
         F            1.848241630270    -0.721318533047    -0.510469955768    18.998403162730
         C           -0.013845369730     0.432646966953     0.439313544232    12.000000000000
         C           -0.871285369730    -0.756324533047    -0.041398955768    12.000000000000
         C            1.434673630270    -0.056931533047     0.647638044232    12.000000000000
         H           -0.398660369730     0.687102466953     1.472004044232     1.007825032230
         H           -0.724385369730    -1.679314533047     0.528865044232     1.007825032230
         H           -0.629188369730    -0.928892533047    -1.091126955768     1.007825032230
         H            1.557214630270    -0.738296533047     1.495767044232     1.007825032230
         H            2.065239630270     0.824464466953     0.787782044232     1.007825032230

  Basis Set: AUG-CC-PVTZ
    Blend: AUG-CC-PVTZ
  Basis Set: (AUG-CC-PVTZ AUX)
    Blend: AUG-CC-PVTZ-JKFIT
	 Reference Energy          =    -414.9712321664554224 [Eh]
	 Singles Energy            =      -0.0000000000000000 [Eh]
	 Same-Spin Energy          =      -0.3372069959143331 [Eh]
	 Opposite-Spin Energy      =      -1.0474079277181545 [Eh]
	 Correlation Energy        =      -1.3846149236324876 [Eh]
	 Total Energy              =    -416.3558470900879342 [Eh]

	 ================> DF-SCS-MP2 Energies <==================
	-----------------------------------------------------------
	 SCS Same-Spin Scale       =       0.3333333333333333 [-]
	 SCS Opposite-Spin Scale   =       1.2000000000000000 [-]
	 SCS Same-Spin Energy      =      -0.1124023319714444 [Eh]
	 SCS Opposite-Spin Energy  =      -1.2568895132617854 [Eh]
	 SCS Correlation Energy    =      -1.3692918452332299 [Eh]
	 SCS Total Energy          =    -416.3405240116886716 [Eh]
	-----------------------------------------------------------

  Dipole Moment: [D]
     X:     1.3529      Y:    -0.6897      Z:     2.1782     Total:     2.6553

*** Psi4 exiting successfully. Buy a developer a beer!
