                               Psi4 1.3.2 release

  ==> Input File <==

--------------------------------------------------------------------------
#psi4
#
memory 32 gb

molecule  {
0 1
  F       -0.1090060     1.4691830    -0.4263280
  F       -2.2329010    -0.3483750     0.0119380
  F        1.8245690    -0.6904460    -0.5579990
  C       -0.0320120     0.3860640     0.4547950
  C       -1.0869541    -0.6713411    -0.0744536
  C        1.4110010    -0.0260590     0.6001090
  H       -0.4223330     0.7179750     1.4244750
  H       -0.7480580    -1.6484420     0.4813360
  H       -0.6528610    -0.8980200    -1.1386560
  H        1.5335420    -0.7074240     1.4482380
  H        2.0415670     0.8553370     0.7402530
units angstrom
no_reorient  #important for SAPT in psi4, default
symmetry c1  #important for SAPT in psi4, default
}

set PROPERTIES_ORIGIN ["COM"]
properties('MP2/aug-cc-pvtz', properties = ['dipole'])
--------------------------------------------------------------------------

    Molecular point group: c1
  Charge       = 0
  Multiplicity = 1
  Basis Set: AUG-CC-PVTZ
    Blend: AUG-CC-PVTZ
  Basis Set: (AUG-CC-PVTZ AUX)
    Blend: AUG-CC-PVTZ-JKFIT

    Orbital Energies [Eh]
    ---------------------

    Doubly Occupied:

       1A    -26.339426     2A    -26.292903     3A    -26.285161
       4A    -11.338396     5A    -11.333748     6A    -11.331222
       7A     -1.727083     8A     -1.603498     9A     -1.591389
      10A     -1.071616    11A     -0.968675    12A     -0.869712
      13A     -0.787382    14A     -0.782196    15A     -0.765456
      16A     -0.731602    17A     -0.705667    18A     -0.696522
      19A     -0.673030    20A     -0.645820    21A     -0.616858
      22A     -0.548702    23A     -0.524789    24A     -0.486421
      25A     -0.465771

  @DF-RHF Final Energy:  -414.93516229947983

   => Energetics <=

    Nuclear Repulsion Energy =            259.2672167488499895
    One-Electron Energy =               -1090.0386689774513798
    Two-Electron Energy =                 415.8362899291216195
    Total Energy =                       -414.9351622994798277
  Basis Set: (AUG-CC-PVTZ AUX)
    Blend: AUG-CC-PVTZ-RI
    Molecular point group: c1

    Geometry (in Angstrom), charge = 0, multiplicity = 1:

       Center              X                  Y                   Z               Mass
    ------------   -----------------  -----------------  -----------------  -----------------
         F           -0.062505844986     1.441167988259    -0.388283579735    18.998403162730
         F           -2.186400844986    -0.376390011741     0.049982420265    18.998403162730
         F            1.871069155014    -0.718461011741    -0.519954579735    18.998403162730
         C            0.014488155014     0.358048988259     0.492839420265    12.000000000000
         C           -1.040453944986    -0.699356111741    -0.036409179735    12.000000000000
         C            1.457501155014    -0.054074011741     0.638153420265    12.000000000000
         H           -0.375832844986     0.689959988259     1.462519420265     1.007825032230
         H           -0.701557844986    -1.676457011741     0.519380420265     1.007825032230
         H           -0.606360844986    -0.926035011741    -1.100611579735     1.007825032230
         H            1.580042155014    -0.735439011741     1.486282420265     1.007825032230
         H            2.088067155014     0.827321988259     0.778297420265     1.007825032230

  Basis Set: AUG-CC-PVTZ
    Blend: AUG-CC-PVTZ
  Basis Set: (AUG-CC-PVTZ AUX)
    Blend: AUG-CC-PVTZ-JKFIT
	 Reference Energy          =    -414.9351622994798277 [Eh]
	 Singles Energy            =      -0.0000000000000000 [Eh]
	 Same-Spin Energy          =      -0.3375397883895163 [Eh]
	 Opposite-Spin Energy      =      -1.0466685586552562 [Eh]
	 Correlation Energy        =      -1.3842083470447726 [Eh]
	 Total Energy              =    -416.3193706465245896 [Eh]

	 ================> DF-SCS-MP2 Energies <==================
	-----------------------------------------------------------
	 SCS Same-Spin Scale       =       0.3333333333333333 [-]
	 SCS Opposite-Spin Scale   =       1.2000000000000000 [-]
	 SCS Same-Spin Energy      =      -0.1125132627965054 [Eh]
	 SCS Opposite-Spin Energy  =      -1.2560022703863074 [Eh]
	 SCS Correlation Energy    =      -1.3685155331828129 [Eh]
	 SCS Total Energy          =    -416.3036778326626290 [Eh]
	-----------------------------------------------------------

  Dipole Moment: [D]
     X:     0.3687      Y:    -0.7926      Z:     2.4813     Total:     2.6308

*** Psi4 exiting successfully. Buy a developer a beer!
