                               Psi4 1.3.2 release

  ==> Input File <==

--------------------------------------------------------------------------
#psi4
#
memory 32 gb

molecule  {
0 1
  F       -0.1090060     1.4691830    -0.4263280
  F       -2.2658013    -0.4773739    -0.0477174
  F        1.8245690    -0.6904460    -0.5579990
  C       -0.0320120     0.3860640     0.4547950
  C       -0.8949580    -0.7254520    -0.0889280
  C        1.4110010    -0.0260590     0.6001090
  H       -0.4223330     0.7179750     1.4244750
  H       -0.7480580    -1.6484420     0.4813360
  H       -0.6528610    -0.8980200    -1.1386560
  H        1.5335420    -0.7074240     1.4482380
  H        2.0415670     0.8553370     0.7402530
units angstrom
no_reorient  #important for SAPT in psi4, default
symmetry c1  #important for SAPT in psi4, default
}

set PROPERTIES_ORIGIN ["COM"]
properties('MP2/aug-cc-pvtz', properties = ['dipole'])
--------------------------------------------------------------------------

    Molecular point group: c1
  Charge       = 0
  Multiplicity = 1
  Basis Set: AUG-CC-PVTZ
    Blend: AUG-CC-PVTZ
  Basis Set: (AUG-CC-PVTZ AUX)
    Blend: AUG-CC-PVTZ-JKFIT

    Orbital Energies [Eh]
    ---------------------

    Doubly Occupied:

       1A    -26.301058     2A    -26.294141     3A    -26.289330
       4A    -11.342819     5A    -11.340218     6A    -11.326390
       7A     -1.612829     8A     -1.602017     9A     -1.593307
      10A     -1.095327    11A     -0.972255    12A     -0.859029
      13A     -0.758562    14A     -0.739890    15A     -0.735305
      16A     -0.705900    17A     -0.691185    18A     -0.679503
      19A     -0.671344    20A     -0.642372    21A     -0.620609
      22A     -0.556586    23A     -0.540306    24A     -0.531276
      25A     -0.512348

  @DF-RHF Final Energy:  -414.97671704374028

   => Energetics <=

    Nuclear Repulsion Energy =            257.0714892825227480
    One-Electron Energy =               -1086.0685998950245903
    Two-Electron Energy =                 414.0203935687615626
    Total Energy =                       -414.9767170437402797
  Basis Set: (AUG-CC-PVTZ AUX)
    Blend: AUG-CC-PVTZ-RI
    Molecular point group: c1

    Geometry (in Angstrom), charge = 0, multiplicity = 1:

       Center              X                  Y                   Z               Mass
    ------------   -----------------  -----------------  -----------------  -----------------
         F           -0.079631477984     1.472790622521    -0.374951004523    18.998403162730
         F           -2.236426777984    -0.473766277479     0.003659595477    18.998403162730
         F            1.853943522016    -0.686838377479    -0.506622004523    18.998403162730
         C           -0.002637477984     0.389671622521     0.506171995477    12.000000000000
         C           -0.865583477984    -0.721844377479    -0.037551004523    12.000000000000
         C            1.440375522016    -0.022451377479     0.651485995477    12.000000000000
         H           -0.392958477984     0.721582622521     1.475851995477     1.007825032230
         H           -0.718683477984    -1.644834377479     0.532712995477     1.007825032230
         H           -0.623486477984    -0.894412377479    -1.087279004523     1.007825032230
         H            1.562916522016    -0.703816377479     1.499614995477     1.007825032230
         H            2.070941522016     0.858944622521     0.791629995477     1.007825032230

  Basis Set: AUG-CC-PVTZ
    Blend: AUG-CC-PVTZ
  Basis Set: (AUG-CC-PVTZ AUX)
    Blend: AUG-CC-PVTZ-JKFIT
	 Reference Energy          =    -414.9767170437402797 [Eh]
	 Singles Energy            =      -0.0000000000000000 [Eh]
	 Same-Spin Energy          =      -0.3375682503325216 [Eh]
	 Opposite-Spin Energy      =      -1.0492512729848069 [Eh]
	 Correlation Energy        =      -1.3868195233173286 [Eh]
	 Total Energy              =    -416.3635365670576221 [Eh]

	 ================> DF-SCS-MP2 Energies <==================
	-----------------------------------------------------------
	 SCS Same-Spin Scale       =       0.3333333333333333 [-]
	 SCS Opposite-Spin Scale   =       1.2000000000000000 [-]
	 SCS Same-Spin Energy      =      -0.1125227501108405 [Eh]
	 SCS Opposite-Spin Energy  =      -1.2591015275817683 [Eh]
	 SCS Correlation Energy    =      -1.3716242776926089 [Eh]
	 SCS Total Energy          =    -416.3483413214328834 [Eh]
	-----------------------------------------------------------

  Dipole Moment: [D]
     X:     1.4770      Y:    -0.8659      Z:     2.5449     Total:     3.0672

*** Psi4 exiting successfully. Buy a developer a beer!
