                               Psi4 1.3.2 release

  ==> Input File <==

--------------------------------------------------------------------------
#psi4
#
memory 32 gb

molecule  {
0 1
  F       -0.1090060     1.4691830    -0.4263280
  F       -2.2232454    -0.3097686    -0.0160423
  F        1.8245690    -0.6904460    -0.5579990
  C       -0.0320120     0.3860640     0.4547950
  C       -0.8949580    -0.7254520    -0.0889280
  C        1.4110010    -0.0260590     0.6001090
  H       -0.4223330     0.7179750     1.4244750
  H       -0.7480580    -1.6484420     0.4813360
  H       -0.6528610    -0.8980200    -1.1386560
  H        1.5335420    -0.7074240     1.4482380
  H        2.0415670     0.8553370     0.7402530
units angstrom
no_reorient  #important for SAPT in psi4, default
symmetry c1  #important for SAPT in psi4, default
}

set PROPERTIES_ORIGIN ["COM"]
properties('MP2/aug-cc-pvtz', properties = ['dipole'])
--------------------------------------------------------------------------

    Molecular point group: c1
  Charge       = 0
  Multiplicity = 1
  Basis Set: AUG-CC-PVTZ
    Blend: AUG-CC-PVTZ
  Basis Set: (AUG-CC-PVTZ AUX)
    Blend: AUG-CC-PVTZ-JKFIT

    Orbital Energies [Eh]
    ---------------------

    Doubly Occupied:

       1A    -26.299982     2A    -26.292274     3A    -26.289823
       4A    -11.338955     5A    -11.337267     6A    -11.327340
       7A     -1.611941     8A     -1.602116     9A     -1.592008
      10A     -1.093399    11A     -0.971674    12A     -0.857517
      13A     -0.757533    14A     -0.737753    15A     -0.736613
      16A     -0.705563    17A     -0.689249    18A     -0.678223
      19A     -0.671163    20A     -0.640106    21A     -0.620761
      22A     -0.555094    23A     -0.543708    24A     -0.531093
      25A     -0.509233

  @DF-RHF Final Energy:  -414.97795857983374

   => Energetics <=

    Nuclear Repulsion Energy =            258.4933994436680678
    One-Electron Energy =               -1088.9619392347376561
    Two-Electron Energy =                 415.4905812112358490
    Total Energy =                       -414.9779585798337393
  Basis Set: (AUG-CC-PVTZ AUX)
    Blend: AUG-CC-PVTZ-RI
    Molecular point group: c1

    Geometry (in Angstrom), charge = 0, multiplicity = 1:

       Center              X                  Y                   Z               Mass
    ------------   -----------------  -----------------  -----------------  -----------------
         F           -0.087878528857     1.440309828185    -0.381089428599    18.998403162730
         F           -2.202117928857    -0.338641771815     0.029196271401    18.998403162730
         F            1.845696471143    -0.719319171815    -0.512760428599    18.998403162730
         C           -0.010884528857     0.357190828185     0.500033571401    12.000000000000
         C           -0.873830528857    -0.754325171815    -0.043689428599    12.000000000000
         C            1.432128471143    -0.054932171815     0.645347571401    12.000000000000
         H           -0.401205528857     0.689101828185     1.469713571401     1.007825032230
         H           -0.726930528857    -1.677315171815     0.526574571401     1.007825032230
         H           -0.631733528857    -0.926893171815    -1.093417428599     1.007825032230
         H            1.554669471143    -0.736297171815     1.493476571401     1.007825032230
         H            2.062694471143     0.826463828185     0.785491571401     1.007825032230

  Basis Set: AUG-CC-PVTZ
    Blend: AUG-CC-PVTZ
  Basis Set: (AUG-CC-PVTZ AUX)
    Blend: AUG-CC-PVTZ-JKFIT
	 Reference Energy          =    -414.9779585798337393 [Eh]
	 Singles Energy            =      -0.0000000000000000 [Eh]
	 Same-Spin Energy          =      -0.3376321060220326 [Eh]
	 Opposite-Spin Energy      =      -1.0492809329040760 [Eh]
	 Correlation Energy        =      -1.3869130389261086 [Eh]
	 Total Energy              =    -416.3648716187598211 [Eh]

	 ================> DF-SCS-MP2 Energies <==================
	-----------------------------------------------------------
	 SCS Same-Spin Scale       =       0.3333333333333333 [-]
	 SCS Opposite-Spin Scale   =       1.2000000000000000 [-]
	 SCS Same-Spin Energy      =      -0.1125440353406775 [Eh]
	 SCS Opposite-Spin Energy  =      -1.2591371194848910 [Eh]
	 SCS Correlation Energy    =      -1.3716811548255685 [Eh]
	 SCS Total Energy          =    -416.3496397346593199 [Eh]
	-----------------------------------------------------------

  Dipole Moment: [D]
     X:     1.3704      Y:    -1.0929      Z:     2.4861     Total:     3.0419

*** Psi4 exiting successfully. Buy a developer a beer!
