                               Psi4 1.3.2 release

  ==> Input File <==

--------------------------------------------------------------------------
#psi4
#
memory 32 gb

molecule  {
0 1
  F       -0.1090060     1.4691830    -0.4263280
  F       -2.2329010    -0.3483750     0.0119380
  F        1.8245690    -0.6904460    -0.5579990
  C       -0.0210001     0.2311529     0.5808160
  C       -0.8949580    -0.7254520    -0.0889280
  C        1.4110010    -0.0260590     0.6001090
  H       -0.4223330     0.7179750     1.4244750
  H       -0.7480580    -1.6484420     0.4813360
  H       -0.6528610    -0.8980200    -1.1386560
  H        1.5335420    -0.7074240     1.4482380
  H        2.0415670     0.8553370     0.7402530
units angstrom
no_reorient  #important for SAPT in psi4, default
symmetry c1  #important for SAPT in psi4, default
}

set PROPERTIES_ORIGIN ["COM"]
properties('MP2/aug-cc-pvtz', properties = ['dipole'])
--------------------------------------------------------------------------

    Molecular point group: c1
  Charge       = 0
  Multiplicity = 1
  Basis Set: AUG-CC-PVTZ
    Blend: AUG-CC-PVTZ
  Basis Set: (AUG-CC-PVTZ AUX)
    Blend: AUG-CC-PVTZ-JKFIT

    Orbital Energies [Eh]
    ---------------------

    Doubly Occupied:

       1A    -26.308147     2A    -26.297728     3A    -26.241131
       4A    -11.349158     5A    -11.347349     6A    -11.336900
       7A     -1.615000     8A     -1.604245     9A     -1.514415
      10A     -1.124568    11A     -0.990438    12A     -0.857677
      13A     -0.758308    14A     -0.742320    15A     -0.729533
      16A     -0.716174    17A     -0.685027    18A     -0.670918
      19A     -0.633091    20A     -0.607361    21A     -0.601988
      22A     -0.561970    23A     -0.551319    24A     -0.534236
      25A     -0.526067

  @DF-RHF Final Energy:  -414.94446527138416

   => Energetics <=

    Nuclear Repulsion Energy =            256.9342558196216260
    One-Electron Energy =               -1085.9473063606008054
    Two-Electron Energy =                 414.0685852695950189
    Total Energy =                       -414.9444652713841606
  Basis Set: (AUG-CC-PVTZ AUX)
    Blend: AUG-CC-PVTZ-RI
    Molecular point group: c1

    Geometry (in Angstrom), charge = 0, multiplicity = 1:

       Center              X                  Y                   Z               Mass
    ------------   -----------------  -----------------  -----------------  -----------------
         F           -0.087355261353     1.466753554877    -0.401937563360    18.998403162730
         F           -2.211250261353    -0.350804445123     0.036328436640    18.998403162730
         F            1.846219738647    -0.692875445123    -0.533608563360    18.998403162730
         C            0.000650638647     0.228723454877     0.605206436640    12.000000000000
         C           -0.873307261353    -0.727881445123    -0.064537563360    12.000000000000
         C            1.432651738647    -0.028488445123     0.624499436640    12.000000000000
         H           -0.400682261353     0.715545554877     1.448865436640     1.007825032230
         H           -0.726407261353    -1.650871445123     0.505726436640     1.007825032230
         H           -0.631210261353    -0.900449445123    -1.114265563360     1.007825032230
         H            1.555192738647    -0.709853445123     1.472628436640     1.007825032230
         H            2.063217738647     0.852907554877     0.764643436640     1.007825032230

  Basis Set: AUG-CC-PVTZ
    Blend: AUG-CC-PVTZ
  Basis Set: (AUG-CC-PVTZ AUX)
    Blend: AUG-CC-PVTZ-JKFIT
	 Reference Energy          =    -414.9444652713841606 [Eh]
	 Singles Energy            =      -0.0000000000000000 [Eh]
	 Same-Spin Energy          =      -0.3396165315879524 [Eh]
	 Opposite-Spin Energy      =      -1.0544163878783923 [Eh]
	 Correlation Energy        =      -1.3940329194663446 [Eh]
	 Total Energy              =    -416.3384981908504869 [Eh]

	 ================> DF-SCS-MP2 Energies <==================
	-----------------------------------------------------------
	 SCS Same-Spin Scale       =       0.3333333333333333 [-]
	 SCS Opposite-Spin Scale   =       1.2000000000000000 [-]
	 SCS Same-Spin Energy      =      -0.1132055105293174 [Eh]
	 SCS Opposite-Spin Energy  =      -1.2652996654540707 [Eh]
	 SCS Correlation Energy    =      -1.3785051759833882 [Eh]
	 SCS Total Energy          =    -416.3229704473675383 [Eh]
	-----------------------------------------------------------

  Dipole Moment: [D]
     X:     1.4706      Y:    -1.7172      Z:     2.9170     Total:     3.6906

*** Psi4 exiting successfully. Buy a developer a beer!
