                               Psi4 1.3.2 release

  ==> Input File <==

--------------------------------------------------------------------------
#psi4
#
memory 32 gb

molecule  {
0 1
  F       -0.1090060     1.4691830    -0.4263280
  F       -2.2371182    -0.3678534     0.0258842
  F        1.8245690    -0.6904460    -0.5579990
  C       -0.0320120     0.3860640     0.4547950
  C       -0.8949580    -0.7254520    -0.0889280
  C        1.4110010    -0.0260590     0.6001090
  H       -0.4223330     0.7179750     1.4244750
  H       -0.7480580    -1.6484420     0.4813360
  H       -0.6528610    -0.8980200    -1.1386560
  H        1.5335420    -0.7074240     1.4482380
  H        2.0415670     0.8553370     0.7402530
units angstrom
no_reorient  #important for SAPT in psi4, default
symmetry c1  #important for SAPT in psi4, default
}

set PROPERTIES_ORIGIN ["COM"]
properties('MP2/aug-cc-pvtz', properties = ['dipole'])
--------------------------------------------------------------------------

    Molecular point group: c1
  Charge       = 0
  Multiplicity = 1
  Basis Set: AUG-CC-PVTZ
    Blend: AUG-CC-PVTZ
  Basis Set: (AUG-CC-PVTZ AUX)
    Blend: AUG-CC-PVTZ-JKFIT

    Orbital Energies [Eh]
    ---------------------

    Doubly Occupied:

       1A    -26.300349     2A    -26.292882     3A    -26.289969
       4A    -11.339725     5A    -11.337880     6A    -11.327219
       7A     -1.612224     8A     -1.602124     9A     -1.592777
      10A     -1.093814    11A     -0.971869    12A     -0.857932
      13A     -0.758139    14A     -0.737936    15A     -0.736340
      16A     -0.705643    17A     -0.689989    18A     -0.678669
      19A     -0.671315    20A     -0.641260    21A     -0.620858
      22A     -0.555586    23A     -0.542228    24A     -0.531959
      25A     -0.510188

  @DF-RHF Final Energy:  -414.97834807735626

   => Energetics <=

    Nuclear Repulsion Energy =            258.0339682102007828
    One-Electron Energy =               -1088.0268876137042753
    Two-Electron Energy =                 415.0145713261472338
    Total Energy =                       -414.9783480773562587
  Basis Set: (AUG-CC-PVTZ AUX)
    Blend: AUG-CC-PVTZ-RI
    Molecular point group: c1

    Geometry (in Angstrom), charge = 0, multiplicity = 1:

       Center              X                  Y                   Z               Mass
    ------------   -----------------  -----------------  -----------------  -----------------
         F           -0.085190072324     1.451566276775    -0.389214505931    18.998403162730
         F           -2.213302272324    -0.385470123225     0.062997694069    18.998403162730
         F            1.848384927676    -0.708062723225    -0.520885505931    18.998403162730
         C           -0.008196072324     0.368447276775     0.491908494069    12.000000000000
         C           -0.871142072324    -0.743068723225    -0.051814505931    12.000000000000
         C            1.434816927676    -0.043675723225     0.637222494069    12.000000000000
         H           -0.398517072324     0.700358276775     1.461588494069     1.007825032230
         H           -0.724242072324    -1.666058723225     0.518449494069     1.007825032230
         H           -0.629045072324    -0.915636723225    -1.101542505931     1.007825032230
         H            1.557357927676    -0.725040723225     1.485351494069     1.007825032230
         H            2.065382927676     0.837720276775     0.777366494069     1.007825032230

  Basis Set: AUG-CC-PVTZ
    Blend: AUG-CC-PVTZ
  Basis Set: (AUG-CC-PVTZ AUX)
    Blend: AUG-CC-PVTZ-JKFIT
	 Reference Energy          =    -414.9783480773562587 [Eh]
	 Singles Energy            =      -0.0000000000000000 [Eh]
	 Same-Spin Energy          =      -0.3375757756087254 [Eh]
	 Opposite-Spin Energy      =      -1.0492068040585305 [Eh]
	 Correlation Energy        =      -1.3867825796672559 [Eh]
	 Total Energy              =    -416.3651306570235420 [Eh]

	 ================> DF-SCS-MP2 Energies <==================
	-----------------------------------------------------------
	 SCS Same-Spin Scale       =       0.3333333333333333 [-]
	 SCS Opposite-Spin Scale   =       1.2000000000000000 [-]
	 SCS Same-Spin Energy      =      -0.1125252585362418 [Eh]
	 SCS Opposite-Spin Energy  =      -1.2590481648702365 [Eh]
	 SCS Correlation Energy    =      -1.3715734234064783 [Eh]
	 SCS Total Energy          =    -416.3499215007627186 [Eh]
	-----------------------------------------------------------

  Dipole Moment: [D]
     X:     1.4015      Y:    -1.0185      Z:     2.4399     Total:     2.9924

*** Psi4 exiting successfully. Buy a developer a beer!
