                               Psi4 1.3.2 release

  ==> Input File <==

--------------------------------------------------------------------------
#psi4
#
memory 32 gb

molecule  {
0 1
  O       -2.5211540    -0.5137840     0.0284240
  O       -0.0903380    -1.4616610     0.1717700
  N        0.9259230     0.4056680    -0.6455280
  C       -1.5147550     0.4028960    -0.3432490
  C        2.2662493    -0.1491565    -0.5192087
  C       -0.1583790    -0.2975740    -0.2472510
  C       -1.5844930     1.6236140     0.5658530
  C        2.8531060     0.0659690     0.8699860
  H       -1.6669500     0.7105100    -1.3901450
  H        2.2044940    -1.2028750    -0.7525030
  H        2.8934660     0.3357800    -1.2867330
  H        0.8013676     1.3761782    -0.9019235
  H       -1.3564630     1.3269670     1.5921410
  H       -2.5982940     2.0269070     0.5395510
  H       -0.8919110     2.4138320     0.2596650
  H        2.9042670     1.1289430     1.1200310
  H        2.2261210    -0.4398610     1.6074960
  H        3.8631580    -0.3501450     0.9292180
  H       -2.0326010    -1.3422410     0.2291570
units angstrom
no_reorient  #important for SAPT in psi4, default
symmetry c1  #important for SAPT in psi4, default
}

set PROPERTIES_ORIGIN ["COM"]
properties('MP2/aug-cc-pvtz', properties = ['dipole'])
--------------------------------------------------------------------------

    Molecular point group: c1
  Charge       = 0
  Multiplicity = 1
  Basis Set: AUG-CC-PVTZ
    Blend: AUG-CC-PVTZ
  Basis Set: (AUG-CC-PVTZ AUX)
    Blend: AUG-CC-PVTZ-JKFIT

    Orbital Energies [Eh]
    ---------------------

    Doubly Occupied:

       1A    -20.548507     2A    -20.533369     3A    -15.598696
       4A    -11.358828     5A    -11.298199     6A    -11.273966
       7A    -11.231502     8A    -11.224376     9A     -1.398476
      10A     -1.346758    11A     -1.245984    12A     -1.052968
      13A     -1.012907    14A     -0.902785    15A     -0.849562
      16A     -0.794320    17A     -0.743944    18A     -0.677641
      19A     -0.649127    20A     -0.642060    21A     -0.611024
      22A     -0.600012    23A     -0.575695    24A     -0.563446
      25A     -0.544112    26A     -0.535186    27A     -0.519665
      28A     -0.515561    29A     -0.503523    30A     -0.446097
      31A     -0.436019    32A     -0.403418

  @DF-RHF Final Energy:  -400.08760479912326

   => Energetics <=

    Nuclear Repulsion Energy =            400.5080931629418046
    One-Electron Energy =               -1339.9159227175593969
    Two-Electron Energy =                 539.3202247554943369
    Total Energy =                       -400.0876047991232554
  Basis Set: (AUG-CC-PVTZ AUX)
    Blend: AUG-CC-PVTZ-RI
    Molecular point group: c1

    Geometry (in Angstrom), charge = 0, multiplicity = 1:

       Center              X                  Y                   Z               Mass
    ------------   -----------------  -----------------  -----------------  -----------------
         O           -2.520575191555    -0.512616643300     0.028104089128    15.994914619570
         O           -0.089759191555    -1.460493643300     0.171450089128    15.994914619570
         N            0.926501808445     0.406835356700    -0.645847910872    14.003074004430
         C           -1.514176191555     0.404063356700    -0.343568910872    12.000000000000
         C            2.266828108445    -0.147989143300    -0.519528610872    12.000000000000
         C           -0.157800191555    -0.296406643300    -0.247570910872    12.000000000000
         C           -1.583914191555     1.624781356700     0.565533089128    12.000000000000
         C            2.853684808445     0.067136356700     0.869666089128    12.000000000000
         H           -1.666371191555     0.711677356700    -1.390464910872     1.007825032230
         H            2.205072808445    -1.201707643300    -0.752822910872     1.007825032230
         H            2.894044808445     0.336947356700    -1.287052910872     1.007825032230
         H            0.801946408445     1.377345556700    -0.902243410872     1.007825032230
         H           -1.355884191555     1.328134356700     1.591821089128     1.007825032230
         H           -2.597715191555     2.028074356700     0.539231089128     1.007825032230
         H           -0.891332191555     2.414999356700     0.259345089128     1.007825032230
         H            2.904845808445     1.130110356700     1.119711089128     1.007825032230
         H            2.226699808445    -0.438693643300     1.607176089128     1.007825032230
         H            3.863736808445    -0.348977643300     0.928898089128     1.007825032230
         H           -2.032022191555    -1.341073643300     0.228837089128     1.007825032230

  Basis Set: AUG-CC-PVTZ
    Blend: AUG-CC-PVTZ
  Basis Set: (AUG-CC-PVTZ AUX)
    Blend: AUG-CC-PVTZ-JKFIT
	 Reference Energy          =    -400.0876047991232554 [Eh]
	 Singles Energy            =      -0.0000000000000000 [Eh]
	 Same-Spin Energy          =      -0.4021062114652328 [Eh]
	 Opposite-Spin Energy      =      -1.3076249974571965 [Eh]
	 Correlation Energy        =      -1.7097312089224292 [Eh]
	 Total Energy              =    -401.7973360080457041 [Eh]

	 ================> DF-SCS-MP2 Energies <==================
	-----------------------------------------------------------
	 SCS Same-Spin Scale       =       0.3333333333333333 [-]
	 SCS Opposite-Spin Scale   =       1.2000000000000000 [-]
	 SCS Same-Spin Energy      =      -0.1340354038217443 [Eh]
	 SCS Opposite-Spin Energy  =      -1.5691499969486358 [Eh]
	 SCS Correlation Energy    =      -1.7031854007703799 [Eh]
	 SCS Total Energy          =    -401.7907901998936495 [Eh]
	-----------------------------------------------------------

  Dipole Moment: [D]
     X:     3.0881      Y:     3.1675      Z:    -1.0407     Total:     4.5445

*** Psi4 exiting successfully. Buy a developer a beer!
