                               Psi4 1.3.2 release

  ==> Input File <==

--------------------------------------------------------------------------
#psi4
#
memory 32 gb

molecule  {
0 1
  O       -2.5211540    -0.5137840     0.0284240
  O       -0.0903380    -1.4616610     0.1717700
  N        0.9269703     0.4131663    -0.6212683
  C       -1.5147550     0.4028960    -0.3432490
  C        2.2711600    -0.1378510    -0.5222970
  C       -0.1583790    -0.2975740    -0.2472510
  C       -1.5844930     1.6236140     0.5658530
  C        2.8306478     0.0781279     0.8773395
  H       -1.6669500     0.7105100    -1.3901450
  H        2.2044940    -1.2028750    -0.7525030
  H        2.8934660     0.3357800    -1.2867330
  H        0.8101310     1.3771570    -0.9023240
  H       -1.3564630     1.3269670     1.5921410
  H       -2.5982940     2.0269070     0.5395510
  H       -0.8919110     2.4138320     0.2596650
  H        2.9042670     1.1289430     1.1200310
  H        2.2261210    -0.4398610     1.6074960
  H        3.8631580    -0.3501450     0.9292180
  H       -2.0326010    -1.3422410     0.2291570
units angstrom
no_reorient  #important for SAPT in psi4, default
symmetry c1  #important for SAPT in psi4, default
}

set PROPERTIES_ORIGIN ["COM"]
properties('MP2/aug-cc-pvtz', properties = ['dipole'])
--------------------------------------------------------------------------

    Molecular point group: c1
  Charge       = 0
  Multiplicity = 1
  Basis Set: AUG-CC-PVTZ
    Blend: AUG-CC-PVTZ
  Basis Set: (AUG-CC-PVTZ AUX)
    Blend: AUG-CC-PVTZ-JKFIT

    Orbital Energies [Eh]
    ---------------------

    Doubly Occupied:

       1A    -20.548276     2A    -20.532758     3A    -15.598152
       4A    -11.358640     5A    -11.297981     6A    -11.274163
       7A    -11.231110     8A    -11.224010     9A     -1.398197
      10A     -1.346521    11A     -1.246450    12A     -1.053115
      13A     -1.012468    14A     -0.902338    15A     -0.849744
      16A     -0.795037    17A     -0.744110    18A     -0.677363
      19A     -0.649962    20A     -0.642483    21A     -0.612011
      22A     -0.599937    23A     -0.574782    24A     -0.563010
      25A     -0.540909    26A     -0.532175    27A     -0.522604
      28A     -0.514649    29A     -0.505621    30A     -0.445940
      31A     -0.435514    32A     -0.402637

  @DF-RHF Final Energy:  -400.08680808107010

   => Energetics <=

    Nuclear Repulsion Energy =            400.7736091165479024
    One-Electron Energy =               -1340.4555024545666129
    Two-Electron Energy =                 539.5950852569485505
    Total Energy =                       -400.0868080810701031
  Basis Set: (AUG-CC-PVTZ AUX)
    Blend: AUG-CC-PVTZ-RI
    Molecular point group: c1

    Geometry (in Angstrom), charge = 0, multiplicity = 1:

       Center              X                  Y                   Z               Mass
    ------------   -----------------  -----------------  -----------------  -----------------
         O           -2.518977358973    -0.515926874680     0.024768826512    15.994914619570
         O           -0.088161358973    -1.463803874680     0.168114826512    15.994914619570
         N            0.929146941027     0.411023425320    -0.624923473488    14.003074004430
         C           -1.512578358973     0.400753125320    -0.346904173488    12.000000000000
         C            2.273336641027    -0.139993874680    -0.525952173488    12.000000000000
         C           -0.156202358973    -0.299716874680    -0.250906173488    12.000000000000
         C           -1.582316358973     1.621471125320     0.562197826512    12.000000000000
         C            2.832824441027     0.075985025320     0.873684326512    12.000000000000
         H           -1.664773358973     0.708367125320    -1.393800173488     1.007825032230
         H            2.206670641027    -1.205017874680    -0.756158173488     1.007825032230
         H            2.895642641027     0.333637125320    -1.290388173488     1.007825032230
         H            0.812307641027     1.375014125320    -0.905979173488     1.007825032230
         H           -1.354286358973     1.324824125320     1.588485826512     1.007825032230
         H           -2.596117358973     2.024764125320     0.535895826512     1.007825032230
         H           -0.889734358973     2.411689125320     0.256009826512     1.007825032230
         H            2.906443641027     1.126800125320     1.116375826512     1.007825032230
         H            2.228297641027    -0.442003874680     1.603840826512     1.007825032230
         H            3.865334641027    -0.352287874680     0.925562826512     1.007825032230
         H           -2.030424358973    -1.344383874680     0.225501826512     1.007825032230

  Basis Set: AUG-CC-PVTZ
    Blend: AUG-CC-PVTZ
  Basis Set: (AUG-CC-PVTZ AUX)
    Blend: AUG-CC-PVTZ-JKFIT
	 Reference Energy          =    -400.0868080810701031 [Eh]
	 Singles Energy            =      -0.0000000000000000 [Eh]
	 Same-Spin Energy          =      -0.4021836627996249 [Eh]
	 Opposite-Spin Energy      =      -1.3077259801500722 [Eh]
	 Correlation Energy        =      -1.7099096429496972 [Eh]
	 Total Energy              =    -401.7967177240197998 [Eh]

	 ================> DF-SCS-MP2 Energies <==================
	-----------------------------------------------------------
	 SCS Same-Spin Scale       =       0.3333333333333333 [-]
	 SCS Opposite-Spin Scale   =       1.2000000000000000 [-]
	 SCS Same-Spin Energy      =      -0.1340612209332083 [Eh]
	 SCS Opposite-Spin Energy  =      -1.5692711761800866 [Eh]
	 SCS Correlation Energy    =      -1.7033323971132948 [Eh]
	 SCS Total Energy          =    -401.7901404781833890 [Eh]
	-----------------------------------------------------------

  Dipole Moment: [D]
     X:     3.1069      Y:     3.1838      Z:    -1.1020     Total:     4.5830

*** Psi4 exiting successfully. Buy a developer a beer!
