                               Psi4 1.3.2 release

  ==> Input File <==

--------------------------------------------------------------------------
#psi4
#
memory 32 gb

molecule  {
0 1
  O       -2.5211540    -0.5137840     0.0284240
  O       -0.0903380    -1.4616610     0.1717700
  N        0.9259230     0.4056680    -0.6455280
  C       -1.5147550     0.4028960    -0.3432490
  C        2.2711600    -0.1378510    -0.5222970
  C       -0.1543736    -0.2884708    -0.2383482
  C       -1.5720414     1.6212565     0.5698766
  C        2.8531060     0.0659690     0.8699860
  H       -1.6669500     0.7105100    -1.3901450
  H        2.2044940    -1.2028750    -0.7525030
  H        2.8934660     0.3357800    -1.2867330
  H        0.8101310     1.3771570    -0.9023240
  H       -1.3564630     1.3269670     1.5921410
  H       -2.5982940     2.0269070     0.5395510
  H       -0.8919110     2.4138320     0.2596650
  H        2.9042670     1.1289430     1.1200310
  H        2.2261210    -0.4398610     1.6074960
  H        3.8631580    -0.3501450     0.9292180
  H       -2.0326010    -1.3422410     0.2291570
units angstrom
no_reorient  #important for SAPT in psi4, default
symmetry c1  #important for SAPT in psi4, default
}

set PROPERTIES_ORIGIN ["COM"]
properties('MP2/aug-cc-pvtz', properties = ['dipole'])
--------------------------------------------------------------------------

    Molecular point group: c1
  Charge       = 0
  Multiplicity = 1
  Basis Set: AUG-CC-PVTZ
    Blend: AUG-CC-PVTZ
  Basis Set: (AUG-CC-PVTZ AUX)
    Blend: AUG-CC-PVTZ-JKFIT

    Orbital Energies [Eh]
    ---------------------

    Doubly Occupied:

       1A    -20.548566     2A    -20.531929     3A    -15.599777
       4A    -11.358752     5A    -11.298369     6A    -11.274267
       7A    -11.231307     8A    -11.224758     9A     -1.395815
      10A     -1.345822    11A     -1.247184    12A     -1.053759
      13A     -1.013488    14A     -0.902925    15A     -0.849901
      16A     -0.795285    17A     -0.744155    18A     -0.677468
      19A     -0.649885    20A     -0.640689    21A     -0.611723
      22A     -0.599401    23A     -0.576248    24A     -0.560474
      25A     -0.545050    26A     -0.536641    27A     -0.519888
      28A     -0.514092    29A     -0.502410    30A     -0.446245
      31A     -0.435002    32A     -0.403851

  @DF-RHF Final Energy:  -400.08702530305669

   => Energetics <=

    Nuclear Repulsion Energy =            400.5357523462855056
    One-Electron Energy =               -1339.9753017252444351
    Two-Electron Energy =                 539.3525240759022381
    Total Energy =                       -400.0870253030566346
  Basis Set: (AUG-CC-PVTZ AUX)
    Blend: AUG-CC-PVTZ-RI
    Molecular point group: c1

    Geometry (in Angstrom), charge = 0, multiplicity = 1:

       Center              X                  Y                   Z               Mass
    ------------   -----------------  -----------------  -----------------  -----------------
         O           -2.522840708193    -0.514475225103     0.027099181437    15.994914619570
         O           -0.092024708193    -1.462352225103     0.170445181437    15.994914619570
         N            0.924236291807     0.404976774897    -0.646852818563    14.003074004430
         C           -1.516441708193     0.402204774897    -0.344573818563    12.000000000000
         C            2.269473291807    -0.138542225103    -0.523621818563    12.000000000000
         C           -0.156060308193    -0.289162025103    -0.239673018563    12.000000000000
         C           -1.573728108193     1.620565274897     0.568551781437    12.000000000000
         C            2.851419291807     0.065277774897     0.868661181437    12.000000000000
         H           -1.668636708193     0.709818774897    -1.391469818563     1.007825032230
         H            2.202807291807    -1.203566225103    -0.753827818563     1.007825032230
         H            2.891779291807     0.335088774897    -1.288057818563     1.007825032230
         H            0.808444291807     1.376465774897    -0.903648818563     1.007825032230
         H           -1.358149708193     1.326275774897     1.590816181437     1.007825032230
         H           -2.599980708193     2.026215774897     0.538226181437     1.007825032230
         H           -0.893597708193     2.413140774897     0.258340181437     1.007825032230
         H            2.902580291807     1.128251774897     1.118706181437     1.007825032230
         H            2.224434291807    -0.440552225103     1.606171181437     1.007825032230
         H            3.861471291807    -0.350836225103     0.927893181437     1.007825032230
         H           -2.034287708193    -1.342932225103     0.227832181437     1.007825032230

  Basis Set: AUG-CC-PVTZ
    Blend: AUG-CC-PVTZ
  Basis Set: (AUG-CC-PVTZ AUX)
    Blend: AUG-CC-PVTZ-JKFIT
	 Reference Energy          =    -400.0870253030566914 [Eh]
	 Singles Energy            =      -0.0000000000000000 [Eh]
	 Same-Spin Energy          =      -0.4022576975724796 [Eh]
	 Opposite-Spin Energy      =      -1.3078801803774716 [Eh]
	 Correlation Energy        =      -1.7101378779499512 [Eh]
	 Total Energy              =    -401.7971631810066242 [Eh]

	 ================> DF-SCS-MP2 Energies <==================
	-----------------------------------------------------------
	 SCS Same-Spin Scale       =       0.3333333333333333 [-]
	 SCS Opposite-Spin Scale   =       1.2000000000000000 [-]
	 SCS Same-Spin Energy      =      -0.1340858991908265 [Eh]
	 SCS Opposite-Spin Energy  =      -1.5694562164529657 [Eh]
	 SCS Correlation Energy    =      -1.7035421156437922 [Eh]
	 SCS Total Energy          =    -401.7905674187005047 [Eh]
	-----------------------------------------------------------

  Dipole Moment: [D]
     X:     3.1317      Y:     3.2112      Z:    -1.0523     Total:     4.6073

*** Psi4 exiting successfully. Buy a developer a beer!
