                               Psi4 1.3.2 release

  ==> Input File <==

--------------------------------------------------------------------------
#psi4
#
memory 32 gb

molecule  {
0 1
  O       -2.5211540    -0.5137840     0.0284240
  O       -0.0903380    -1.4616610     0.1717700
  N        0.9259230     0.4056680    -0.6455280
  C       -1.5860738     0.3379352    -0.3169103
  C        2.2711600    -0.1378510    -0.5222970
  C       -0.1583790    -0.2975740    -0.2472510
  C       -1.5844930     1.6236140     0.5658530
  C        2.8531060     0.0659690     0.8699860
  H       -1.6669500     0.7105100    -1.3901450
  H        2.2044940    -1.2028750    -0.7525030
  H        2.8934660     0.3357800    -1.2867330
  H        0.8101310     1.3771570    -0.9023240
  H       -1.3564630     1.3269670     1.5921410
  H       -2.5982940     2.0269070     0.5395510
  H       -0.8919110     2.4138320     0.2596650
  H        2.9042670     1.1289430     1.1200310
  H        2.2261210    -0.4398610     1.6074960
  H        3.8631580    -0.3501450     0.9292180
  H       -2.0326010    -1.3422410     0.2291570
units angstrom
no_reorient  #important for SAPT in psi4, default
symmetry c1  #important for SAPT in psi4, default
}

set PROPERTIES_ORIGIN ["COM"]
properties('MP2/aug-cc-pvtz', properties = ['dipole'])
--------------------------------------------------------------------------

    Molecular point group: c1
  Charge       = 0
  Multiplicity = 1
  Basis Set: AUG-CC-PVTZ
    Blend: AUG-CC-PVTZ
  Basis Set: (AUG-CC-PVTZ AUX)
    Blend: AUG-CC-PVTZ-JKFIT

    Orbital Energies [Eh]
    ---------------------

    Doubly Occupied:

       1A    -20.559104     2A    -20.531368     3A    -15.597878
       4A    -11.356312     5A    -11.301629     6A    -11.273357
       7A    -11.228050     8A    -11.223635     9A     -1.419224
      10A     -1.372442    11A     -1.243461    12A     -1.043461
      13A     -1.006740    14A     -0.895887    15A     -0.848023
      16A     -0.793109    17A     -0.762113    18A     -0.680187
      19A     -0.653138    20A     -0.641889    21A     -0.616348
      22A     -0.599701    23A     -0.590992    24A     -0.560896
      25A     -0.548257    26A     -0.537164    27A     -0.521620
      28A     -0.512779    29A     -0.502392    30A     -0.433410
      31A     -0.425895    32A     -0.401644

  @DF-RHF Final Energy:  -400.07891173825726

   => Energetics <=

    Nuclear Repulsion Energy =            400.7407618192189602
    One-Electron Energy =               -1340.2751375629025006
    Two-Electron Energy =                 539.4554640054262791
    Total Energy =                       -400.0789117382572613
  Basis Set: (AUG-CC-PVTZ AUX)
    Blend: AUG-CC-PVTZ-RI
    Molecular point group: c1

    Geometry (in Angstrom), charge = 0, multiplicity = 1:

       Center              X                  Y                   Z               Mass
    ------------   -----------------  -----------------  -----------------  -----------------
         O           -2.513844135002    -0.507125673456     0.025724488884    15.994914619570
         O           -0.083028135002    -1.455002673456     0.169070488884    15.994914619570
         N            0.933232864998     0.412326326544    -0.648227511116    14.003074004430
         C           -1.578763935002     0.344593526544    -0.319609811116    12.000000000000
         C            2.278469864998    -0.131192673456    -0.524996511116    12.000000000000
         C           -0.151069135002    -0.290915673456    -0.249950511116    12.000000000000
         C           -1.577183135002     1.630272326544     0.563153488884    12.000000000000
         C            2.860415864998     0.072627326544     0.867286488884    12.000000000000
         H           -1.659640135002     0.717168326544    -1.392844511116     1.007825032230
         H            2.211803864998    -1.196216673456    -0.755202511116     1.007825032230
         H            2.900775864998     0.342438326544    -1.289432511116     1.007825032230
         H            0.817440864998     1.383815326544    -0.905023511116     1.007825032230
         H           -1.349153135002     1.333625326544     1.589441488884     1.007825032230
         H           -2.590984135002     2.033565326544     0.536851488884     1.007825032230
         H           -0.884601135002     2.420490326544     0.256965488884     1.007825032230
         H            2.911576864998     1.135601326544     1.117331488884     1.007825032230
         H            2.233430864998    -0.433202673456     1.604796488884     1.007825032230
         H            3.870467864998    -0.343486673456     0.926518488884     1.007825032230
         H           -2.025291135002    -1.335582673456     0.226457488884     1.007825032230

  Basis Set: AUG-CC-PVTZ
    Blend: AUG-CC-PVTZ
  Basis Set: (AUG-CC-PVTZ AUX)
    Blend: AUG-CC-PVTZ-JKFIT
	 Reference Energy          =    -400.0789117382572613 [Eh]
	 Singles Energy            =      -0.0000000000000000 [Eh]
	 Same-Spin Energy          =      -0.4021351013653544 [Eh]
	 Opposite-Spin Energy      =      -1.3063287303977693 [Eh]
	 Correlation Energy        =      -1.7084638317631238 [Eh]
	 Total Energy              =    -401.7873755700204015 [Eh]

	 ================> DF-SCS-MP2 Energies <==================
	-----------------------------------------------------------
	 SCS Same-Spin Scale       =       0.3333333333333333 [-]
	 SCS Opposite-Spin Scale   =       1.2000000000000000 [-]
	 SCS Same-Spin Energy      =      -0.1340450337884515 [Eh]
	 SCS Opposite-Spin Energy  =      -1.5675944764773231 [Eh]
	 SCS Correlation Energy    =      -1.7016395102657746 [Eh]
	 SCS Total Energy          =    -401.7805512485230111 [Eh]
	-----------------------------------------------------------

  Dipole Moment: [D]
     X:     2.8660      Y:     2.8956      Z:    -0.9703     Total:     4.1880

*** Psi4 exiting successfully. Buy a developer a beer!
