                               Psi4 1.3.2 release

  ==> Input File <==

--------------------------------------------------------------------------
#psi4
#
memory 32 gb

molecule  {
0 1
  O       -2.5211540    -0.5137840     0.0284240
  O       -0.0903380    -1.4616610     0.1717700
  N        0.9259230     0.4056680    -0.6455280
  C       -1.5147550     0.4028960    -0.3432490
  C        2.2711600    -0.1378510    -0.5222970
  C       -0.0782007    -0.2455730    -0.2767015
  C       -1.5844930     1.6236140     0.5658530
  C        2.8531060     0.0659690     0.8699860
  H       -1.6669500     0.7105100    -1.3901450
  H        2.2044940    -1.2028750    -0.7525030
  H        2.8934660     0.3357800    -1.2867330
  H        0.8101310     1.3771570    -0.9023240
  H       -1.3564630     1.3269670     1.5921410
  H       -2.5982940     2.0269070     0.5395510
  H       -0.8919110     2.4138320     0.2596650
  H        2.9042670     1.1289430     1.1200310
  H        2.2261210    -0.4398610     1.6074960
  H        3.8631580    -0.3501450     0.9292180
  H       -2.0326010    -1.3422410     0.2291570
units angstrom
no_reorient  #important for SAPT in psi4, default
symmetry c1  #important for SAPT in psi4, default
}

set PROPERTIES_ORIGIN ["COM"]
properties('MP2/aug-cc-pvtz', properties = ['dipole'])
--------------------------------------------------------------------------

    Molecular point group: c1
  Charge       = 0
  Multiplicity = 1
  Basis Set: AUG-CC-PVTZ
    Blend: AUG-CC-PVTZ
  Basis Set: (AUG-CC-PVTZ AUX)
    Blend: AUG-CC-PVTZ-JKFIT

    Orbital Energies [Eh]
    ---------------------

    Doubly Occupied:

       1A    -20.544233     2A    -20.513591     3A    -15.615776
       4A    -11.351804     5A    -11.297152     6A    -11.282979
       7A    -11.231084     8A    -11.228134     9A     -1.378893
      10A     -1.340682    11A     -1.263391    12A     -1.058591
      13A     -1.017536    14A     -0.906831    15A     -0.849648
      16A     -0.820607    17A     -0.736415    18A     -0.678722
      19A     -0.652654    20A     -0.633367    21A     -0.618927
      22A     -0.598588    23A     -0.572038    24A     -0.561307
      25A     -0.548562    26A     -0.534686    27A     -0.519424
      28A     -0.508998    29A     -0.495786    30A     -0.440075
      31A     -0.417761    32A     -0.407918

  @DF-RHF Final Energy:  -400.07003838367388

   => Energetics <=

    Nuclear Repulsion Energy =            400.5425269543201239
    One-Electron Energy =               -1339.9728048108217990
    Two-Electron Energy =                 539.3602394728278568
    Total Energy =                       -400.0700383836738183
  Basis Set: (AUG-CC-PVTZ AUX)
    Blend: AUG-CC-PVTZ-RI
    Molecular point group: c1

    Geometry (in Angstrom), charge = 0, multiplicity = 1:

       Center              X                  Y                   Z               Mass
    ------------   -----------------  -----------------  -----------------  -----------------
         O           -2.529371817442    -0.519113663245     0.031442598215    15.994914619570
         O           -0.098555817442    -1.466990663245     0.174788598215    15.994914619570
         N            0.917705182558     0.400338336755    -0.642509401785    14.003074004430
         C           -1.522972817442     0.397566336755    -0.340230401785    12.000000000000
         C            2.262942182558    -0.143180663245    -0.519278401785    12.000000000000
         C           -0.086418517442    -0.250902663245    -0.273682901785    12.000000000000
         C           -1.592710817442     1.618284336755     0.568871598215    12.000000000000
         C            2.844888182558     0.060639336755     0.873004598215    12.000000000000
         H           -1.675167817442     0.705180336755    -1.387126401785     1.007825032230
         H            2.196276182558    -1.208204663245    -0.749484401785     1.007825032230
         H            2.885248182558     0.330450336755    -1.283714401785     1.007825032230
         H            0.801913182558     1.371827336755    -0.899305401785     1.007825032230
         H           -1.364680817442     1.321637336755     1.595159598215     1.007825032230
         H           -2.606511817442     2.021577336755     0.542569598215     1.007825032230
         H           -0.900128817442     2.408502336755     0.262683598215     1.007825032230
         H            2.896049182558     1.123613336755     1.123049598215     1.007825032230
         H            2.217903182558    -0.445190663245     1.610514598215     1.007825032230
         H            3.854940182558    -0.355474663245     0.932236598215     1.007825032230
         H           -2.040818817442    -1.347570663245     0.232175598215     1.007825032230

  Basis Set: AUG-CC-PVTZ
    Blend: AUG-CC-PVTZ
  Basis Set: (AUG-CC-PVTZ AUX)
    Blend: AUG-CC-PVTZ-JKFIT
	 Reference Energy          =    -400.0700383836738752 [Eh]
	 Singles Energy            =      -0.0000000000000000 [Eh]
	 Same-Spin Energy          =      -0.4029281401053585 [Eh]
	 Opposite-Spin Energy      =      -1.3089721105433094 [Eh]
	 Correlation Energy        =      -1.7119002506486680 [Eh]
	 Total Energy              =    -401.7819386343225574 [Eh]

	 ================> DF-SCS-MP2 Energies <==================
	-----------------------------------------------------------
	 SCS Same-Spin Scale       =       0.3333333333333333 [-]
	 SCS Opposite-Spin Scale   =       1.2000000000000000 [-]
	 SCS Same-Spin Energy      =      -0.1343093800351195 [Eh]
	 SCS Opposite-Spin Energy  =      -1.5707665326519713 [Eh]
	 SCS Correlation Energy    =      -1.7050759126870907 [Eh]
	 SCS Total Energy          =    -401.7751142963609823 [Eh]
	-----------------------------------------------------------

  Dipole Moment: [D]
     X:     3.7464      Y:     3.5873      Z:    -1.2466     Total:     5.3346

*** Psi4 exiting successfully. Buy a developer a beer!
