                               Psi4 1.3.2 release

  ==> Input File <==

--------------------------------------------------------------------------
#psi4
#
memory 32 gb

molecule  {
0 1
  O       -2.5211540    -0.5137840     0.0284240
  O       -0.0903380    -1.4616610     0.1717700
  N        0.9259230     0.4056680    -0.6455280
  C       -1.5147550     0.4028960    -0.3432490
  C        2.2711600    -0.1378510    -0.5222970
  C       -0.1429803    -0.2608480    -0.2116904
  C       -1.5346642     1.6136279     0.5815289
  C        2.8531060     0.0659690     0.8699860
  H       -1.6669500     0.7105100    -1.3901450
  H        2.2044940    -1.2028750    -0.7525030
  H        2.8934660     0.3357800    -1.2867330
  H        0.8101310     1.3771570    -0.9023240
  H       -1.3564630     1.3269670     1.5921410
  H       -2.5982940     2.0269070     0.5395510
  H       -0.8919110     2.4138320     0.2596650
  H        2.9042670     1.1289430     1.1200310
  H        2.2261210    -0.4398610     1.6074960
  H        3.8631580    -0.3501450     0.9292180
  H       -2.0326010    -1.3422410     0.2291570
units angstrom
no_reorient  #important for SAPT in psi4, default
symmetry c1  #important for SAPT in psi4, default
}

set PROPERTIES_ORIGIN ["COM"]
properties('MP2/aug-cc-pvtz', properties = ['dipole'])
--------------------------------------------------------------------------

    Molecular point group: c1
  Charge       = 0
  Multiplicity = 1
  Basis Set: AUG-CC-PVTZ
    Blend: AUG-CC-PVTZ
  Basis Set: (AUG-CC-PVTZ AUX)
    Blend: AUG-CC-PVTZ-JKFIT

    Orbital Energies [Eh]
    ---------------------

    Doubly Occupied:

       1A    -20.548845     2A    -20.527490     3A    -15.603052
       4A    -11.357770     5A    -11.299121     6A    -11.275840
       7A    -11.231445     8A    -11.225972     9A     -1.388664
      10A     -1.342947    11A     -1.250054    12A     -1.056375
      13A     -1.015409    14A     -0.902971    15A     -0.851313
      16A     -0.798101    17A     -0.744183    18A     -0.678604
      19A     -0.651807    20A     -0.636487    21A     -0.613692
      22A     -0.599277    23A     -0.578274    24A     -0.552656
      25A     -0.549869    26A     -0.539250    27A     -0.517548
      28A     -0.510594    29A     -0.500060    30A     -0.447175
      31A     -0.430666    32A     -0.404553

  @DF-RHF Final Energy:  -400.08062682441584

   => Energetics <=

    Nuclear Repulsion Energy =            400.8097849987577774
    One-Electron Energy =               -1340.5206938497742613
    Two-Electron Energy =                 539.6302820266006393
    Total Energy =                       -400.0806268244158446
  Basis Set: (AUG-CC-PVTZ AUX)
    Blend: AUG-CC-PVTZ-RI
    Molecular point group: c1

    Geometry (in Angstrom), charge = 0, multiplicity = 1:

       Center              X                  Y                   Z               Mass
    ------------   -----------------  -----------------  -----------------  -----------------
         O           -2.527839436462    -0.516524528939     0.023172590981    15.994914619570
         O           -0.097023436462    -1.464401528939     0.166518590981    15.994914619570
         N            0.919237563538     0.402927471061    -0.650779409019    14.003074004430
         C           -1.521440436462     0.400155471061    -0.348500409019    12.000000000000
         C            2.264474563538    -0.140591528939    -0.527548409019    12.000000000000
         C           -0.149665736462    -0.263588528939    -0.216941809019    12.000000000000
         C           -1.541349636462     1.610887371061     0.576277490981    12.000000000000
         C            2.846420563538     0.063228471061     0.864734590981    12.000000000000
         H           -1.673635436462     0.707769471061    -1.395396409019     1.007825032230
         H            2.197808563538    -1.205615528939    -0.757754409019     1.007825032230
         H            2.886780563538     0.333039471061    -1.291984409019     1.007825032230
         H            0.803445563538     1.374416471061    -0.907575409019     1.007825032230
         H           -1.363148436462     1.324226471061     1.586889590981     1.007825032230
         H           -2.604979436462     2.024166471061     0.534299590981     1.007825032230
         H           -0.898596436462     2.411091471061     0.254413590981     1.007825032230
         H            2.897581563538     1.126202471061     1.114779590981     1.007825032230
         H            2.219435563538    -0.442601528939     1.602244590981     1.007825032230
         H            3.856472563538    -0.352885528939     0.923966590981     1.007825032230
         H           -2.039286436462    -1.344981528939     0.223905590981     1.007825032230

  Basis Set: AUG-CC-PVTZ
    Blend: AUG-CC-PVTZ
  Basis Set: (AUG-CC-PVTZ AUX)
    Blend: AUG-CC-PVTZ-JKFIT
	 Reference Energy          =    -400.0806268244158446 [Eh]
	 Singles Energy            =      -0.0000000000000000 [Eh]
	 Same-Spin Energy          =      -0.4028093878276731 [Eh]
	 Opposite-Spin Energy      =      -1.3089172370371869 [Eh]
	 Correlation Energy        =      -1.7117266248648599 [Eh]
	 Total Energy              =    -401.7923534492807107 [Eh]

	 ================> DF-SCS-MP2 Energies <==================
	-----------------------------------------------------------
	 SCS Same-Spin Scale       =       0.3333333333333333 [-]
	 SCS Opposite-Spin Scale   =       1.2000000000000000 [-]
	 SCS Same-Spin Energy      =      -0.1342697959425577 [Eh]
	 SCS Opposite-Spin Energy  =      -1.5707006844446243 [Eh]
	 SCS Correlation Energy    =      -1.7049704803871819 [Eh]
	 SCS Total Energy          =    -401.7855973048030478 [Eh]
	-----------------------------------------------------------

  Dipole Moment: [D]
     X:     3.2351      Y:     3.3155      Z:    -1.0785     Total:     4.7562

*** Psi4 exiting successfully. Buy a developer a beer!
