                               Psi4 1.3.2 release

  ==> Input File <==

--------------------------------------------------------------------------
#psi4
#
memory 32 gb

molecule  {
0 1
  O       -2.5211540    -0.5137840     0.0284240
  O       -0.0903380    -1.4616610     0.1717700
  N        0.9259230     0.4056680    -0.6455280
  C       -1.5147550     0.4028960    -0.3432490
  C        2.2711600    -0.1378510    -0.5222970
  C       -0.1650913    -0.2879872    -0.2487724
  C       -1.5844930     1.6236140     0.5658530
  C        2.8531060     0.0659690     0.8699860
  H       -1.6669500     0.7105100    -1.3901450
  H        2.2044940    -1.2028750    -0.7525030
  H        2.8934660     0.3357800    -1.2867330
  H        0.8014992     1.3765489    -0.9005807
  H       -1.3564630     1.3269670     1.5921410
  H       -2.5982940     2.0269070     0.5395510
  H       -0.8919110     2.4138320     0.2596650
  H        2.9042670     1.1289430     1.1200310
  H        2.2261210    -0.4398610     1.6074960
  H        3.8631580    -0.3501450     0.9292180
  H       -2.0326010    -1.3422410     0.2291570
units angstrom
no_reorient  #important for SAPT in psi4, default
symmetry c1  #important for SAPT in psi4, default
}

set PROPERTIES_ORIGIN ["COM"]
properties('MP2/aug-cc-pvtz', properties = ['dipole'])
--------------------------------------------------------------------------

    Molecular point group: c1
  Charge       = 0
  Multiplicity = 1
  Basis Set: AUG-CC-PVTZ
    Blend: AUG-CC-PVTZ
  Basis Set: (AUG-CC-PVTZ AUX)
    Blend: AUG-CC-PVTZ-JKFIT

    Orbital Energies [Eh]
    ---------------------

    Doubly Occupied:

       1A    -20.548905     2A    -20.531937     3A    -15.599493
       4A    -11.359769     5A    -11.298819     6A    -11.274246
       7A    -11.232174     8A    -11.224392     9A     -1.394494
      10A     -1.345493    11A     -1.245015    12A     -1.054664
      13A     -1.013604    14A     -0.904557    15A     -0.850774
      16A     -0.793012    17A     -0.744891    18A     -0.677510
      19A     -0.650168    20A     -0.640467    21A     -0.611121
      22A     -0.598089    23A     -0.575709    24A     -0.563913
      25A     -0.544157    26A     -0.535261    27A     -0.519166
      28A     -0.514468    29A     -0.502188    30A     -0.446456
      31A     -0.437048    32A     -0.402859

  @DF-RHF Final Energy:  -400.08665095684887

   => Energetics <=

    Nuclear Repulsion Energy =            400.4130090331091196
    One-Electron Energy =               -1339.7296808347223305
    Two-Electron Energy =                 539.2300208447643399
    Total Energy =                       -400.0866509568488709
  Basis Set: (AUG-CC-PVTZ AUX)
    Blend: AUG-CC-PVTZ-RI
    Molecular point group: c1

    Geometry (in Angstrom), charge = 0, multiplicity = 1:

       Center              X                  Y                   Z               Mass
    ------------   -----------------  -----------------  -----------------  -----------------
         O           -2.520391669539    -0.514761188834     0.028565001012    15.994914619570
         O           -0.089575669539    -1.462638188834     0.171911001012    15.994914619570
         N            0.926685330461     0.404690811166    -0.645386998988    14.003074004430
         C           -1.513992669539     0.401918811166    -0.343107998988    12.000000000000
         C            2.271922330461    -0.138828188834    -0.522155998988    12.000000000000
         C           -0.164328969539    -0.288964388834    -0.248631398988    12.000000000000
         C           -1.583730669539     1.622636811166     0.565994001012    12.000000000000
         C            2.853868330461     0.064991811166     0.870127001012    12.000000000000
         H           -1.666187669539     0.709532811166    -1.390003998988     1.007825032230
         H            2.205256330461    -1.203852188834    -0.752361998988     1.007825032230
         H            2.894228330461     0.334802811166    -1.286591998988     1.007825032230
         H            0.802261530461     1.375571711166    -0.900439698988     1.007825032230
         H           -1.355700669539     1.325989811166     1.592282001012     1.007825032230
         H           -2.597531669539     2.025929811166     0.539692001012     1.007825032230
         H           -0.891148669539     2.412854811166     0.259806001012     1.007825032230
         H            2.905029330461     1.127965811166     1.120172001012     1.007825032230
         H            2.226883330461    -0.440838188834     1.607637001012     1.007825032230
         H            3.863920330461    -0.351122188834     0.929359001012     1.007825032230
         H           -2.031838669539    -1.343218188834     0.229298001012     1.007825032230

  Basis Set: AUG-CC-PVTZ
    Blend: AUG-CC-PVTZ
  Basis Set: (AUG-CC-PVTZ AUX)
    Blend: AUG-CC-PVTZ-JKFIT
	 Reference Energy          =    -400.0866509568488709 [Eh]
	 Singles Energy            =      -0.0000000000000000 [Eh]
	 Same-Spin Energy          =      -0.4023733827486444 [Eh]
	 Opposite-Spin Energy      =      -1.3081303560383415 [Eh]
	 Correlation Energy        =      -1.7105037387869859 [Eh]
	 Total Energy              =    -401.7971546956358679 [Eh]

	 ================> DF-SCS-MP2 Energies <==================
	-----------------------------------------------------------
	 SCS Same-Spin Scale       =       0.3333333333333333 [-]
	 SCS Opposite-Spin Scale   =       1.2000000000000000 [-]
	 SCS Same-Spin Energy      =      -0.1341244609162148 [Eh]
	 SCS Opposite-Spin Energy  =      -1.5697564272460098 [Eh]
	 SCS Correlation Energy    =      -1.7038808881622247 [Eh]
	 SCS Total Energy          =    -401.7905318450111167 [Eh]
	-----------------------------------------------------------

  Dipole Moment: [D]
     X:     3.0782      Y:     3.2224      Z:    -1.0520     Total:     4.5789

*** Psi4 exiting successfully. Buy a developer a beer!
