                               Psi4 1.3.2 release

  ==> Input File <==

--------------------------------------------------------------------------
#psi4
#
memory 32 gb

molecule  {
0 1
  O       -2.5211540    -0.5137840     0.0284240
  O       -0.0903380    -1.4616610     0.1717700
  N        0.9303409     0.4171637    -0.6423978
  C       -1.5147550     0.4028960    -0.3432490
  C        2.2711600    -0.1378510    -0.5222970
  C       -0.1583790    -0.2975740    -0.2472510
  C       -1.5844930     1.6236140     0.5658530
  C        2.8531060     0.0659690     0.8699860
  H       -1.6669500     0.7105100    -1.3901450
  H        2.2138686    -1.2037347    -0.7510433
  H        2.8934660     0.3357800    -1.2867330
  H        0.8101310     1.3771570    -0.9023240
  H       -1.3564630     1.3269670     1.5921410
  H       -2.5982940     2.0269070     0.5395510
  H       -0.8919110     2.4138320     0.2596650
  H        2.9042670     1.1289430     1.1200310
  H        2.2261210    -0.4398610     1.6074960
  H        3.8631580    -0.3501450     0.9292180
  H       -2.0326010    -1.3422410     0.2291570
units angstrom
no_reorient  #important for SAPT in psi4, default
symmetry c1  #important for SAPT in psi4, default
}

set PROPERTIES_ORIGIN ["COM"]
properties('MP2/aug-cc-pvtz', properties = ['dipole'])
--------------------------------------------------------------------------

    Molecular point group: c1
  Charge       = 0
  Multiplicity = 1
  Basis Set: AUG-CC-PVTZ
    Blend: AUG-CC-PVTZ
  Basis Set: (AUG-CC-PVTZ AUX)
    Blend: AUG-CC-PVTZ-JKFIT

    Orbital Energies [Eh]
    ---------------------

    Doubly Occupied:

       1A    -20.548764     2A    -20.535130     3A    -15.597745
       4A    -11.360618     5A    -11.298420     6A    -11.273411
       7A    -11.231490     8A    -11.223783     9A     -1.398600
      10A     -1.346912    11A     -1.245323    12A     -1.052604
      13A     -1.012564    14A     -0.902482    15A     -0.849283
      16A     -0.795329    17A     -0.744179    18A     -0.677433
      19A     -0.649683    20A     -0.642649    21A     -0.610334
      22A     -0.599947    23A     -0.575616    24A     -0.563210
      25A     -0.543816    26A     -0.534815    27A     -0.520974
      28A     -0.516064    29A     -0.501997    30A     -0.446322
      31A     -0.436594    32A     -0.403344

  @DF-RHF Final Energy:  -400.08758727788506

   => Energetics <=

    Nuclear Repulsion Energy =            400.2870135569329477
    One-Electron Energy =               -1339.4703358395395298
    Two-Electron Energy =                 539.0957350047215186
    Total Energy =                       -400.0875872778850635
  Basis Set: (AUG-CC-PVTZ AUX)
    Blend: AUG-CC-PVTZ-RI
    Molecular point group: c1

    Geometry (in Angstrom), charge = 0, multiplicity = 1:

       Center              X                  Y                   Z               Mass
    ------------   -----------------  -----------------  -----------------  -----------------
         O           -2.521763043660    -0.515151352548     0.028037123131    15.994914619570
         O           -0.090947043660    -1.463028352548     0.171383123131    15.994914619570
         N            0.929731856340     0.415796347452    -0.642784676869    14.003074004430
         C           -1.515364043660     0.401528647452    -0.343635876869    12.000000000000
         C            2.270550956340    -0.139218352548    -0.522683876869    12.000000000000
         C           -0.158988043660    -0.298941352548    -0.247637876869    12.000000000000
         C           -1.585102043660     1.622246647452     0.565466123131    12.000000000000
         C            2.852496956340     0.064601647452     0.869599123131    12.000000000000
         H           -1.667559043660     0.709142647452    -1.390531876869     1.007825032230
         H            2.213259556340    -1.205102052548    -0.751430176869     1.007825032230
         H            2.892856956340     0.334412647452    -1.287119876869     1.007825032230
         H            0.809521956340     1.375789647452    -0.902710876869     1.007825032230
         H           -1.357072043660     1.325599647452     1.591754123131     1.007825032230
         H           -2.598903043660     2.025539647452     0.539164123131     1.007825032230
         H           -0.892520043660     2.412464647452     0.259278123131     1.007825032230
         H            2.903657956340     1.127575647452     1.119644123131     1.007825032230
         H            2.225511956340    -0.441228352548     1.607109123131     1.007825032230
         H            3.862548956340    -0.351512352548     0.928831123131     1.007825032230
         H           -2.033210043660    -1.343608352548     0.228770123131     1.007825032230

  Basis Set: AUG-CC-PVTZ
    Blend: AUG-CC-PVTZ
  Basis Set: (AUG-CC-PVTZ AUX)
    Blend: AUG-CC-PVTZ-JKFIT
	 Reference Energy          =    -400.0875872778850635 [Eh]
	 Singles Energy            =      -0.0000000000000000 [Eh]
	 Same-Spin Energy          =      -0.4020826115764854 [Eh]
	 Opposite-Spin Energy      =      -1.3076472455290795 [Eh]
	 Correlation Energy        =      -1.7097298571055650 [Eh]
	 Total Energy              =    -401.7973171349906352 [Eh]

	 ================> DF-SCS-MP2 Energies <==================
	-----------------------------------------------------------
	 SCS Same-Spin Scale       =       0.3333333333333333 [-]
	 SCS Opposite-Spin Scale   =       1.2000000000000000 [-]
	 SCS Same-Spin Energy      =      -0.1340275371921618 [Eh]
	 SCS Opposite-Spin Energy  =      -1.5691766946348953 [Eh]
	 SCS Correlation Energy    =      -1.7032042318270570 [Eh]
	 SCS Total Energy          =    -401.7907915097121077 [Eh]
	-----------------------------------------------------------

  Dipole Moment: [D]
     X:     3.0614      Y:     3.1414      Z:    -1.0458     Total:     4.5093

*** Psi4 exiting successfully. Buy a developer a beer!
