                               Psi4 1.3.2 release

  ==> Input File <==

--------------------------------------------------------------------------
#psi4
#
memory 32 gb

molecule  {
0 1
  O       -2.5211540    -0.5137840     0.0284240
  O       -0.0903380    -1.4616610     0.1717700
  N        0.9252855     0.3980042    -0.6697501
  C       -1.5147550     0.4028960    -0.3432490
  C        2.2711600    -0.1378510    -0.5222970
  C       -0.1583790    -0.2975740    -0.2472510
  C       -1.5844930     1.6236140     0.5658530
  C        2.8753870     0.0537480     0.8622084
  H       -1.6669500     0.7105100    -1.3901450
  H        2.2044940    -1.2028750    -0.7525030
  H        2.8934660     0.3357800    -1.2867330
  H        0.8101310     1.3771570    -0.9023240
  H       -1.3564630     1.3269670     1.5921410
  H       -2.5982940     2.0269070     0.5395510
  H       -0.8919110     2.4138320     0.2596650
  H        2.9042670     1.1289430     1.1200310
  H        2.2261210    -0.4398610     1.6074960
  H        3.8631580    -0.3501450     0.9292180
  H       -2.0326010    -1.3422410     0.2291570
units angstrom
no_reorient  #important for SAPT in psi4, default
symmetry c1  #important for SAPT in psi4, default
}

set PROPERTIES_ORIGIN ["COM"]
properties('MP2/aug-cc-pvtz', properties = ['dipole'])
--------------------------------------------------------------------------

    Molecular point group: c1
  Charge       = 0
  Multiplicity = 1
  Basis Set: AUG-CC-PVTZ
    Blend: AUG-CC-PVTZ
  Basis Set: (AUG-CC-PVTZ AUX)
    Blend: AUG-CC-PVTZ-JKFIT

    Orbital Energies [Eh]
    ---------------------

    Doubly Occupied:

       1A    -20.548813     2A    -20.534409     3A    -15.599359
       4A    -11.359898     5A    -11.298548     6A    -11.273357
       7A    -11.231755     8A    -11.224938     9A     -1.398805
      10A     -1.347041    11A     -1.245334    12A     -1.052826
      13A     -1.013354    14A     -0.903756    15A     -0.849265
      16A     -0.793220    17A     -0.744297    18A     -0.677170
      19A     -0.648596    20A     -0.642160    21A     -0.611567
      22A     -0.598192    23A     -0.577442    24A     -0.563883
      25A     -0.548038    26A     -0.536050    27A     -0.519522
      28A     -0.515345    29A     -0.498509    30A     -0.446278
      31A     -0.436930    32A     -0.404270

  @DF-RHF Final Energy:  -400.08674273945451

   => Energetics <=

    Nuclear Repulsion Energy =            400.0968233151990034
    One-Electron Energy =               -1339.0812781237004856
    Two-Electron Energy =                 538.8977120690469746
    Total Energy =                       -400.0867427394545075
  Basis Set: (AUG-CC-PVTZ AUX)
    Blend: AUG-CC-PVTZ-RI
    Molecular point group: c1

    Geometry (in Angstrom), charge = 0, multiplicity = 1:

       Center              X                  Y                   Z               Mass
    ------------   -----------------  -----------------  -----------------  -----------------
         O           -2.523361391248    -0.511614616285     0.032118287906    15.994914619570
         O           -0.092545391248    -1.459491616285     0.175464287906    15.994914619570
         N            0.923078108752     0.400173583715    -0.666055812094    14.003074004430
         C           -1.516962391248     0.405065383715    -0.339554712094    12.000000000000
         C            2.268952608752    -0.135681616285    -0.518602712094    12.000000000000
         C           -0.160586391248    -0.295404616285    -0.243556712094    12.000000000000
         C           -1.586700391248     1.625783383715     0.569547287906    12.000000000000
         C            2.873179608752     0.055917383715     0.865902687906    12.000000000000
         H           -1.669157391248     0.712679383715    -1.386450712094     1.007825032230
         H            2.202286608752    -1.200705616285    -0.748808712094     1.007825032230
         H            2.891258608752     0.337949383715    -1.283038712094     1.007825032230
         H            0.807923608752     1.379326383715    -0.898629712094     1.007825032230
         H           -1.358670391248     1.329136383715     1.595835287906     1.007825032230
         H           -2.600501391248     2.029076383715     0.543245287906     1.007825032230
         H           -0.894118391248     2.416001383715     0.263359287906     1.007825032230
         H            2.902059608752     1.131112383715     1.123725287906     1.007825032230
         H            2.223913608752    -0.437691616285     1.611190287906     1.007825032230
         H            3.860950608752    -0.347975616285     0.932912287906     1.007825032230
         H           -2.034808391248    -1.340071616285     0.232851287906     1.007825032230

  Basis Set: AUG-CC-PVTZ
    Blend: AUG-CC-PVTZ
  Basis Set: (AUG-CC-PVTZ AUX)
    Blend: AUG-CC-PVTZ-JKFIT
	 Reference Energy          =    -400.0867427394545075 [Eh]
	 Singles Energy            =      -0.0000000000000000 [Eh]
	 Same-Spin Energy          =      -0.4020948471603130 [Eh]
	 Opposite-Spin Energy      =      -1.3076964226896961 [Eh]
	 Correlation Energy        =      -1.7097912698500091 [Eh]
	 Total Energy              =    -401.7965340093045370 [Eh]

	 ================> DF-SCS-MP2 Energies <==================
	-----------------------------------------------------------
	 SCS Same-Spin Scale       =       0.3333333333333333 [-]
	 SCS Opposite-Spin Scale   =       1.2000000000000000 [-]
	 SCS Same-Spin Energy      =      -0.1340316157201043 [Eh]
	 SCS Opposite-Spin Energy  =      -1.5692357072276353 [Eh]
	 SCS Correlation Energy    =      -1.7032673229477395 [Eh]
	 SCS Total Energy          =    -401.7900100624022457 [Eh]
	-----------------------------------------------------------

  Dipole Moment: [D]
     X:     3.0755      Y:     3.1621      Z:    -0.9871     Total:     4.5201

*** Psi4 exiting successfully. Buy a developer a beer!
