                               Psi4 1.3.2 release

  ==> Input File <==

--------------------------------------------------------------------------
#psi4
#
memory 32 gb

molecule  {
0 1
  O       -2.5211540    -0.5137840     0.0284240
  O       -0.0903380    -1.4616610     0.1717700
  N        0.9259230     0.4056680    -0.6455280
  C       -1.4811469     0.3676368    -0.3359448
  C        2.2711600    -0.1378510    -0.5222970
  C       -0.1583790    -0.2975740    -0.2472510
  C       -1.5844930     1.6236140     0.5658530
  C        2.8531060     0.0659690     0.8699860
  H       -1.6669500     0.7105100    -1.3901450
  H        2.2044940    -1.2028750    -0.7525030
  H        2.8934660     0.3357800    -1.2867330
  H        0.8101310     1.3771570    -0.9023240
  H       -1.3564630     1.3269670     1.5921410
  H       -2.5982940     2.0269070     0.5395510
  H       -0.8919110     2.4138320     0.2596650
  H        2.9042670     1.1289430     1.1200310
  H        2.2261210    -0.4398610     1.6074960
  H        3.8631580    -0.3501450     0.9292180
  H       -2.0033178    -1.3261178     0.2215000
units angstrom
no_reorient  #important for SAPT in psi4, default
symmetry c1  #important for SAPT in psi4, default
}

set PROPERTIES_ORIGIN ["COM"]
properties('MP2/aug-cc-pvtz', properties = ['dipole'])
--------------------------------------------------------------------------

    Molecular point group: c1
  Charge       = 0
  Multiplicity = 1
  Basis Set: AUG-CC-PVTZ
    Blend: AUG-CC-PVTZ
  Basis Set: (AUG-CC-PVTZ AUX)
    Blend: AUG-CC-PVTZ-JKFIT

    Orbital Energies [Eh]
    ---------------------

    Doubly Occupied:

       1A    -20.550235     2A    -20.534766     3A    -15.599642
       4A    -11.359711     5A    -11.298112     6A    -11.274599
       7A    -11.232955     8A    -11.224863     9A     -1.402889
      10A     -1.348830    11A     -1.247587    12A     -1.054205
      13A     -1.010327    14A     -0.908578    15A     -0.851234
      16A     -0.794812    17A     -0.747067    18A     -0.677115
      19A     -0.647242    20A     -0.643596    21A     -0.612201
      22A     -0.600175    23A     -0.571121    24A     -0.561668
      25A     -0.547214    26A     -0.533705    27A     -0.522031
      28A     -0.520133    29A     -0.503634    30A     -0.444006
      31A     -0.439730    32A     -0.404196

  @DF-RHF Final Energy:  -400.08413169826156

   => Energetics <=

    Nuclear Repulsion Energy =            401.1081661923503248
    One-Electron Energy =               -1341.0482411052091720
    Two-Electron Energy =                 539.8559432145972323
    Total Energy =                       -400.0841316982615581
  Basis Set: (AUG-CC-PVTZ AUX)
    Blend: AUG-CC-PVTZ-RI
    Molecular point group: c1

    Geometry (in Angstrom), charge = 0, multiplicity = 1:

       Center              X                  Y                   Z               Mass
    ------------   -----------------  -----------------  -----------------  -----------------
         O           -2.524850680818    -0.510308726204     0.027741340407    15.994914619570
         O           -0.094034680818    -1.458185726204     0.171087340407    15.994914619570
         N            0.922226319182     0.409143273796    -0.646210659593    14.003074004430
         C           -1.484843580818     0.371112073796    -0.336627459593    12.000000000000
         C            2.267463319182    -0.134375726204    -0.522979659593    12.000000000000
         C           -0.162075680818    -0.294098726204    -0.247933659593    12.000000000000
         C           -1.588189680818     1.627089273796     0.565170340407    12.000000000000
         C            2.849409319182     0.069444273796     0.869303340407    12.000000000000
         H           -1.670646680818     0.713985273796    -1.390827659593     1.007825032230
         H            2.200797319182    -1.199399726204    -0.753185659593     1.007825032230
         H            2.889769319182     0.339255273796    -1.287415659593     1.007825032230
         H            0.806434319182     1.380632273796    -0.903006659593     1.007825032230
         H           -1.360159680818     1.330442273796     1.591458340407     1.007825032230
         H           -2.601990680818     2.030382273796     0.538868340407     1.007825032230
         H           -0.895607680818     2.417307273796     0.258982340407     1.007825032230
         H            2.900570319182     1.132418273796     1.119348340407     1.007825032230
         H            2.222424319182    -0.436385726204     1.606813340407     1.007825032230
         H            3.859461319182    -0.346669726204     0.928535340407     1.007825032230
         H           -2.007014480818    -1.322642526204     0.220817340407     1.007825032230

  Basis Set: AUG-CC-PVTZ
    Blend: AUG-CC-PVTZ
  Basis Set: (AUG-CC-PVTZ AUX)
    Blend: AUG-CC-PVTZ-JKFIT
	 Reference Energy          =    -400.0841316982615581 [Eh]
	 Singles Energy            =      -0.0000000000000000 [Eh]
	 Same-Spin Energy          =      -0.4025163858750148 [Eh]
	 Opposite-Spin Energy      =      -1.3083123058904755 [Eh]
	 Correlation Energy        =      -1.7108286917654902 [Eh]
	 Total Energy              =    -401.7949603900270290 [Eh]

	 ================> DF-SCS-MP2 Energies <==================
	-----------------------------------------------------------
	 SCS Same-Spin Scale       =       0.3333333333333333 [-]
	 SCS Opposite-Spin Scale   =       1.2000000000000000 [-]
	 SCS Same-Spin Energy      =      -0.1341721286250049 [Eh]
	 SCS Opposite-Spin Energy  =      -1.5699747670685706 [Eh]
	 SCS Correlation Energy    =      -1.7041468956935755 [Eh]
	 SCS Total Energy          =    -401.7882785939551127 [Eh]
	-----------------------------------------------------------

  Dipole Moment: [D]
     X:     3.1341      Y:     3.1739      Z:    -1.0501     Total:     4.5825

*** Psi4 exiting successfully. Buy a developer a beer!
