                               Psi4 1.4a3.dev225

  ==> Input File <==

--------------------------------------------------------------------------
#psi4
#
memory 32 gb

molecule  {
0 1
  O       -1.5707600    -1.5123310    -0.2332890
  O        0.1382410     1.6075510    -0.3059650
  N        0.6999210    -0.4896500     0.4239600
  C       -1.5456480    -0.0933390    -0.4361750
  C        2.0783650    -0.1398720     0.7271540
  C       -0.1595425     0.4332036    -0.1200884
  C       -2.5680410     0.6261290     0.4306590
  C        2.9727550    -0.1683320    -0.5071050
  H       -1.7217520     0.1422920    -1.4952760
  H        2.0695770     0.8628690     1.1612900
  H        2.4371510    -0.8367210     1.4904630
  H        0.3848370    -1.4513440     0.4597870
  H       -2.3944150     0.3774590     1.4809910
  H       -3.5869010     0.3276930     0.1608950
  H       -2.4702460     1.7050790     0.2962630
  H        2.9788310    -1.1637080    -0.9596270
  H        2.6039680     0.5505970    -1.2414500
  H        4.0012360     0.0983730    -0.2444710
  H       -2.4840080    -1.8129070    -0.3767550
units angstrom
no_reorient  #important for SAPT in psi4, default
symmetry c1  #important for SAPT in psi4, default
}

set PROPERTIES_ORIGIN ["COM"]
properties('MP2/aug-cc-pvtz', properties = ['dipole'])
--------------------------------------------------------------------------

    Molecular point group: c1
  Charge       = 0
  Multiplicity = 1
  Basis Set: AUG-CC-PVTZ
    Blend: AUG-CC-PVTZ
  Basis Set: (AUG-CC-PVTZ AUX)
    Blend: AUG-CC-PVTZ-JKFIT

    Orbital Energies [Eh]
    ---------------------

    Doubly Occupied:

       1A    -20.582217     2A    -20.514288     3A    -15.574610
       4A    -11.344984     5A    -11.302107     6A    -11.257991
       7A    -11.230381     8A    -11.210707     9A     -1.390229
      10A     -1.366078    11A     -1.219181    12A     -1.047148
      13A     -1.007470    14A     -0.903021    15A     -0.841489
      16A     -0.771539    17A     -0.717164    18A     -0.699326
      19A     -0.643227    20A     -0.632115    21A     -0.611820
      22A     -0.588813    23A     -0.582119    24A     -0.559312
      25A     -0.541001    26A     -0.525708    27A     -0.520309
      28A     -0.510161    29A     -0.489605    30A     -0.461778
      31A     -0.417805    32A     -0.382629

  @DF-RHF Final Energy:  -400.08776416014405

   => Energetics <=

    Nuclear Repulsion Energy =            399.8936843992573245
    One-Electron Energy =               -1339.0702327548349331
    Two-Electron Energy =                 539.0887841954335045
    Total Energy =                       -400.0877641601440473
  Basis Set: (AUG-CC-PVTZ AUX)
    Blend: AUG-CC-PVTZ-RI
    Molecular point group: c1

    Geometry (in Angstrom), charge = 0, multiplicity = 1:

       Center              X                  Y                   Z               Mass
    ------------   -----------------  -----------------  -----------------  -----------------
         O           -1.554148944156    -1.523863345712    -0.226307350017    15.994914619570
         O            0.154852055844     1.596018654288    -0.298983350017    15.994914619570
         N            0.716532055844    -0.501182345712     0.430941649983    14.003074004430
         C           -1.529036944156    -0.104871345712    -0.429193350017    12.000000000000
         C            2.094976055844    -0.151404345712     0.734135649983    12.000000000000
         C           -0.142931444156     0.421671254288    -0.113106750017    12.000000000000
         C           -2.551429944156     0.614596654288     0.437640649983    12.000000000000
         C            2.989366055844    -0.179864345712    -0.500123350017    12.000000000000
         H           -1.705140944156     0.130759654288    -1.488294350017     1.007825032230
         H            2.086188055844     0.851336654288     1.168271649983     1.007825032230
         H            2.453762055844    -0.848253345712     1.497444649983     1.007825032230
         H            0.401448055844    -1.462876345712     0.466768649983     1.007825032230
         H           -2.377803944156     0.365926654288     1.487972649983     1.007825032230
         H           -3.570289944156     0.316160654288     0.167876649983     1.007825032230
         H           -2.453634944156     1.693546654288     0.303244649983     1.007825032230
         H            2.995442055844    -1.175240345712    -0.952645350017     1.007825032230
         H            2.620579055844     0.539064654288    -1.234468350017     1.007825032230
         H            4.017847055844     0.086840654288    -0.237489350017     1.007825032230
         H           -2.467396944156    -1.824439345712    -0.369773350017     1.007825032230

  Basis Set: AUG-CC-PVTZ
    Blend: AUG-CC-PVTZ
  Basis Set: (AUG-CC-PVTZ AUX)
    Blend: AUG-CC-PVTZ-JKFIT
	 Reference Energy          =    -400.0877641601440473 [Eh]
	 Singles Energy            =      -0.0000000000000000 [Eh]
	 Same-Spin Energy          =      -0.4015017532239527 [Eh]
	 Opposite-Spin Energy      =      -1.3072836437751376 [Eh]
	 Correlation Energy        =      -1.7087853969990903 [Eh]
	 Total Energy              =    -401.7965495571431234 [Eh]

	 ================> DF-SCS-MP2 Energies <==================
	-----------------------------------------------------------
	 SCS Same-Spin Scale       =       0.3333333333333333 [-]
	 SCS Opposite-Spin Scale   =       1.2000000000000000 [-]
	 SCS Same-Spin Energy      =      -0.1338339177413175 [Eh]
	 SCS Opposite-Spin Energy  =      -1.5687403725301652 [Eh]
	 SCS Correlation Energy    =      -1.7025742902714827 [Eh]
	 SCS Total Energy          =    -401.7903384504155042 [Eh]
	-----------------------------------------------------------

  Dipole Moment: [D]
     X:    -1.2738      Y:    -2.6474      Z:     0.4247     Total:     2.9684

*** Psi4 exiting successfully. Buy a developer a beer!
