                               Psi4 1.4a3.dev225

  ==> Input File <==

--------------------------------------------------------------------------
#psi4
#
memory 32 gb

molecule  {
0 1
  O       -1.5707600    -1.5123310    -0.2332890
  O        0.1382410     1.6075510    -0.3059650
  N        0.6999210    -0.4896500     0.4239600
  C       -1.5456480    -0.0933390    -0.4361750
  C        2.0783650    -0.1398720     0.7271540
  C       -0.1516399     0.4005582    -0.1090322
  C       -2.5680410     0.6261290     0.4306590
  C        2.9727550    -0.1683320    -0.5071050
  H       -1.7217520     0.1422920    -1.4952760
  H        2.0695770     0.8628690     1.1612900
  H        2.4371510    -0.8367210     1.4904630
  H        0.3848370    -1.4513440     0.4597870
  H       -2.3944150     0.3774590     1.4809910
  H       -3.5869010     0.3276930     0.1608950
  H       -2.4702460     1.7050790     0.2962630
  H        2.9788310    -1.1637080    -0.9596270
  H        2.6039680     0.5505970    -1.2414500
  H        4.0012360     0.0983730    -0.2444710
  H       -2.4840080    -1.8129070    -0.3767550
units angstrom
no_reorient  #important for SAPT in psi4, default
symmetry c1  #important for SAPT in psi4, default
}

set PROPERTIES_ORIGIN ["COM"]
properties('MP2/aug-cc-pvtz', properties = ['dipole'])
--------------------------------------------------------------------------

    Molecular point group: c1
  Charge       = 0
  Multiplicity = 1
  Basis Set: AUG-CC-PVTZ
    Blend: AUG-CC-PVTZ
  Basis Set: (AUG-CC-PVTZ AUX)
    Blend: AUG-CC-PVTZ-JKFIT

    Orbital Energies [Eh]
    ---------------------

    Doubly Occupied:

       1A    -20.582083     2A    -20.506120     3A    -15.581393
       4A    -11.343742     5A    -11.302388     6A    -11.261348
       7A    -11.229844     8A    -11.212709     9A     -1.388340
      10A     -1.349539    11A     -1.226774    12A     -1.046946
      13A     -1.011813    14A     -0.904397    15A     -0.845445
      16A     -0.777532    17A     -0.719234    18A     -0.696498
      19A     -0.643378    20A     -0.634490    21A     -0.608898
      22A     -0.586904    23A     -0.580427    24A     -0.559467
      25A     -0.539008    26A     -0.525432    27A     -0.519125
      28A     -0.506114    29A     -0.490813    30A     -0.461156
      31A     -0.414633    32A     -0.383794

  @DF-RHF Final Energy:  -400.08593605194687

   => Energetics <=

    Nuclear Repulsion Energy =            399.9491548342328429
    One-Electron Energy =               -1339.1906090466559363
    Two-Electron Energy =                 539.1555181604762765
    Total Energy =                       -400.0859360519468737
  Basis Set: (AUG-CC-PVTZ AUX)
    Blend: AUG-CC-PVTZ-RI
    Molecular point group: c1

    Geometry (in Angstrom), charge = 0, multiplicity = 1:

       Center              X                  Y                   Z               Mass
    ------------   -----------------  -----------------  -----------------  -----------------
         O           -1.554958920474    -1.520517358202    -0.227440554300    15.994914619570
         O            0.154042079526     1.599364641798    -0.300116554300    15.994914619570
         N            0.715722079526    -0.497836358202     0.429808445700    14.003074004430
         C           -1.529846920474    -0.101525358202    -0.430326554300    12.000000000000
         C            2.094166079526    -0.148058358202     0.733002445700    12.000000000000
         C           -0.135838820474     0.392371841798    -0.103183754300    12.000000000000
         C           -2.552239920474     0.617942641798     0.436507445700    12.000000000000
         C            2.988556079526    -0.176518358202    -0.501256554300    12.000000000000
         H           -1.705950920474     0.134105641798    -1.489427554300     1.007825032230
         H            2.085378079526     0.854682641798     1.167138445700     1.007825032230
         H            2.452952079526    -0.844907358202     1.496311445700     1.007825032230
         H            0.400638079526    -1.459530358202     0.465635445700     1.007825032230
         H           -2.378613920474     0.369272641798     1.486839445700     1.007825032230
         H           -3.571099920474     0.319506641798     0.166743445700     1.007825032230
         H           -2.454444920474     1.696892641798     0.302111445700     1.007825032230
         H            2.994632079526    -1.171894358202    -0.953778554300     1.007825032230
         H            2.619769079526     0.542410641798    -1.235601554300     1.007825032230
         H            4.017037079526     0.090186641798    -0.238622554300     1.007825032230
         H           -2.468206920474    -1.821093358202    -0.370906554300     1.007825032230

  Basis Set: AUG-CC-PVTZ
    Blend: AUG-CC-PVTZ
  Basis Set: (AUG-CC-PVTZ AUX)
    Blend: AUG-CC-PVTZ-JKFIT
	 Reference Energy          =    -400.0859360519468737 [Eh]
	 Singles Energy            =      -0.0000000000000000 [Eh]
	 Same-Spin Energy          =      -0.4019630911706599 [Eh]
	 Opposite-Spin Energy      =      -1.3081759209084685 [Eh]
	 Correlation Energy        =      -1.7101390120791282 [Eh]
	 Total Energy              =    -401.7960750640260130 [Eh]

	 ================> DF-SCS-MP2 Energies <==================
	-----------------------------------------------------------
	 SCS Same-Spin Scale       =       0.3333333333333333 [-]
	 SCS Opposite-Spin Scale   =       1.2000000000000000 [-]
	 SCS Same-Spin Energy      =      -0.1339876970568866 [Eh]
	 SCS Opposite-Spin Energy  =      -1.5698111050901622 [Eh]
	 SCS Correlation Energy    =      -1.7037988021470487 [Eh]
	 SCS Total Energy          =    -401.7897348540939220 [Eh]
	-----------------------------------------------------------

  Dipole Moment: [D]
     X:    -1.1445      Y:    -2.8877      Z:     0.5132     Total:     3.1483

*** Psi4 exiting successfully. Buy a developer a beer!
