                               Psi4 1.3.2 release

  ==> Input File <==

--------------------------------------------------------------------------
#psi4
#
memory 32 gb

molecule  {
0 1
  O       -2.5548121    -0.4786887     0.0205801
  O       -0.0903380    -1.4616610     0.1717700
  N        0.9259230     0.4056680    -0.6455280
  C       -1.5147550     0.4028960    -0.3432490
  C        2.2711600    -0.1378510    -0.5222970
  C       -0.1349439    -0.2523549    -0.2632668
  C       -1.5844930     1.6236140     0.5658530
  C        2.8531060     0.0659690     0.8699860
  H       -1.6669500     0.7105100    -1.3901450
  H        2.2044940    -1.2028750    -0.7525030
  H        2.8934660     0.3357800    -1.2867330
  H        0.8101310     1.3771570    -0.9023240
  H       -1.3564630     1.3269670     1.5921410
  H       -2.5982940     2.0269070     0.5395510
  H       -0.8919110     2.4138320     0.2596650
  H        2.9042670     1.1289430     1.1200310
  H        2.2261210    -0.4398610     1.6074960
  H        3.8631580    -0.3501450     0.9292180
  H       -2.0326010    -1.3422410     0.2291570
units angstrom
no_reorient  #important for SAPT in psi4, default
symmetry c1  #important for SAPT in psi4, default
}

set PROPERTIES_ORIGIN ["COM"]
properties('MP2/aug-cc-pvtz', properties = ['dipole'])
--------------------------------------------------------------------------

    Molecular point group: c1
  Charge       = 0
  Multiplicity = 1
  Basis Set: AUG-CC-PVTZ
    Blend: AUG-CC-PVTZ
  Basis Set: (AUG-CC-PVTZ AUX)
    Blend: AUG-CC-PVTZ-JKFIT

    Orbital Energies [Eh]
    ---------------------

    Doubly Occupied:

       1A    -20.551364     2A    -20.523280     3A    -15.609714
       4A    -11.359052     5A    -11.297692     6A    -11.279524
       7A    -11.230080     8A    -11.228065     9A     -1.378708
      10A     -1.335579    11A     -1.254919    12A     -1.056754
      13A     -1.016132    14A     -0.906618    15A     -0.852389
      16A     -0.805261    17A     -0.737175    18A     -0.677396
      19A     -0.649148    20A     -0.633956    21A     -0.614665
      22A     -0.597219    23A     -0.572093    24A     -0.561166
      25A     -0.546603    26A     -0.534775    27A     -0.517252
      28A     -0.507787    29A     -0.502402    30A     -0.441853
      31A     -0.430863    32A     -0.406261

  @DF-RHF Final Energy:  -400.07472020547743

   => Energetics <=

    Nuclear Repulsion Energy =            399.8306729178465275
    One-Electron Energy =               -1338.5793022935190493
    Two-Electron Energy =                 538.6739091701950883
    Total Energy =                       -400.0747202054774334
  Basis Set: (AUG-CC-PVTZ AUX)
    Blend: AUG-CC-PVTZ-RI
    Molecular point group: c1

    Geometry (in Angstrom), charge = 0, multiplicity = 1:

       Center              X                  Y                   Z               Mass
    ------------   -----------------  -----------------  -----------------  -----------------
         O           -2.552615777770    -0.488117848335     0.023293315561    15.994914619570
         O           -0.088141677770    -1.471090148335     0.174483215561    15.994914619570
         N            0.928119322230     0.396238851665    -0.642814784439    14.003074004430
         C           -1.512558677770     0.393466851665    -0.340535784439    12.000000000000
         C            2.273356322230    -0.147280148335    -0.519583784439    12.000000000000
         C           -0.132747577770    -0.261784048335    -0.260553584439    12.000000000000
         C           -1.582296677770     1.614184851665     0.568566215561    12.000000000000
         C            2.855302322230     0.056539851665     0.872699215561    12.000000000000
         H           -1.664753677770     0.701080851665    -1.387431784439     1.007825032230
         H            2.206690322230    -1.212304148335    -0.749789784439     1.007825032230
         H            2.895662322230     0.326350851665    -1.284019784439     1.007825032230
         H            0.812327322230     1.367727851665    -0.899610784439     1.007825032230
         H           -1.354266677770     1.317537851665     1.594854215561     1.007825032230
         H           -2.596097677770     2.017477851665     0.542264215561     1.007825032230
         H           -0.889714677770     2.404402851665     0.262378215561     1.007825032230
         H            2.906463322230     1.119513851665     1.122744215561     1.007825032230
         H            2.228317322230    -0.449290148335     1.610209215561     1.007825032230
         H            3.865354322230    -0.359574148335     0.931931215561     1.007825032230
         H           -2.030404677770    -1.351670148335     0.231870215561     1.007825032230

  Basis Set: AUG-CC-PVTZ
    Blend: AUG-CC-PVTZ
  Basis Set: (AUG-CC-PVTZ AUX)
    Blend: AUG-CC-PVTZ-JKFIT
	 Reference Energy          =    -400.0747202054774334 [Eh]
	 Singles Energy            =      -0.0000000000000000 [Eh]
	 Same-Spin Energy          =      -0.4037773192517125 [Eh]
	 Opposite-Spin Energy      =      -1.3109702200778446 [Eh]
	 Correlation Energy        =      -1.7147475393295570 [Eh]
	 Total Energy              =    -401.7894677448069842 [Eh]

	 ================> DF-SCS-MP2 Energies <==================
	-----------------------------------------------------------
	 SCS Same-Spin Scale       =       0.3333333333333333 [-]
	 SCS Opposite-Spin Scale   =       1.2000000000000000 [-]
	 SCS Same-Spin Energy      =      -0.1345924397505708 [Eh]
	 SCS Opposite-Spin Energy  =      -1.5731642640934134 [Eh]
	 SCS Correlation Energy    =      -1.7077567038439843 [Eh]
	 SCS Total Energy          =    -401.7824769093214172 [Eh]
	-----------------------------------------------------------

  Dipole Moment: [D]
     X:     3.4758      Y:     3.3908      Z:    -1.1513     Total:     4.9904

*** Psi4 exiting successfully. Buy a developer a beer!
