                               Psi4 1.3.2 release

  ==> Input File <==

--------------------------------------------------------------------------
#psi4
#
memory 32 gb

molecule  {
0 1
  O       -2.5211540    -0.5137840     0.0284240
  O       -0.0903380    -1.4616610     0.1717700
  N        0.9259230     0.4056680    -0.6455280
  C       -1.5147550     0.4028960    -0.3432490
  C        2.2984603    -0.0691793    -0.5410156
  C       -0.1583790    -0.2975740    -0.2472510
  C       -1.5844930     1.6236140     0.5658530
  C        2.8531060     0.0659690     0.8699860
  H       -1.6669500     0.7105100    -1.3901450
  H        2.2044940    -1.2028750    -0.7525030
  H        2.8934660     0.3357800    -1.2867330
  H        0.8628734     1.3814737    -0.9043151
  H       -1.3564630     1.3269670     1.5921410
  H       -2.5982940     2.0269070     0.5395510
  H       -0.8919110     2.4138320     0.2596650
  H        2.9042670     1.1289430     1.1200310
  H        2.2261210    -0.4398610     1.6074960
  H        3.8631580    -0.3501450     0.9292180
  H       -2.0326010    -1.3422410     0.2291570
units angstrom
no_reorient  #important for SAPT in psi4, default
symmetry c1  #important for SAPT in psi4, default
}

set PROPERTIES_ORIGIN ["COM"]
properties('MP2/aug-cc-pvtz', properties = ['dipole'])
--------------------------------------------------------------------------

    Molecular point group: c1
  Charge       = 0
  Multiplicity = 1
  Basis Set: AUG-CC-PVTZ
    Blend: AUG-CC-PVTZ
  Basis Set: (AUG-CC-PVTZ AUX)
    Blend: AUG-CC-PVTZ-JKFIT

    Orbital Energies [Eh]
    ---------------------

    Doubly Occupied:

       1A    -20.548595     2A    -20.534235     3A    -15.599076
       4A    -11.361594     5A    -11.298457     6A    -11.273474
       7A    -11.230943     8A    -11.224903     9A     -1.398470
      10A     -1.346754    11A     -1.246058    12A     -1.053000
      13A     -1.012813    14A     -0.904962    15A     -0.850601
      16A     -0.793716    17A     -0.745851    18A     -0.676857
      19A     -0.654770    20A     -0.641366    21A     -0.610946
      22A     -0.594261    23A     -0.576283    24A     -0.562939
      25A     -0.543521    26A     -0.536297    27A     -0.528848
      28A     -0.514163    29A     -0.489477    30A     -0.446000
      31A     -0.437020    32A     -0.402924

  @DF-RHF Final Energy:  -400.07957521347180

   => Energetics <=

    Nuclear Repulsion Energy =            400.0423149014702062
    One-Electron Energy =               -1338.9654393810205875
    Two-Electron Energy =                 538.8435492660785258
    Total Energy =                       -400.0795752134717986
  Basis Set: (AUG-CC-PVTZ AUX)
    Blend: AUG-CC-PVTZ-RI
    Molecular point group: c1

    Geometry (in Angstrom), charge = 0, multiplicity = 1:

       Center              X                  Y                   Z               Mass
    ------------   -----------------  -----------------  -----------------  -----------------
         O           -2.524406102025    -0.520859483723     0.030359772578    15.994914619570
         O           -0.093590102025    -1.468736483723     0.173705772578    15.994914619570
         N            0.922670897975     0.398592516277    -0.643592227422    14.003074004430
         C           -1.518007102025     0.395820516277    -0.341313227422    12.000000000000
         C            2.295208197975    -0.076254783723    -0.539079827422    12.000000000000
         C           -0.161631102025    -0.304649483723    -0.245315227422    12.000000000000
         C           -1.587745102025     1.616538516277     0.567788772578    12.000000000000
         C            2.849853897975     0.058893516277     0.871921772578    12.000000000000
         H           -1.670202102025     0.703434516277    -1.388209227422     1.007825032230
         H            2.201241897975    -1.209950483723    -0.750567227422     1.007825032230
         H            2.890213897975     0.328704516277    -1.284797227422     1.007825032230
         H            0.859621297975     1.374398216277    -0.902379327422     1.007825032230
         H           -1.359715102025     1.319891516277     1.594076772578     1.007825032230
         H           -2.601546102025     2.019831516277     0.541486772578     1.007825032230
         H           -0.895163102025     2.406756516277     0.261600772578     1.007825032230
         H            2.901014897975     1.121867516277     1.121966772578     1.007825032230
         H            2.222868897975    -0.446936483723     1.609431772578     1.007825032230
         H            3.859905897975    -0.357220483723     0.931153772578     1.007825032230
         H           -2.035853102025    -1.349316483723     0.231092772578     1.007825032230

  Basis Set: AUG-CC-PVTZ
    Blend: AUG-CC-PVTZ
  Basis Set: (AUG-CC-PVTZ AUX)
    Blend: AUG-CC-PVTZ-JKFIT
	 Reference Energy          =    -400.0795752134717986 [Eh]
	 Singles Energy            =      -0.0000000000000000 [Eh]
	 Same-Spin Energy          =      -0.4023747668317783 [Eh]
	 Opposite-Spin Energy      =      -1.3082747183160250 [Eh]
	 Correlation Energy        =      -1.7106494851478034 [Eh]
	 Total Energy              =    -401.7902246986196246 [Eh]

	 ================> DF-SCS-MP2 Energies <==================
	-----------------------------------------------------------
	 SCS Same-Spin Scale       =       0.3333333333333333 [-]
	 SCS Opposite-Spin Scale   =       1.2000000000000000 [-]
	 SCS Same-Spin Energy      =      -0.1341249222772594 [Eh]
	 SCS Opposite-Spin Energy  =      -1.5699296619792300 [Eh]
	 SCS Correlation Energy    =      -1.7040545842564894 [Eh]
	 SCS Total Energy          =    -401.7836297977282811 [Eh]
	-----------------------------------------------------------

  Dipole Moment: [D]
     X:     3.1317      Y:     3.2186      Z:    -1.0556     Total:     4.6132

*** Psi4 exiting successfully. Buy a developer a beer!
