                               Psi4 1.3.2 release

  ==> Input File <==

--------------------------------------------------------------------------
#psi4
#
memory 32 gb

molecule  {
0 1
  O       -2.5211540    -0.5137840     0.0284240
  O       -0.0903380    -1.4616610     0.1717700
  N        0.9259230     0.4056680    -0.6455280
  C       -1.5147550     0.4028960    -0.3432490
  C        2.2711600    -0.1378510    -0.5222970
  C       -0.1717527    -0.3081704    -0.1690102
  C       -1.5844930     1.6236140     0.5658530
  C        2.8531060     0.0659690     0.8699860
  H       -1.7179238     0.7326122    -1.3746512
  H        2.2044940    -1.2028750    -0.7525030
  H        2.8934660     0.3357800    -1.2867330
  H        0.8101310     1.3771570    -0.9023240
  H       -1.3564630     1.3269670     1.5921410
  H       -2.5982940     2.0269070     0.5395510
  H       -0.8919110     2.4138320     0.2596650
  H        2.9042670     1.1289430     1.1200310
  H        2.2261210    -0.4398610     1.6074960
  H        3.8631580    -0.3501450     0.9292180
  H       -2.0326010    -1.3422410     0.2291570
units angstrom
no_reorient  #important for SAPT in psi4, default
symmetry c1  #important for SAPT in psi4, default
}

set PROPERTIES_ORIGIN ["COM"]
properties('MP2/aug-cc-pvtz', properties = ['dipole'])
--------------------------------------------------------------------------

    Molecular point group: c1
  Charge       = 0
  Multiplicity = 1
  Basis Set: AUG-CC-PVTZ
    Blend: AUG-CC-PVTZ
  Basis Set: (AUG-CC-PVTZ AUX)
    Blend: AUG-CC-PVTZ-JKFIT

    Orbital Energies [Eh]
    ---------------------

    Doubly Occupied:

       1A    -20.549092     2A    -20.544013     3A    -15.590987
       4A    -11.361642     5A    -11.298021     6A    -11.269747
       7A    -11.230359     8A    -11.222341     9A     -1.418453
      10A     -1.352330    11A     -1.234750    12A     -1.050571
      13A     -1.009193    14A     -0.898812    15A     -0.845414
      16A     -0.786333    17A     -0.749708    18A     -0.678510
      19A     -0.650960    20A     -0.644684    21A     -0.611257
      22A     -0.599779    23A     -0.576351    24A     -0.562755
      25A     -0.543096    26A     -0.535277    27A     -0.526252
      28A     -0.520723    29A     -0.501746    30A     -0.445735
      31A     -0.439548    32A     -0.400230

  @DF-RHF Final Energy:  -400.08385010704382

   => Energetics <=

    Nuclear Repulsion Energy =            400.5856440000677594
    One-Electron Energy =               -1340.0416530834152127
    Two-Electron Energy =                 539.3721589763036945
    Total Energy =                       -400.0838501070437587
  Basis Set: (AUG-CC-PVTZ AUX)
    Blend: AUG-CC-PVTZ-RI
    Molecular point group: c1

    Geometry (in Angstrom), charge = 0, multiplicity = 1:

       Center              X                  Y                   Z               Mass
    ------------   -----------------  -----------------  -----------------  -----------------
         O           -2.519344426652    -0.512888005503     0.020271415692    15.994914619570
         O           -0.088528426652    -1.460765005503     0.163617415692    15.994914619570
         N            0.927732573348     0.406563994497    -0.653680584308    14.003074004430
         C           -1.512945426652     0.403791994497    -0.351401584308    12.000000000000
         C            2.272969573348    -0.136955005503    -0.530449584308    12.000000000000
         C           -0.169943126652    -0.307274405503    -0.177162784308    12.000000000000
         C           -1.582683426652     1.624509994497     0.557700415692    12.000000000000
         C            2.854915573348     0.066864994497     0.861833415692    12.000000000000
         H           -1.716114226652     0.733508194497    -1.382803784308     1.007825032230
         H            2.206303573348    -1.201979005503    -0.760655584308     1.007825032230
         H            2.895275573348     0.336675994497    -1.294885584308     1.007825032230
         H            0.811940573348     1.378052994497    -0.910476584308     1.007825032230
         H           -1.354653426652     1.327862994497     1.583988415692     1.007825032230
         H           -2.596484426652     2.027802994497     0.531398415692     1.007825032230
         H           -0.890101426652     2.414727994497     0.251512415692     1.007825032230
         H            2.906076573348     1.129838994497     1.111878415692     1.007825032230
         H            2.227930573348    -0.438965005503     1.599343415692     1.007825032230
         H            3.864967573348    -0.349249005503     0.921065415692     1.007825032230
         H           -2.030791426652    -1.341345005503     0.221004415692     1.007825032230

  Basis Set: AUG-CC-PVTZ
    Blend: AUG-CC-PVTZ
  Basis Set: (AUG-CC-PVTZ AUX)
    Blend: AUG-CC-PVTZ-JKFIT
	 Reference Energy          =    -400.0838501070438156 [Eh]
	 Singles Energy            =      -0.0000000000000000 [Eh]
	 Same-Spin Energy          =      -0.4017368831384918 [Eh]
	 Opposite-Spin Energy      =      -1.3071779169533966 [Eh]
	 Correlation Energy        =      -1.7089148000918883 [Eh]
	 Total Energy              =    -401.7927649071356768 [Eh]

	 ================> DF-SCS-MP2 Energies <==================
	-----------------------------------------------------------
	 SCS Same-Spin Scale       =       0.3333333333333333 [-]
	 SCS Opposite-Spin Scale   =       1.2000000000000000 [-]
	 SCS Same-Spin Energy      =      -0.1339122943794973 [Eh]
	 SCS Opposite-Spin Energy  =      -1.5686135003440758 [Eh]
	 SCS Correlation Energy    =      -1.7025257947235730 [Eh]
	 SCS Total Energy          =    -401.7863759017673715 [Eh]
	-----------------------------------------------------------

  Dipole Moment: [D]
     X:     2.8677      Y:     2.9516      Z:    -0.9137     Total:     4.2155

*** Psi4 exiting successfully. Buy a developer a beer!
