                               Psi4 1.3.2 release

  ==> Input File <==

--------------------------------------------------------------------------
#psi4
#
memory 32 gb

molecule  {
0 1
  O       -2.5211540    -0.5137840     0.0284240
  O       -0.0903380    -1.4616610     0.1717700
  N        0.9259230     0.4056680    -0.6455280
  C       -1.5210839     0.4182766    -0.3639982
  C        2.2711600    -0.1378510    -0.5222970
  C       -0.1583790    -0.2975740    -0.2472510
  C       -1.5844930     1.6236140     0.5658530
  C        2.8531060     0.0659690     0.8699860
  H       -1.6669500     0.7105100    -1.3901450
  H        2.2044940    -1.2028750    -0.7525030
  H        2.8934660     0.3357800    -1.2867330
  H        0.8101310     1.3771570    -0.9023240
  H       -1.3588308     1.3450446     1.5977153
  H       -2.5982940     2.0269070     0.5395510
  H       -0.8919110     2.4138320     0.2596650
  H        2.9042670     1.1289430     1.1200310
  H        2.2261210    -0.4398610     1.6074960
  H        3.8631580    -0.3501450     0.9292180
  H       -2.0326010    -1.3422410     0.2291570
units angstrom
no_reorient  #important for SAPT in psi4, default
symmetry c1  #important for SAPT in psi4, default
}

set PROPERTIES_ORIGIN ["COM"]
properties('MP2/aug-cc-pvtz', properties = ['dipole'])
--------------------------------------------------------------------------

    Molecular point group: c1
  Charge       = 0
  Multiplicity = 1
  Basis Set: AUG-CC-PVTZ
    Blend: AUG-CC-PVTZ
  Basis Set: (AUG-CC-PVTZ AUX)
    Blend: AUG-CC-PVTZ-JKFIT

    Orbital Energies [Eh]
    ---------------------

    Doubly Occupied:

       1A    -20.546777     2A    -20.533608     3A    -15.598568
       4A    -11.359509     5A    -11.297997     6A    -11.273543
       7A    -11.231572     8A    -11.224269     9A     -1.396584
      10A     -1.342510    11A     -1.245793    12A     -1.052600
      13A     -1.013021    14A     -0.902150    15A     -0.850080
      16A     -0.794778    17A     -0.742063    18A     -0.677403
      19A     -0.650076    20A     -0.641367    21A     -0.610696
      22A     -0.599127    23A     -0.575895    24A     -0.563103
      25A     -0.542377    26A     -0.535673    27A     -0.520939
      28A     -0.513033    29A     -0.501992    30A     -0.448533
      31A     -0.434786    32A     -0.403583

  @DF-RHF Final Energy:  -400.08688995188663

   => Energetics <=

    Nuclear Repulsion Energy =            400.0679317966561257
    One-Electron Energy =               -1339.0616265714554629
    Two-Electron Energy =                 538.9068048229127044
    Total Energy =                       -400.0868899518866328
  Basis Set: (AUG-CC-PVTZ AUX)
    Blend: AUG-CC-PVTZ-RI
    Molecular point group: c1

    Geometry (in Angstrom), charge = 0, multiplicity = 1:

       Center              X                  Y                   Z               Mass
    ------------   -----------------  -----------------  -----------------  -----------------
         O           -2.520484887093    -0.515515871846     0.030502775197    15.994914619570
         O           -0.089668887093    -1.463392871846     0.173848775197    15.994914619570
         N            0.926592112907     0.403936128154    -0.643449224803    14.003074004430
         C           -1.520414787093     0.416544728154    -0.361919424803    12.000000000000
         C            2.271829112907    -0.139582871846    -0.520218224803    12.000000000000
         C           -0.157709887093    -0.299305871846    -0.245172224803    12.000000000000
         C           -1.583823887093     1.621882128154     0.567931775197    12.000000000000
         C            2.853775112907     0.064237128154     0.872064775197    12.000000000000
         H           -1.666280887093     0.708778128154    -1.388066224803     1.007825032230
         H            2.205163112907    -1.204606871846    -0.750424224803     1.007825032230
         H            2.894135112907     0.334048128154    -1.284654224803     1.007825032230
         H            0.810800112907     1.375425128154    -0.900245224803     1.007825032230
         H           -1.358161687093     1.343312728154     1.599794075197     1.007825032230
         H           -2.597624887093     2.025175128154     0.541629775197     1.007825032230
         H           -0.891241887093     2.412100128154     0.261743775197     1.007825032230
         H            2.904936112907     1.127211128154     1.122109775197     1.007825032230
         H            2.226790112907    -0.441592871846     1.609574775197     1.007825032230
         H            3.863827112907    -0.351876871846     0.931296775197     1.007825032230
         H           -2.031931887093    -1.343972871846     0.231235775197     1.007825032230

  Basis Set: AUG-CC-PVTZ
    Blend: AUG-CC-PVTZ
  Basis Set: (AUG-CC-PVTZ AUX)
    Blend: AUG-CC-PVTZ-JKFIT
	 Reference Energy          =    -400.0868899518866328 [Eh]
	 Singles Energy            =      -0.0000000000000000 [Eh]
	 Same-Spin Energy          =      -0.4020493636277758 [Eh]
	 Opposite-Spin Energy      =      -1.3077451754755807 [Eh]
	 Correlation Energy        =      -1.7097945391033564 [Eh]
	 Total Energy              =    -401.7966844909900033 [Eh]

	 ================> DF-SCS-MP2 Energies <==================
	-----------------------------------------------------------
	 SCS Same-Spin Scale       =       0.3333333333333333 [-]
	 SCS Opposite-Spin Scale   =       1.2000000000000000 [-]
	 SCS Same-Spin Energy      =      -0.1340164545425919 [Eh]
	 SCS Opposite-Spin Energy  =      -1.5692942105706968 [Eh]
	 SCS Correlation Energy    =      -1.7033106651132888 [Eh]
	 SCS Total Energy          =    -401.7902006169999254 [Eh]
	-----------------------------------------------------------

  Dipole Moment: [D]
     X:     3.1213      Y:     3.2038      Z:    -1.0725     Total:     4.5997

*** Psi4 exiting successfully. Buy a developer a beer!
