                               Psi4 1.4a3.dev225

  ==> Input File <==

--------------------------------------------------------------------------
#psi4
#
memory 32 gb

molecule  {
0 1
  O       -1.5707600    -1.5123310    -0.2332890
  O        0.1382410     1.6075510    -0.3059650
  N        0.6999210    -0.4896500     0.4239600
  C       -1.5456480    -0.0933390    -0.4361750
  C        2.0783650    -0.1398720     0.7271540
  C       -0.1470270     0.4197650    -0.1121660
  C       -2.5545999     0.6166703     0.4192630
  C        2.9727550    -0.1683320    -0.5071050
  H       -1.7217520     0.1422920    -1.4952760
  H        2.0695770     0.8628690     1.1612900
  H        2.4371510    -0.8367210     1.4904630
  H        0.3848370    -1.4513440     0.4597870
  H       -2.3944150     0.3774590     1.4809910
  H       -3.5869010     0.3276930     0.1608950
  H       -2.4702460     1.7050790     0.2962630
  H        2.9788310    -1.1637080    -0.9596270
  H        2.6039680     0.5505970    -1.2414500
  H        4.0012360     0.0983730    -0.2444710
  H       -2.4840080    -1.8129070    -0.3767550
units angstrom
no_reorient  #important for SAPT in psi4, default
symmetry c1  #important for SAPT in psi4, default
}

set PROPERTIES_ORIGIN ["COM"]
properties('MP2/aug-cc-pvtz', properties = ['dipole'])
--------------------------------------------------------------------------

    Molecular point group: c1
  Charge       = 0
  Multiplicity = 1
  Basis Set: AUG-CC-PVTZ
    Blend: AUG-CC-PVTZ
  Basis Set: (AUG-CC-PVTZ AUX)
    Blend: AUG-CC-PVTZ-JKFIT

    Orbital Energies [Eh]
    ---------------------

    Doubly Occupied:

       1A    -20.581471     2A    -20.510590     3A    -15.578336
       4A    -11.343908     5A    -11.300937     6A    -11.259912
       7A    -11.230073     8A    -11.212058     9A     -1.388908
      10A     -1.360024    11A     -1.225292    12A     -1.048167
      13A     -1.010621    14A     -0.901316    15A     -0.842890
      16A     -0.776129    17A     -0.718241    18A     -0.697596
      19A     -0.644582    20A     -0.633817    21A     -0.610177
      22A     -0.588501    23A     -0.582370    24A     -0.558674
      25A     -0.537300    26A     -0.524573    27A     -0.519419
      28A     -0.508120    29A     -0.490701    30A     -0.463286
      31A     -0.415618    32A     -0.384400

  @DF-RHF Final Energy:  -400.08735438565463

   => Energetics <=

    Nuclear Repulsion Energy =            400.2947556854432491
    One-Electron Energy =               -1339.8682101274951037
    Two-Electron Energy =                 539.4861000563971629
    Total Energy =                       -400.0873543856546348
  Basis Set: (AUG-CC-PVTZ AUX)
    Blend: AUG-CC-PVTZ-RI
    Molecular point group: c1

    Geometry (in Angstrom), charge = 0, multiplicity = 1:

       Center              X                  Y                   Z               Mass
    ------------   -----------------  -----------------  -----------------  -----------------
         O           -1.556809363675    -1.521516488887    -0.225951323679    15.994914619570
         O            0.152191636325     1.598365511113    -0.298627323679    15.994914619570
         N            0.713871636325    -0.498835488887     0.431297676321    14.003074004430
         C           -1.531697363675    -0.102524488887    -0.428837323679    12.000000000000
         C            2.092315636325    -0.149057488887     0.734491676321    12.000000000000
         C           -0.133076363675     0.410579511113    -0.104828323679    12.000000000000
         C           -2.540649263675     0.607484811113     0.426600676321    12.000000000000
         C            2.986705636325    -0.177517488887    -0.499767323679    12.000000000000
         H           -1.707801363675     0.133106511113    -1.487938323679     1.007825032230
         H            2.083527636325     0.853683511113     1.168627676321     1.007825032230
         H            2.451101636325    -0.845906488887     1.497800676321     1.007825032230
         H            0.398787636325    -1.460529488887     0.467124676321     1.007825032230
         H           -2.380464363675     0.368273511113     1.488328676321     1.007825032230
         H           -3.572950363675     0.318507511113     0.168232676321     1.007825032230
         H           -2.456295363675     1.695893511113     0.303600676321     1.007825032230
         H            2.992781636325    -1.172893488887    -0.952289323679     1.007825032230
         H            2.617918636325     0.541411511113    -1.234112323679     1.007825032230
         H            4.015186636325     0.089187511113    -0.237133323679     1.007825032230
         H           -2.470057363675    -1.822092488887    -0.369417323679     1.007825032230

  Basis Set: AUG-CC-PVTZ
    Blend: AUG-CC-PVTZ
  Basis Set: (AUG-CC-PVTZ AUX)
    Blend: AUG-CC-PVTZ-JKFIT
	 Reference Energy          =    -400.0873543856546348 [Eh]
	 Singles Energy            =      -0.0000000000000000 [Eh]
	 Same-Spin Energy          =      -0.4017405807593227 [Eh]
	 Opposite-Spin Energy      =      -1.3075765890610902 [Eh]
	 Correlation Energy        =      -1.7093171698204128 [Eh]
	 Total Energy              =    -401.7966715554750294 [Eh]

	 ================> DF-SCS-MP2 Energies <==================
	-----------------------------------------------------------
	 SCS Same-Spin Scale       =       0.3333333333333333 [-]
	 SCS Opposite-Spin Scale   =       1.2000000000000000 [-]
	 SCS Same-Spin Energy      =      -0.1339135269197742 [Eh]
	 SCS Opposite-Spin Energy  =      -1.5690919068733082 [Eh]
	 SCS Correlation Energy    =      -1.7030054337930824 [Eh]
	 SCS Total Energy          =    -401.7903598194477013 [Eh]
	-----------------------------------------------------------

  Dipole Moment: [D]
     X:    -1.1612      Y:    -2.7477      Z:     0.4809     Total:     3.0215

*** Psi4 exiting successfully. Buy a developer a beer!
