                               Psi4 1.3.2 release

  ==> Input File <==

--------------------------------------------------------------------------
#psi4
#
memory 32 gb

molecule  {
0 1
  O       -2.5211540    -0.5137840     0.0284240
  O       -0.0903380    -1.4616610     0.1717700
  N        0.9259230     0.4056680    -0.6455280
  C       -1.5147550     0.4028960    -0.3432490
  C        2.2711600    -0.1378510    -0.5222970
  C       -0.1583790    -0.2975740    -0.2472510
  C       -1.5844930     1.6236140     0.5658530
  C        2.8531060     0.0659690     0.8699860
  H       -1.6669500     0.7105100    -1.3901450
  H        2.2044940    -1.2028750    -0.7525030
  H        2.8934660     0.3357800    -1.2867330
  H        0.7872360     1.5692448    -0.9530990
  H       -1.3564630     1.3269670     1.5921410
  H       -2.5982940     2.0269070     0.5395510
  H       -0.8919110     2.4138320     0.2596650
  H        2.9042670     1.1289430     1.1200310
  H        2.2261210    -0.4398610     1.6074960
  H        3.8631580    -0.3501450     0.9292180
  H       -2.0326010    -1.3422410     0.2291570
units angstrom
no_reorient  #important for SAPT in psi4, default
symmetry c1  #important for SAPT in psi4, default
}

set PROPERTIES_ORIGIN ["COM"]
properties('MP2/aug-cc-pvtz', properties = ['dipole'])
--------------------------------------------------------------------------

    Molecular point group: c1
  Charge       = 0
  Multiplicity = 1
  Basis Set: AUG-CC-PVTZ
    Blend: AUG-CC-PVTZ
  Basis Set: (AUG-CC-PVTZ AUX)
    Blend: AUG-CC-PVTZ-JKFIT

    Orbital Energies [Eh]
    ---------------------

    Doubly Occupied:

       1A    -20.547756     2A    -20.532856     3A    -15.613894
       4A    -11.358738     5A    -11.297248     6A    -11.273813
       7A    -11.230928     8A    -11.223719     9A     -1.397081
      10A     -1.345732    11A     -1.229196    12A     -1.051622
      13A     -1.009499    14A     -0.901404    15A     -0.846786
      16A     -0.757753    17A     -0.739808    18A     -0.676034
      19A     -0.643306    20A     -0.640412    21A     -0.609217
      22A     -0.588729    23A     -0.574876    24A     -0.562182
      25A     -0.542558    26A     -0.534451    27A     -0.520288
      28A     -0.510863    29A     -0.500609    30A     -0.445337
      31A     -0.434890    32A     -0.400611

  @DF-RHF Final Energy:  -400.05723479485613

   => Energetics <=

    Nuclear Repulsion Energy =            399.4057259678596097
    One-Electron Energy =               -1337.8415284031784722
    Two-Electron Energy =                 538.3785676404628475
    Total Energy =                       -400.0572347948560719
  Basis Set: (AUG-CC-PVTZ AUX)
    Blend: AUG-CC-PVTZ-RI
    Molecular point group: c1

    Geometry (in Angstrom), charge = 0, multiplicity = 1:

       Center              X                  Y                   Z               Mass
    ------------   -----------------  -----------------  -----------------  -----------------
         O           -2.520956867415    -0.515437332003     0.028861146894    15.994914619570
         O           -0.090140867415    -1.463314332003     0.172207146894    15.994914619570
         N            0.926120132585     0.404014667997    -0.645090853106    14.003074004430
         C           -1.514557867415     0.401242667997    -0.342811853106    12.000000000000
         C            2.271357132585    -0.139504332003    -0.521859853106    12.000000000000
         C           -0.158181867415    -0.299227332003    -0.246813853106    12.000000000000
         C           -1.584295867415     1.621960667997     0.566290146894    12.000000000000
         C            2.853303132585     0.064315667997     0.870423146894    12.000000000000
         H           -1.666752867415     0.708856667997    -1.389707853106     1.007825032230
         H            2.204691132585    -1.204528332003    -0.752065853106     1.007825032230
         H            2.893663132585     0.334126667997    -1.286295853106     1.007825032230
         H            0.787433132585     1.567591467997    -0.952661853106     1.007825032230
         H           -1.356265867415     1.325313667997     1.592578146894     1.007825032230
         H           -2.598096867415     2.025253667997     0.539988146894     1.007825032230
         H           -0.891713867415     2.412178667997     0.260102146894     1.007825032230
         H            2.904464132585     1.127289667997     1.120468146894     1.007825032230
         H            2.226318132585    -0.441514332003     1.607933146894     1.007825032230
         H            3.863355132585    -0.351798332003     0.929655146894     1.007825032230
         H           -2.032403867415    -1.343894332003     0.229594146894     1.007825032230

  Basis Set: AUG-CC-PVTZ
    Blend: AUG-CC-PVTZ
  Basis Set: (AUG-CC-PVTZ AUX)
    Blend: AUG-CC-PVTZ-JKFIT
	 Reference Energy          =    -400.0572347948561287 [Eh]
	 Singles Energy            =      -0.0000000000000000 [Eh]
	 Same-Spin Energy          =      -0.4037724635377588 [Eh]
	 Opposite-Spin Energy      =      -1.3120248021308174 [Eh]
	 Correlation Energy        =      -1.7157972656685763 [Eh]
	 Total Energy              =    -401.7730320605247130 [Eh]

	 ================> DF-SCS-MP2 Energies <==================
	-----------------------------------------------------------
	 SCS Same-Spin Scale       =       0.3333333333333333 [-]
	 SCS Opposite-Spin Scale   =       1.2000000000000000 [-]
	 SCS Same-Spin Energy      =      -0.1345908211792529 [Eh]
	 SCS Opposite-Spin Energy  =      -1.5744297625569807 [Eh]
	 SCS Correlation Energy    =      -1.7090205837362338 [Eh]
	 SCS Total Energy          =    -401.7662553785923478 [Eh]
	-----------------------------------------------------------

  Dipole Moment: [D]
     X:     3.1203      Y:     3.3121      Z:    -1.0897     Total:     4.6791

*** Psi4 exiting successfully. Buy a developer a beer!
