                               Psi4 1.3.2 release

  ==> Input File <==

--------------------------------------------------------------------------
#psi4
#
memory 32 gb

molecule  {
0 1
  O       -2.5211540    -0.5137840     0.0284240
  O       -0.0903380    -1.4616610     0.1717700
  N        0.9259230     0.4056680    -0.6455280
  C       -1.5147550     0.4028960    -0.3432490
  C        2.2711600    -0.1378510    -0.5222970
  C       -0.1583790    -0.2975740    -0.2472510
  C       -1.5713913     1.5754295     0.6280593
  C        2.8531060     0.0659690     0.8699860
  H       -1.6610878     0.6552618    -1.4056421
  H        2.2044940    -1.2028750    -0.7525030
  H        2.8934660     0.3357800    -1.2867330
  H        0.8101310     1.3771570    -0.9023240
  H       -1.3564630     1.3269670     1.5921410
  H       -2.5982940     2.0269070     0.5395510
  H       -0.8919110     2.4138320     0.2596650
  H        2.9042670     1.1289430     1.1200310
  H        2.2261210    -0.4398610     1.6074960
  H        3.8631580    -0.3501450     0.9292180
  H       -2.0326010    -1.3422410     0.2291570
units angstrom
no_reorient  #important for SAPT in psi4, default
symmetry c1  #important for SAPT in psi4, default
}

set PROPERTIES_ORIGIN ["COM"]
properties('MP2/aug-cc-pvtz', properties = ['dipole'])
--------------------------------------------------------------------------

    Molecular point group: c1
  Charge       = 0
  Multiplicity = 1
  Basis Set: AUG-CC-PVTZ
    Blend: AUG-CC-PVTZ
  Basis Set: (AUG-CC-PVTZ AUX)
    Blend: AUG-CC-PVTZ-JKFIT

    Orbital Energies [Eh]
    ---------------------

    Doubly Occupied:

       1A    -20.546688     2A    -20.532723     3A    -15.598113
       4A    -11.357784     5A    -11.298508     6A    -11.273484
       7A    -11.233373     8A    -11.224227     9A     -1.398041
      10A     -1.346355    11A     -1.245438    12A     -1.052653
      13A     -1.012516    14A     -0.903988    15A     -0.850563
      16A     -0.794247    17A     -0.744060    18A     -0.676858
      19A     -0.648850    20A     -0.641358    21A     -0.612918
      22A     -0.599970    23A     -0.585520    24A     -0.557743
      25A     -0.540496    26A     -0.533630    27A     -0.519279
      28A     -0.513808    29A     -0.501668    30A     -0.447700
      31A     -0.433571    32A     -0.403278

  @DF-RHF Final Energy:  -400.07938554955160

   => Energetics <=

    Nuclear Repulsion Energy =            400.7820523902734635
    One-Electron Energy =               -1340.4640617240029314
    Two-Electron Energy =                 539.6026237841778084
    Total Energy =                       -400.0793855495516027
  Basis Set: (AUG-CC-PVTZ AUX)
    Blend: AUG-CC-PVTZ-RI
    Molecular point group: c1

    Geometry (in Angstrom), charge = 0, multiplicity = 1:

       Center              X                  Y                   Z               Mass
    ------------   -----------------  -----------------  -----------------  -----------------
         O           -2.522547269281    -0.508369578064     0.022181642511    15.994914619570
         O           -0.091731269281    -1.456246578064     0.165527642511    15.994914619570
         N            0.924529730719     0.411082421936    -0.651770357489    14.003074004430
         C           -1.516148269281     0.408310421936    -0.349491357489    12.000000000000
         C            2.269766730719    -0.132436578064    -0.528539357489    12.000000000000
         C           -0.159772269281    -0.292159578064    -0.253493357489    12.000000000000
         C           -1.572784569281     1.580843921936     0.621816942511    12.000000000000
         C            2.851712730719     0.071383421936     0.863743642511    12.000000000000
         H           -1.662481069281     0.660676221936    -1.411884457489     1.007825032230
         H            2.203100730719    -1.197460578064    -0.758745357489     1.007825032230
         H            2.892072730719     0.341194421936    -1.292975357489     1.007825032230
         H            0.808737730719     1.382571421936    -0.908566357489     1.007825032230
         H           -1.357856269281     1.332381421936     1.585898642511     1.007825032230
         H           -2.599687269281     2.032321421936     0.533308642511     1.007825032230
         H           -0.893304269281     2.419246421936     0.253422642511     1.007825032230
         H            2.902873730719     1.134357421936     1.113788642511     1.007825032230
         H            2.224727730719    -0.434446578064     1.601253642511     1.007825032230
         H            3.861764730719    -0.344730578064     0.922975642511     1.007825032230
         H           -2.033994269281    -1.336826578064     0.222914642511     1.007825032230

  Basis Set: AUG-CC-PVTZ
    Blend: AUG-CC-PVTZ
  Basis Set: (AUG-CC-PVTZ AUX)
    Blend: AUG-CC-PVTZ-JKFIT
	 Reference Energy          =    -400.0793855495516027 [Eh]
	 Singles Energy            =      -0.0000000000000000 [Eh]
	 Same-Spin Energy          =      -0.4022759248647170 [Eh]
	 Opposite-Spin Energy      =      -1.3080457521604467 [Eh]
	 Correlation Energy        =      -1.7103216770251637 [Eh]
	 Total Energy              =    -401.7897072265767520 [Eh]

	 ================> DF-SCS-MP2 Energies <==================
	-----------------------------------------------------------
	 SCS Same-Spin Scale       =       0.3333333333333333 [-]
	 SCS Opposite-Spin Scale   =       1.2000000000000000 [-]
	 SCS Same-Spin Energy      =      -0.1340919749549057 [Eh]
	 SCS Opposite-Spin Energy  =      -1.5696549025925359 [Eh]
	 SCS Correlation Energy    =      -1.7037468775474416 [Eh]
	 SCS Total Energy          =    -401.7831324270990194 [Eh]
	-----------------------------------------------------------

  Dipole Moment: [D]
     X:     3.0857      Y:     3.1539      Z:    -1.0317     Total:     4.5314

*** Psi4 exiting successfully. Buy a developer a beer!
