                               Psi4 1.3.2 release

  ==> Input File <==

--------------------------------------------------------------------------
#psi4
#
memory 32 gb

molecule  {
0 1
  O       -2.5211540    -0.5137840     0.0284240
  O       -0.0903380    -1.4616610     0.1717700
  N        0.9259230     0.4056680    -0.6455280
  C       -1.5147550     0.4028960    -0.3432490
  C        2.2711600    -0.1378510    -0.5222970
  C       -0.1565107    -0.2956204    -0.2603225
  C       -1.5844930     1.6236140     0.5658530
  C        2.8531060     0.0659690     0.8699860
  H       -1.6584100     0.7067427    -1.3924493
  H        2.2044940    -1.2028750    -0.7525030
  H        2.8934660     0.3357800    -1.2867330
  H        0.8101310     1.3771570    -0.9023240
  H       -1.3564630     1.3269670     1.5921410
  H       -2.5982940     2.0269070     0.5395510
  H       -0.8919110     2.4138320     0.2596650
  H        2.9042670     1.1289430     1.1200310
  H        2.2261210    -0.4398610     1.6074960
  H        3.8631580    -0.3501450     0.9292180
  H       -2.0326010    -1.3422410     0.2291570
units angstrom
no_reorient  #important for SAPT in psi4, default
symmetry c1  #important for SAPT in psi4, default
}

set PROPERTIES_ORIGIN ["COM"]
properties('MP2/aug-cc-pvtz', properties = ['dipole'])
--------------------------------------------------------------------------

    Molecular point group: c1
  Charge       = 0
  Multiplicity = 1
  Basis Set: AUG-CC-PVTZ
    Blend: AUG-CC-PVTZ
  Basis Set: (AUG-CC-PVTZ AUX)
    Blend: AUG-CC-PVTZ-JKFIT

    Orbital Energies [Eh]
    ---------------------

    Doubly Occupied:

       1A    -20.548425     2A    -20.531731     3A    -15.599984
       4A    -11.358893     5A    -11.298340     6A    -11.274395
       7A    -11.231607     8A    -11.224688     9A     -1.395457
      10A     -1.345652    11A     -1.247368    12A     -1.053424
      13A     -1.013449    14A     -0.903743    15A     -0.850140
      16A     -0.795672    17A     -0.743256    18A     -0.677130
      19A     -0.650025    20A     -0.640813    21A     -0.611270
      22A     -0.599188    23A     -0.575540    24A     -0.563411
      25A     -0.544269    26A     -0.535033    27A     -0.520067
      28A     -0.513961    29A     -0.502668    30A     -0.446201
      31A     -0.435136    32A     -0.403745

  @DF-RHF Final Energy:  -400.08723382654080

   => Energetics <=

    Nuclear Repulsion Energy =            400.4044494453187895
    One-Electron Energy =               -1339.7140031353026188
    Two-Electron Energy =                 539.2223198634430901
    Total Energy =                       -400.0872338265407961
  Basis Set: (AUG-CC-PVTZ AUX)
    Blend: AUG-CC-PVTZ-RI
    Molecular point group: c1

    Geometry (in Angstrom), charge = 0, multiplicity = 1:

       Center              X                  Y                   Z               Mass
    ------------   -----------------  -----------------  -----------------  -----------------
         O           -2.521418953611    -0.513951630005     0.029783669592    15.994914619570
         O           -0.090602953611    -1.461828630005     0.173129669592    15.994914619570
         N            0.925658046389     0.405500369995    -0.644168330408    14.003074004430
         C           -1.515019953611     0.402728369995    -0.341889330408    12.000000000000
         C            2.270895046389    -0.138018630005    -0.520937330408    12.000000000000
         C           -0.156775653611    -0.295788030005    -0.258962830408    12.000000000000
         C           -1.584757953611     1.623446369995     0.567212669592    12.000000000000
         C            2.852841046389     0.065801369995     0.871345669592    12.000000000000
         H           -1.658674953611     0.706575069995    -1.391089630408     1.007825032230
         H            2.204229046389    -1.203042630005    -0.751143330408     1.007825032230
         H            2.893201046389     0.335612369995    -1.285373330408     1.007825032230
         H            0.809866046389     1.376989369995    -0.900964330408     1.007825032230
         H           -1.356727953611     1.326799369995     1.593500669592     1.007825032230
         H           -2.598558953611     2.026739369995     0.540910669592     1.007825032230
         H           -0.892175953611     2.413664369995     0.261024669592     1.007825032230
         H            2.904002046389     1.128775369995     1.121390669592     1.007825032230
         H            2.225856046389    -0.440028630005     1.608855669592     1.007825032230
         H            3.862893046389    -0.350312630005     0.930577669592     1.007825032230
         H           -2.032865953611    -1.342408630005     0.230516669592     1.007825032230

  Basis Set: AUG-CC-PVTZ
    Blend: AUG-CC-PVTZ
  Basis Set: (AUG-CC-PVTZ AUX)
    Blend: AUG-CC-PVTZ-JKFIT
	 Reference Energy          =    -400.0872338265407961 [Eh]
	 Singles Energy            =      -0.0000000000000000 [Eh]
	 Same-Spin Energy          =      -0.4022229116269997 [Eh]
	 Opposite-Spin Energy      =      -1.3078239770417226 [Eh]
	 Correlation Energy        =      -1.7100468886687223 [Eh]
	 Total Energy              =    -401.7972807152095243 [Eh]

	 ================> DF-SCS-MP2 Energies <==================
	-----------------------------------------------------------
	 SCS Same-Spin Scale       =       0.3333333333333333 [-]
	 SCS Opposite-Spin Scale   =       1.2000000000000000 [-]
	 SCS Same-Spin Energy      =      -0.1340743038756666 [Eh]
	 SCS Opposite-Spin Energy  =      -1.5693887724500670 [Eh]
	 SCS Correlation Energy    =      -1.7034630763257337 [Eh]
	 SCS Total Energy          =    -401.7906969028665571 [Eh]
	-----------------------------------------------------------

  Dipole Moment: [D]
     X:     3.1330      Y:     3.2118      Z:    -1.0641     Total:     4.6112

*** Psi4 exiting successfully. Buy a developer a beer!
