                               Psi4 1.3.2 release

  ==> Input File <==

--------------------------------------------------------------------------
#psi4
#
memory 32 gb

molecule  {
0 1
  O       -2.5211540    -0.5137840     0.0284240
  O       -0.1118073    -1.4617818     0.1743627
  N        0.9259230     0.4056680    -0.6455280
  C       -1.5265282     0.3808881    -0.3337770
  C        2.2711600    -0.1378510    -0.5222970
  C       -0.1583790    -0.2975740    -0.2472510
  C       -1.5844930     1.6236140     0.5658530
  C        2.8531060     0.0659690     0.8699860
  H       -1.6669500     0.7105100    -1.3901450
  H        2.2044940    -1.2028750    -0.7525030
  H        2.8934660     0.3357800    -1.2867330
  H        0.8101310     1.3771570    -0.9023240
  H       -1.3564630     1.3269670     1.5921410
  H       -2.5982940     2.0269070     0.5395510
  H       -0.8919110     2.4138320     0.2596650
  H        2.9042670     1.1289430     1.1200310
  H        2.2261210    -0.4398610     1.6074960
  H        3.8631580    -0.3501450     0.9292180
  H       -2.0326010    -1.3422410     0.2291570
units angstrom
no_reorient  #important for SAPT in psi4, default
symmetry c1  #important for SAPT in psi4, default
}

set PROPERTIES_ORIGIN ["COM"]
properties('MP2/aug-cc-pvtz', properties = ['dipole'])
--------------------------------------------------------------------------

    Molecular point group: c1
  Charge       = 0
  Multiplicity = 1
  Basis Set: AUG-CC-PVTZ
    Blend: AUG-CC-PVTZ
  Basis Set: (AUG-CC-PVTZ AUX)
    Blend: AUG-CC-PVTZ-JKFIT

    Orbital Energies [Eh]
    ---------------------

    Doubly Occupied:

       1A    -20.549870     2A    -20.533405     3A    -15.599711
       4A    -11.358760     5A    -11.297622     6A    -11.274548
       7A    -11.230222     8A    -11.224814     9A     -1.401643
      10A     -1.353599    11A     -1.246932    12A     -1.050579
      13A     -1.011236    14A     -0.901942    15A     -0.849362
      16A     -0.794706    17A     -0.747579    18A     -0.677726
      19A     -0.650203    20A     -0.642168    21A     -0.612266
      22A     -0.600304    23A     -0.577431    24A     -0.562345
      25A     -0.546061    26A     -0.535329    27A     -0.521231
      28A     -0.514886    29A     -0.503471    30A     -0.441997
      31A     -0.434690    32A     -0.403978

  @DF-RHF Final Energy:  -400.08740918311099

   => Energetics <=

    Nuclear Repulsion Energy =            400.6204930271409239
    One-Electron Energy =               -1340.1145742881546994
    Two-Electron Energy =                 539.4066720779028401
    Total Energy =                       -400.0874091831109354
  Basis Set: (AUG-CC-PVTZ AUX)
    Blend: AUG-CC-PVTZ-RI
    Molecular point group: c1

    Geometry (in Angstrom), charge = 0, multiplicity = 1:

       Center              X                  Y                   Z               Mass
    ------------   -----------------  -----------------  -----------------  -----------------
         O           -2.517014196648    -0.511511624038     0.027099034398    15.994914619570
         O           -0.107667496648    -1.459509424038     0.173037734398    15.994914619570
         N            0.930062803352     0.407940375962    -0.646852965602    14.003074004430
         C           -1.522388396648     0.383160475962    -0.335101965602    12.000000000000
         C            2.275299803352    -0.135578624038    -0.523621965602    12.000000000000
         C           -0.154239196648    -0.295301624038    -0.248575965602    12.000000000000
         C           -1.580353196648     1.625886375962     0.564528034398    12.000000000000
         C            2.857245803352     0.068241375962     0.868661034398    12.000000000000
         H           -1.662810196648     0.712782375962    -1.391469965602     1.007825032230
         H            2.208633803352    -1.200602624038    -0.753827965602     1.007825032230
         H            2.897605803352     0.338052375962    -1.288057965602     1.007825032230
         H            0.814270803352     1.379429375962    -0.903648965602     1.007825032230
         H           -1.352323196648     1.329239375962     1.590816034398     1.007825032230
         H           -2.594154196648     2.029179375962     0.538226034398     1.007825032230
         H           -0.887771196648     2.416104375962     0.258340034398     1.007825032230
         H            2.908406803352     1.131215375962     1.118706034398     1.007825032230
         H            2.230260803352    -0.437588624038     1.606171034398     1.007825032230
         H            3.867297803352    -0.347872624038     0.927893034398     1.007825032230
         H           -2.028461196648    -1.339968624038     0.227832034398     1.007825032230

  Basis Set: AUG-CC-PVTZ
    Blend: AUG-CC-PVTZ
  Basis Set: (AUG-CC-PVTZ AUX)
    Blend: AUG-CC-PVTZ-JKFIT
	 Reference Energy          =    -400.0874091831109922 [Eh]
	 Singles Energy            =      -0.0000000000000000 [Eh]
	 Same-Spin Energy          =      -0.4020964820522436 [Eh]
	 Opposite-Spin Energy      =      -1.3072192869095973 [Eh]
	 Correlation Energy        =      -1.7093157689618410 [Eh]
	 Total Energy              =    -401.7967249520728501 [Eh]

	 ================> DF-SCS-MP2 Energies <==================
	-----------------------------------------------------------
	 SCS Same-Spin Scale       =       0.3333333333333333 [-]
	 SCS Opposite-Spin Scale   =       1.2000000000000000 [-]
	 SCS Same-Spin Energy      =      -0.1340321606840812 [Eh]
	 SCS Opposite-Spin Energy  =      -1.5686631442915167 [Eh]
	 SCS Correlation Energy    =      -1.7026953049755980 [Eh]
	 SCS Total Energy          =    -401.7901044880865697 [Eh]
	-----------------------------------------------------------

  Dipole Moment: [D]
     X:     3.1207      Y:     3.0994      Z:    -1.0316     Total:     4.5177

*** Psi4 exiting successfully. Buy a developer a beer!
