                               Psi4 1.3.2 release

  ==> Input File <==

--------------------------------------------------------------------------
#psi4
#
memory 32 gb

molecule  {
0 1
  O       -2.5211540    -0.5137840     0.0284240
  O       -0.0903380    -1.4616610     0.1717700
  N        0.9259230     0.4056680    -0.6455280
  C       -1.5147550     0.4028960    -0.3432490
  C        2.2711600    -0.1378510    -0.5222970
  C       -0.1583790    -0.2975740    -0.2472510
  C       -1.5844930     1.6236140     0.5658530
  C        2.8531060     0.0659690     0.8699860
  H       -1.6669500     0.7105100    -1.3901450
  H        2.2044940    -1.2028750    -0.7525030
  H        2.8934660     0.3357800    -1.2867330
  H        0.8101310     1.3771570    -0.9023240
  H       -1.3564630     1.3269670     1.5921410
  H       -2.5982940     2.0269070     0.5395510
  H       -0.8919110     2.4138320     0.2596650
  H        2.9042670     1.1289430     1.1200310
  H        2.2261210    -0.4398610     1.6074960
  H        3.8631580    -0.3501450     0.9292180
  H       -2.0326010    -1.3422410     0.2291570
units angstrom
no_reorient  #important for SAPT in psi4, default
symmetry c1  #important for SAPT in psi4, default
}

set PROPERTIES_ORIGIN ["COM"]
properties('MP2/aug-cc-pvtz', properties = ['dipole'])
--------------------------------------------------------------------------

    Molecular point group: c1
  Charge       = 0
  Multiplicity = 1
  Basis Set: AUG-CC-PVTZ
    Blend: AUG-CC-PVTZ
  Basis Set: (AUG-CC-PVTZ AUX)
    Blend: AUG-CC-PVTZ-JKFIT

    Orbital Energies [Eh]
    ---------------------

    Doubly Occupied:

       1A    -20.548502     2A    -20.533462     3A    -15.598691
       4A    -11.359192     5A    -11.298216     6A    -11.273738
       7A    -11.231406     8A    -11.224353     9A     -1.398440
      10A     -1.346734    11A     -1.245930    12A     -1.052941
      13A     -1.012887    14A     -0.903012    15A     -0.849444
      16A     -0.794301    17A     -0.744163    18A     -0.677231
      19A     -0.649281    20A     -0.642204    21A     -0.611189
      22A     -0.599391    23A     -0.575752    24A     -0.563341
      25A     -0.543991    26A     -0.534940    27A     -0.520995
      28A     -0.515073    29A     -0.502587    30A     -0.446071
      31A     -0.436141    32A     -0.403467

  @DF-RHF Final Energy:  -400.08777124901405

   => Energetics <=

    Nuclear Repulsion Energy =            400.4401744895336037
    One-Electron Energy =               -1339.7817656099416581
    Two-Electron Energy =                 539.2538198713940574
    Total Energy =                       -400.0877712490140539
  Basis Set: (AUG-CC-PVTZ AUX)
    Blend: AUG-CC-PVTZ-RI
    Molecular point group: c1

    Geometry (in Angstrom), charge = 0, multiplicity = 1:

       Center              X                  Y                   Z               Mass
    ------------   -----------------  -----------------  -----------------  -----------------
         O           -2.521153949371    -0.513783825152     0.028424071711    15.994914619570
         O           -0.090337949371    -1.461660825152     0.171770071711    15.994914619570
         N            0.925923050629     0.405668174848    -0.645527928289    14.003074004430
         C           -1.514754949371     0.402896174848    -0.343248928289    12.000000000000
         C            2.271160050629    -0.137850825152    -0.522296928289    12.000000000000
         C           -0.158378949371    -0.297573825152    -0.247250928289    12.000000000000
         C           -1.584492949371     1.623614174848     0.565853071711    12.000000000000
         C            2.853106050629     0.065969174848     0.869986071711    12.000000000000
         H           -1.666949949371     0.710510174848    -1.390144928289     1.007825032230
         H            2.204494050629    -1.202874825152    -0.752502928289     1.007825032230
         H            2.893466050629     0.335780174848    -1.286732928289     1.007825032230
         H            0.810131050629     1.377157174848    -0.902323928289     1.007825032230
         H           -1.356462949371     1.326967174848     1.592141071711     1.007825032230
         H           -2.598293949371     2.026907174848     0.539551071711     1.007825032230
         H           -0.891910949371     2.413832174848     0.259665071711     1.007825032230
         H            2.904267050629     1.128943174848     1.120031071711     1.007825032230
         H            2.226121050629    -0.439860825152     1.607496071711     1.007825032230
         H            3.863158050629    -0.350144825152     0.929218071711     1.007825032230
         H           -2.032600949371    -1.342240825152     0.229157071711     1.007825032230

  Basis Set: AUG-CC-PVTZ
    Blend: AUG-CC-PVTZ
  Basis Set: (AUG-CC-PVTZ AUX)
    Blend: AUG-CC-PVTZ-JKFIT
	 Reference Energy          =    -400.0877712490140539 [Eh]
	 Singles Energy            =      -0.0000000000000000 [Eh]
	 Same-Spin Energy          =      -0.4021167837418685 [Eh]
	 Opposite-Spin Energy      =      -1.3076414590458063 [Eh]
	 Correlation Energy        =      -1.7097582427876747 [Eh]
	 Total Energy              =    -401.7975294918017539 [Eh]

	 ================> DF-SCS-MP2 Energies <==================
	-----------------------------------------------------------
	 SCS Same-Spin Scale       =       0.3333333333333333 [-]
	 SCS Opposite-Spin Scale   =       1.2000000000000000 [-]
	 SCS Same-Spin Energy      =      -0.1340389279139562 [Eh]
	 SCS Opposite-Spin Energy  =      -1.5691697508549676 [Eh]
	 SCS Correlation Energy    =      -1.7032086787689238 [Eh]
	 SCS Total Energy          =    -401.7909799277829848 [Eh]
	-----------------------------------------------------------

  Dipole Moment: [D]
     X:     3.0965      Y:     3.1745      Z:    -1.0444     Total:     4.5559

*** Psi4 exiting successfully. Buy a developer a beer!
