                               Psi4 1.3.2 release

  ==> Input File <==

--------------------------------------------------------------------------
#psi4
#
memory 32 gb

molecule  {
0 1
  O       -2.5211540    -0.5137840     0.0284240
  O       -0.0903380    -1.4616610     0.1717700
  N        0.9259230     0.4056680    -0.6455280
  C       -1.5147550     0.4028960    -0.3432490
  C        2.2711600    -0.1378510    -0.5222970
  C       -0.1487230    -0.2850577    -0.3257549
  C       -1.5844930     1.6236140     0.5658530
  C        2.8531060     0.0659690     0.8699860
  H       -1.6155591     0.6875646    -1.4027693
  H        2.2044940    -1.2028750    -0.7525030
  H        2.8934660     0.3357800    -1.2867330
  H        0.8101310     1.3771570    -0.9023240
  H       -1.3564630     1.3269670     1.5921410
  H       -2.5982940     2.0269070     0.5395510
  H       -0.8919110     2.4138320     0.2596650
  H        2.9042670     1.1289430     1.1200310
  H        2.2261210    -0.4398610     1.6074960
  H        3.8631580    -0.3501450     0.9292180
  H       -2.0326010    -1.3422410     0.2291570
units angstrom
no_reorient  #important for SAPT in psi4, default
symmetry c1  #important for SAPT in psi4, default
}

set PROPERTIES_ORIGIN ["COM"]
properties('MP2/aug-cc-pvtz', properties = ['dipole'])
--------------------------------------------------------------------------

    Molecular point group: c1
  Charge       = 0
  Multiplicity = 1
  Basis Set: AUG-CC-PVTZ
    Blend: AUG-CC-PVTZ
  Basis Set: (AUG-CC-PVTZ AUX)
    Blend: AUG-CC-PVTZ-JKFIT

    Orbital Energies [Eh]
    ---------------------

    Doubly Occupied:

       1A    -20.548136     2A    -20.523279     3A    -15.606462
       4A    -11.357841     5A    -11.299299     6A    -11.277621
       7A    -11.232709     8A    -11.226353     9A     -1.383039
      10A     -1.339976    11A     -1.251578    12A     -1.056152
      13A     -1.016043    14A     -0.907482    15A     -0.853738
      16A     -0.802383    17A     -0.739045    18A     -0.677021
      19A     -0.653511    20A     -0.634912    21A     -0.611827
      22A     -0.597534    23A     -0.573742    24A     -0.563689
      25A     -0.545929    26A     -0.535883    27A     -0.516274
      28A     -0.507797    29A     -0.502493    30A     -0.446628
      31A     -0.428903    32A     -0.403812

  @DF-RHF Final Energy:  -400.07934400269551

   => Energetics <=

    Nuclear Repulsion Energy =            400.1790051748125165
    One-Electron Energy =               -1339.2745146516235764
    Two-Electron Energy =                 539.0161654741154962
    Total Energy =                       -400.0793440026955068
  Basis Set: (AUG-CC-PVTZ AUX)
    Blend: AUG-CC-PVTZ-RI
    Molecular point group: c1

    Geometry (in Angstrom), charge = 0, multiplicity = 1:

       Center              X                  Y                   Z               Mass
    ------------   -----------------  -----------------  -----------------  -----------------
         O           -2.522586017172    -0.514869166458     0.036578993260    15.994914619570
         O           -0.091770017172    -1.462746166458     0.179924993260    15.994914619570
         N            0.924490982828     0.404582833542    -0.637373006740    14.003074004430
         C           -1.516187017172     0.401810833542    -0.335094006740    12.000000000000
         C            2.269727982828    -0.138936166458    -0.514142006740    12.000000000000
         C           -0.150155017172    -0.286142866458    -0.317599906740    12.000000000000
         C           -1.585925017172     1.622528833542     0.574007993260    12.000000000000
         C            2.851673982828     0.064883833542     0.878140993260    12.000000000000
         H           -1.616991117172     0.686479433542    -1.394614306740     1.007825032230
         H            2.203061982828    -1.203960166458    -0.744348006740     1.007825032230
         H            2.892033982828     0.334694833542    -1.278578006740     1.007825032230
         H            0.808698982828     1.376071833542    -0.894169006740     1.007825032230
         H           -1.357895017172     1.325881833542     1.600295993260     1.007825032230
         H           -2.599726017172     2.025821833542     0.547705993260     1.007825032230
         H           -0.893343017172     2.412746833542     0.267819993260     1.007825032230
         H            2.902834982828     1.127857833542     1.128185993260     1.007825032230
         H            2.224688982828    -0.440946166458     1.615650993260     1.007825032230
         H            3.861725982828    -0.351230166458     0.937372993260     1.007825032230
         H           -2.034033017172    -1.343326166458     0.237311993260     1.007825032230

  Basis Set: AUG-CC-PVTZ
    Blend: AUG-CC-PVTZ
  Basis Set: (AUG-CC-PVTZ AUX)
    Blend: AUG-CC-PVTZ-JKFIT
	 Reference Energy          =    -400.0793440026955068 [Eh]
	 Singles Energy            =      -0.0000000000000000 [Eh]
	 Same-Spin Energy          =      -0.4029273232671423 [Eh]
	 Opposite-Spin Energy      =      -1.3091688930179775 [Eh]
	 Correlation Energy        =      -1.7120962162851199 [Eh]
	 Total Energy              =    -401.7914402189806538 [Eh]

	 ================> DF-SCS-MP2 Energies <==================
	-----------------------------------------------------------
	 SCS Same-Spin Scale       =       0.3333333333333333 [-]
	 SCS Opposite-Spin Scale   =       1.2000000000000000 [-]
	 SCS Same-Spin Energy      =      -0.1343091077557141 [Eh]
	 SCS Opposite-Spin Energy  =      -1.5710026716215728 [Eh]
	 SCS Correlation Energy    =      -1.7053117793772870 [Eh]
	 SCS Total Energy          =    -401.7846557820727753 [Eh]
	-----------------------------------------------------------

  Dipole Moment: [D]
     X:     3.3075      Y:     3.3974      Z:    -1.1525     Total:     4.8795

*** Psi4 exiting successfully. Buy a developer a beer!
