                               Psi4 1.3.2 release

  ==> Input File <==

--------------------------------------------------------------------------
#psi4
#
memory 32 gb

molecule  {
0 1
  O       -2.5352353    -0.4826263     0.0638780
  O       -0.0903380    -1.4616610     0.1717700
  N        0.9259230     0.4056680    -0.6455280
  C       -1.5147550     0.4028960    -0.3432490
  C        2.2711600    -0.1378510    -0.5222970
  C       -0.1583790    -0.2975740    -0.2472510
  C       -1.6254868     1.6011956     0.5912556
  C        2.8531060     0.0659690     0.8699860
  H       -1.6669500     0.7105100    -1.3901450
  H        2.2044940    -1.2028750    -0.7525030
  H        2.8934660     0.3357800    -1.2867330
  H        0.8101310     1.3771570    -0.9023240
  H       -1.3564630     1.3269670     1.5921410
  H       -2.5982940     2.0269070     0.5395510
  H       -0.8919110     2.4138320     0.2596650
  H        2.9042670     1.1289430     1.1200310
  H        2.2261210    -0.4398610     1.6074960
  H        3.8631580    -0.3501450     0.9292180
  H       -2.0326010    -1.3422410     0.2291570
units angstrom
no_reorient  #important for SAPT in psi4, default
symmetry c1  #important for SAPT in psi4, default
}

set PROPERTIES_ORIGIN ["COM"]
properties('MP2/aug-cc-pvtz', properties = ['dipole'])
--------------------------------------------------------------------------

    Molecular point group: c1
  Charge       = 0
  Multiplicity = 1
  Basis Set: AUG-CC-PVTZ
    Blend: AUG-CC-PVTZ
  Basis Set: (AUG-CC-PVTZ AUX)
    Blend: AUG-CC-PVTZ-JKFIT

    Orbital Energies [Eh]
    ---------------------

    Doubly Occupied:

       1A    -20.549838     2A    -20.535020     3A    -15.599404
       4A    -11.360684     5A    -11.297504     6A    -11.274185
       7A    -11.230472     8A    -11.224639     9A     -1.398228
      10A     -1.344108    11A     -1.246564    12A     -1.051155
      13A     -1.011841    14A     -0.904038    15A     -0.848986
      16A     -0.794844    17A     -0.741117    18A     -0.676598
      19A     -0.648846    20A     -0.643331    21A     -0.611069
      22A     -0.599034    23A     -0.573370    24A     -0.568319
      25A     -0.542762    26A     -0.528406    27A     -0.521868
      28A     -0.514029    29A     -0.503035    30A     -0.444742
      31A     -0.437647    32A     -0.404150

  @DF-RHF Final Energy:  -400.08152810046494

   => Energetics <=

    Nuclear Repulsion Energy =            400.1839943893190821
    One-Electron Energy =               -1339.2713780466106073
    Two-Electron Energy =                 539.0058555568266456
    Total Energy =                       -400.0815281004648796
  Basis Set: (AUG-CC-PVTZ AUX)
    Blend: AUG-CC-PVTZ-RI
    Molecular point group: c1

    Geometry (in Angstrom), charge = 0, multiplicity = 1:

       Center              X                  Y                   Z               Mass
    ------------   -----------------  -----------------  -----------------  -----------------
         O           -2.529109856070    -0.484585007558     0.056430834697    15.994914619570
         O           -0.084212556070    -1.463619707558     0.164322834697    15.994914619570
         N            0.932048443930     0.403709292442    -0.652975165303    14.003074004430
         C           -1.508629556070     0.400937292442    -0.350696165303    12.000000000000
         C            2.277285443930    -0.139809707558    -0.529744165303    12.000000000000
         C           -0.152253556070    -0.299532707558    -0.254698165303    12.000000000000
         C           -1.619361356070     1.599236892442     0.583808434697    12.000000000000
         C            2.859231443930     0.064010292442     0.862538834697    12.000000000000
         H           -1.660824556070     0.708551292442    -1.397592165303     1.007825032230
         H            2.210619443930    -1.204833707558    -0.759950165303     1.007825032230
         H            2.899591443930     0.333821292442    -1.294180165303     1.007825032230
         H            0.816256443930     1.375198292442    -0.909771165303     1.007825032230
         H           -1.350337556070     1.325008292442     1.584693834697     1.007825032230
         H           -2.592168556070     2.024948292442     0.532103834697     1.007825032230
         H           -0.885785556070     2.411873292442     0.252217834697     1.007825032230
         H            2.910392443930     1.126984292442     1.112583834697     1.007825032230
         H            2.232246443930    -0.441819707558     1.600048834697     1.007825032230
         H            3.869283443930    -0.352103707558     0.921770834697     1.007825032230
         H           -2.026475556070    -1.344199707558     0.221709834697     1.007825032230

  Basis Set: AUG-CC-PVTZ
    Blend: AUG-CC-PVTZ
  Basis Set: (AUG-CC-PVTZ AUX)
    Blend: AUG-CC-PVTZ-JKFIT
	 Reference Energy          =    -400.0815281004649364 [Eh]
	 Singles Energy            =      -0.0000000000000000 [Eh]
	 Same-Spin Energy          =      -0.4026138830744633 [Eh]
	 Opposite-Spin Energy      =      -1.3088224425675909 [Eh]
	 Correlation Energy        =      -1.7114363256420542 [Eh]
	 Total Energy              =    -401.7929644261070052 [Eh]

	 ================> DF-SCS-MP2 Energies <==================
	-----------------------------------------------------------
	 SCS Same-Spin Scale       =       0.3333333333333333 [-]
	 SCS Opposite-Spin Scale   =       1.2000000000000000 [-]
	 SCS Same-Spin Energy      =      -0.1342046276914878 [Eh]
	 SCS Opposite-Spin Energy  =      -1.5705869310811091 [Eh]
	 SCS Correlation Energy    =      -1.7047915587725968 [Eh]
	 SCS Total Energy          =    -401.7863196592375061 [Eh]
	-----------------------------------------------------------

  Dipole Moment: [D]
     X:     3.1241      Y:     3.0684      Z:    -1.1093     Total:     4.5173

*** Psi4 exiting successfully. Buy a developer a beer!
