                               Psi4 1.3.2 release

  ==> Input File <==

--------------------------------------------------------------------------
#psi4
#
memory 32 gb

molecule  {
0 1
  O       -2.5162085    -0.5145693     0.0396743
  O       -0.0903380    -1.4616610     0.1717700
  N        0.9259230     0.4056680    -0.6455280
  C       -1.5147550     0.4028960    -0.3432490
  C        2.2711600    -0.1378510    -0.5222970
  C       -0.1583790    -0.2975740    -0.2472510
  C       -1.5844930     1.6236140     0.5658530
  C        2.8531060     0.0659690     0.8699860
  H       -1.6592028     0.7161736    -1.3895629
  H        2.2044940    -1.2028750    -0.7525030
  H        2.8934660     0.3357800    -1.2867330
  H        0.8101310     1.3771570    -0.9023240
  H       -1.3564630     1.3269670     1.5921410
  H       -2.5982940     2.0269070     0.5395510
  H       -0.8919110     2.4138320     0.2596650
  H        2.9042670     1.1289430     1.1200310
  H        2.2261210    -0.4398610     1.6074960
  H        3.8631580    -0.3501450     0.9292180
  H       -2.0326010    -1.3422410     0.2291570
units angstrom
no_reorient  #important for SAPT in psi4, default
symmetry c1  #important for SAPT in psi4, default
}

set PROPERTIES_ORIGIN ["COM"]
properties('MP2/aug-cc-pvtz', properties = ['dipole'])
--------------------------------------------------------------------------

    Molecular point group: c1
  Charge       = 0
  Multiplicity = 1
  Basis Set: AUG-CC-PVTZ
    Blend: AUG-CC-PVTZ
  Basis Set: (AUG-CC-PVTZ AUX)
    Blend: AUG-CC-PVTZ-JKFIT

    Orbital Energies [Eh]
    ---------------------

    Doubly Occupied:

       1A    -20.548313     2A    -20.533189     3A    -15.598544
       4A    -11.358947     5A    -11.298475     6A    -11.273645
       7A    -11.231289     8A    -11.224267     9A     -1.398622
      10A     -1.347451    11A     -1.245802    12A     -1.053141
      13A     -1.012965    14A     -0.903003    15A     -0.849526
      16A     -0.794214    17A     -0.744359    18A     -0.678027
      19A     -0.650096    20A     -0.641956    21A     -0.611188
      22A     -0.599220    23A     -0.575683    24A     -0.563226
      25A     -0.544050    26A     -0.535071    27A     -0.520801
      28A     -0.515082    29A     -0.502441    30A     -0.446615
      31A     -0.435840    32A     -0.403323

  @DF-RHF Final Energy:  -400.08802612328054

   => Energetics <=

    Nuclear Repulsion Energy =            400.5477791197547504
    One-Electron Energy =               -1339.9948700552668015
    Two-Electron Energy =                 539.3590648122315088
    Total Energy =                       -400.0880261232805424
  Basis Set: (AUG-CC-PVTZ AUX)
    Blend: AUG-CC-PVTZ-RI
    Molecular point group: c1

    Geometry (in Angstrom), charge = 0, multiplicity = 1:

       Center              X                  Y                   Z               Mass
    ------------   -----------------  -----------------  -----------------  -----------------
         O           -2.516950774538    -0.514510592966     0.038132384882    15.994914619570
         O           -0.091080274538    -1.461602292966     0.170228084882    15.994914619570
         N            0.925180725462     0.405726707034    -0.647069915118    14.003074004430
         C           -1.515497274538     0.402954707034    -0.344790915118    12.000000000000
         C            2.270417725462    -0.137792292966    -0.523838915118    12.000000000000
         C           -0.159121274538    -0.297515292966    -0.248792915118    12.000000000000
         C           -1.585235274538     1.623672707034     0.564311084882    12.000000000000
         C            2.852363725462     0.066027707034     0.868444084882    12.000000000000
         H           -1.659945074538     0.716232307034    -1.391104815118     1.007825032230
         H            2.203751725462    -1.202816292966    -0.754044915118     1.007825032230
         H            2.892723725462     0.335838707034    -1.288274915118     1.007825032230
         H            0.809388725462     1.377215707034    -0.903865915118     1.007825032230
         H           -1.357205274538     1.327025707034     1.590599084882     1.007825032230
         H           -2.599036274538     2.026965707034     0.538009084882     1.007825032230
         H           -0.892653274538     2.413890707034     0.258123084882     1.007825032230
         H            2.903524725462     1.129001707034     1.118489084882     1.007825032230
         H            2.225378725462    -0.439802292966     1.605954084882     1.007825032230
         H            3.862415725462    -0.350086292966     0.927676084882     1.007825032230
         H           -2.033343274538    -1.342182292966     0.227615084882     1.007825032230

  Basis Set: AUG-CC-PVTZ
    Blend: AUG-CC-PVTZ
  Basis Set: (AUG-CC-PVTZ AUX)
    Blend: AUG-CC-PVTZ-JKFIT
	 Reference Energy          =    -400.0880261232805424 [Eh]
	 Singles Energy            =      -0.0000000000000000 [Eh]
	 Same-Spin Energy          =      -0.4020466088510157 [Eh]
	 Opposite-Spin Energy      =      -1.3074631531307943 [Eh]
	 Correlation Energy        =      -1.7095097619818100 [Eh]
	 Total Energy              =    -401.7975358852623344 [Eh]

	 ================> DF-SCS-MP2 Energies <==================
	-----------------------------------------------------------
	 SCS Same-Spin Scale       =       0.3333333333333333 [-]
	 SCS Opposite-Spin Scale   =       1.2000000000000000 [-]
	 SCS Same-Spin Energy      =      -0.1340155362836719 [Eh]
	 SCS Opposite-Spin Energy  =      -1.5689557837569532 [Eh]
	 SCS Correlation Energy    =      -1.7029713200406251 [Eh]
	 SCS Total Energy          =    -401.7909974433211460 [Eh]
	-----------------------------------------------------------

  Dipole Moment: [D]
     X:     3.0812      Y:     3.1728      Z:    -1.0660     Total:     4.5494

*** Psi4 exiting successfully. Buy a developer a beer!
