                               Psi4 1.3.2 release

  ==> Input File <==

--------------------------------------------------------------------------
#psi4
#
memory 32 gb

molecule  {
0 1
  O       -2.5009159    -0.5165059     0.0732468
  O       -0.0903380    -1.4616610     0.1717700
  N        0.9259230     0.4056680    -0.6455280
  C       -1.5147550     0.4028960    -0.3432490
  C        2.2711600    -0.1378510    -0.5222970
  C       -0.1583790    -0.2975740    -0.2472510
  C       -1.5844930     1.6236140     0.5658530
  C        2.8531060     0.0659690     0.8699860
  H       -1.6358977     0.7330197    -1.3873389
  H        2.2044940    -1.2028750    -0.7525030
  H        2.8934660     0.3357800    -1.2867330
  H        0.8101310     1.3771570    -0.9023240
  H       -1.3564630     1.3269670     1.5921410
  H       -2.5982940     2.0269070     0.5395510
  H       -0.8919110     2.4138320     0.2596650
  H        2.9042670     1.1289430     1.1200310
  H        2.2261210    -0.4398610     1.6074960
  H        3.8631580    -0.3501450     0.9292180
  H       -2.0326010    -1.3422410     0.2291570
units angstrom
no_reorient  #important for SAPT in psi4, default
symmetry c1  #important for SAPT in psi4, default
}

set PROPERTIES_ORIGIN ["COM"]
properties('MP2/aug-cc-pvtz', properties = ['dipole'])
--------------------------------------------------------------------------

    Molecular point group: c1
  Charge       = 0
  Multiplicity = 1
  Basis Set: AUG-CC-PVTZ
    Blend: AUG-CC-PVTZ
  Basis Set: (AUG-CC-PVTZ AUX)
    Blend: AUG-CC-PVTZ-JKFIT

    Orbital Energies [Eh]
    ---------------------

    Doubly Occupied:

       1A    -20.547840     2A    -20.532365     3A    -15.598089
       4A    -11.358187     5A    -11.299242     6A    -11.273358
       7A    -11.230927     8A    -11.224001     9A     -1.399261
      10A     -1.349510    11A     -1.245408    12A     -1.053752
      13A     -1.013181    14A     -0.902964    15A     -0.849737
      16A     -0.793933    17A     -0.744984    18A     -0.680745
      19A     -0.652172    20A     -0.641196    21A     -0.611165
      22A     -0.598698    23A     -0.575408    24A     -0.562851
      25A     -0.544249    26A     -0.535307    27A     -0.520241
      28A     -0.514959    29A     -0.501977    30A     -0.448198
      31A     -0.434895    32A     -0.402871

  @DF-RHF Final Energy:  -400.08794810939298

   => Energetics <=

    Nuclear Repulsion Energy =            400.8754448290774235
    One-Electron Energy =               -1340.6434444223857554
    Two-Electron Energy =                 539.6800514839153493
    Total Energy =                       -400.0879481093929826
  Basis Set: (AUG-CC-PVTZ AUX)
    Blend: AUG-CC-PVTZ-RI
    Molecular point group: c1

    Geometry (in Angstrom), charge = 0, multiplicity = 1:

       Center              X                  Y                   Z               Mass
    ------------   -----------------  -----------------  -----------------  -----------------
         O           -2.503948007416    -0.516327634096     0.067099184693    15.994914619570
         O           -0.093370107416    -1.461482734096     0.165622384693    15.994914619570
         N            0.922890892584     0.405846265904    -0.651675615307    14.003074004430
         C           -1.517787107416     0.403074265904    -0.349396615307    12.000000000000
         C            2.268127892584    -0.137672734096    -0.528444615307    12.000000000000
         C           -0.161411107416    -0.297395734096    -0.253398615307    12.000000000000
         C           -1.587525107416     1.623792265904     0.559705384693    12.000000000000
         C            2.850073892584     0.066147265904     0.863838384693    12.000000000000
         H           -1.638929807416     0.733197965904    -1.393486515307     1.007825032230
         H            2.201461892584    -1.202696734096    -0.758650615307     1.007825032230
         H            2.890433892584     0.335958265904    -1.292880615307     1.007825032230
         H            0.807098892584     1.377335265904    -0.908471615307     1.007825032230
         H           -1.359495107416     1.327145265904     1.585993384693     1.007825032230
         H           -2.601326107416     2.027085265904     0.533403384693     1.007825032230
         H           -0.894943107416     2.414010265904     0.253517384693     1.007825032230
         H            2.901234892584     1.129121265904     1.113883384693     1.007825032230
         H            2.223088892584    -0.439682734096     1.601348384693     1.007825032230
         H            3.860125892584    -0.349966734096     0.923070384693     1.007825032230
         H           -2.035633107416    -1.342062734096     0.223009384693     1.007825032230

  Basis Set: AUG-CC-PVTZ
    Blend: AUG-CC-PVTZ
  Basis Set: (AUG-CC-PVTZ AUX)
    Blend: AUG-CC-PVTZ-JKFIT
	 Reference Energy          =    -400.0879481093929826 [Eh]
	 Singles Energy            =      -0.0000000000000000 [Eh]
	 Same-Spin Energy          =      -0.4018756540413733 [Eh]
	 Opposite-Spin Energy      =      -1.3070053422630223 [Eh]
	 Correlation Energy        =      -1.7088809963043956 [Eh]
	 Total Energy              =    -401.7968291056973840 [Eh]

	 ================> DF-SCS-MP2 Energies <==================
	-----------------------------------------------------------
	 SCS Same-Spin Scale       =       0.3333333333333333 [-]
	 SCS Opposite-Spin Scale   =       1.2000000000000000 [-]
	 SCS Same-Spin Energy      =      -0.1339585513471244 [Eh]
	 SCS Opposite-Spin Energy  =      -1.5684064107156268 [Eh]
	 SCS Correlation Energy    =      -1.7023649620627512 [Eh]
	 SCS Total Energy          =    -401.7903130714557278 [Eh]
	-----------------------------------------------------------

  Dipole Moment: [D]
     X:     3.0330      Y:     3.1666      Z:    -1.1304     Total:     4.5281

*** Psi4 exiting successfully. Buy a developer a beer!
