                               Psi4 1.3.2 release

  ==> Input File <==

--------------------------------------------------------------------------
#psi4
#
memory 32 gb

molecule  {
0 1
  O       -2.5211540    -0.5137840     0.0284240
  O       -0.0903380    -1.4616610     0.1717700
  N        0.9259230     0.4056680    -0.6455280
  C       -1.4977951     0.3854033    -0.3396529
  C        2.2711600    -0.1378510    -0.5222970
  C       -0.1583790    -0.2975740    -0.2472510
  C       -1.5844930     1.6236140     0.5658530
  C        2.8531060     0.0659690     0.8699860
  H       -1.6669500     0.7105100    -1.3901450
  H        2.2044940    -1.2028750    -0.7525030
  H        2.8934660     0.3357800    -1.2867330
  H        0.8101310     1.3771570    -0.9023240
  H       -1.3564630     1.3269670     1.5921410
  H       -2.5982940     2.0269070     0.5395510
  H       -0.8919110     2.4138320     0.2596650
  H        2.9042670     1.1289430     1.1200310
  H        2.2261210    -0.4398610     1.6074960
  H        3.8631580    -0.3501450     0.9292180
  H       -2.0178828    -1.3343044     0.2253585
units angstrom
no_reorient  #important for SAPT in psi4, default
symmetry c1  #important for SAPT in psi4, default
}

set PROPERTIES_ORIGIN ["COM"]
properties('MP2/aug-cc-pvtz', properties = ['dipole'])
--------------------------------------------------------------------------

    Molecular point group: c1
  Charge       = 0
  Multiplicity = 1
  Basis Set: AUG-CC-PVTZ
    Blend: AUG-CC-PVTZ
  Basis Set: (AUG-CC-PVTZ AUX)
    Blend: AUG-CC-PVTZ-JKFIT

    Orbital Energies [Eh]
    ---------------------

    Doubly Occupied:

       1A    -20.549358     2A    -20.534143     3A    -15.599198
       4A    -11.359541     5A    -11.298075     6A    -11.274188
       7A    -11.232114     8A    -11.224623     9A     -1.400636
      10A     -1.347764    11A     -1.246786    12A     -1.053449
      13A     -1.011601    14A     -0.905714    15A     -0.850278
      16A     -0.794562    17A     -0.745769    18A     -0.677074
      19A     -0.648235    20A     -0.642913    21A     -0.611756
      22A     -0.599814    23A     -0.573157    24A     -0.562723
      25A     -0.545430    26A     -0.534302    27A     -0.521240
      28A     -0.518031    29A     -0.503173    30A     -0.443729
      31A     -0.439529    32A     -0.403881

  @DF-RHF Final Energy:  -400.08672168954001

   => Energetics <=

    Nuclear Repulsion Energy =            400.7722968126358296
    One-Electron Energy =               -1340.4124676755450309
    Two-Electron Energy =                 539.5534491733691311
    Total Energy =                       -400.0867216895400134
  Basis Set: (AUG-CC-PVTZ AUX)
    Blend: AUG-CC-PVTZ-RI
    Molecular point group: c1

    Geometry (in Angstrom), charge = 0, multiplicity = 1:

       Center              X                  Y                   Z               Mass
    ------------   -----------------  -----------------  -----------------  -----------------
         O           -2.523018948306    -0.512059231222     0.028088187532    15.994914619570
         O           -0.092202948306    -1.459936231222     0.171434187532    15.994914619570
         N            0.924058051694     0.407392768778    -0.645863812468    14.003074004430
         C           -1.499660048306     0.387128068778    -0.339988712468    12.000000000000
         C            2.269295051694    -0.136126231222    -0.522632812468    12.000000000000
         C           -0.160243948306    -0.295849231222    -0.247586812468    12.000000000000
         C           -1.586357948306     1.625338768778     0.565517187532    12.000000000000
         C            2.851241051694     0.067693768778     0.869650187532    12.000000000000
         H           -1.668814948306     0.712234768778    -1.390480812468     1.007825032230
         H            2.202629051694    -1.201150231222    -0.752838812468     1.007825032230
         H            2.891601051694     0.337504768778    -1.287068812468     1.007825032230
         H            0.808266051694     1.378881768778    -0.902659812468     1.007825032230
         H           -1.358327948306     1.328691768778     1.591805187532     1.007825032230
         H           -2.600158948306     2.028631768778     0.539215187532     1.007825032230
         H           -0.893775948306     2.415556768778     0.259329187532     1.007825032230
         H            2.902402051694     1.130667768778     1.119695187532     1.007825032230
         H            2.224256051694    -0.438136231222     1.607160187532     1.007825032230
         H            3.861293051694    -0.348420231222     0.928882187532     1.007825032230
         H           -2.019747748306    -1.332579631222     0.225022687532     1.007825032230

  Basis Set: AUG-CC-PVTZ
    Blend: AUG-CC-PVTZ
  Basis Set: (AUG-CC-PVTZ AUX)
    Blend: AUG-CC-PVTZ-JKFIT
	 Reference Energy          =    -400.0867216895400134 [Eh]
	 Singles Energy            =      -0.0000000000000000 [Eh]
	 Same-Spin Energy          =      -0.4022804915068726 [Eh]
	 Opposite-Spin Energy      =      -1.3079163502183055 [Eh]
	 Correlation Energy        =      -1.7101968417251783 [Eh]
	 Total Energy              =    -401.7969185312651916 [Eh]

	 ================> DF-SCS-MP2 Energies <==================
	-----------------------------------------------------------
	 SCS Same-Spin Scale       =       0.3333333333333333 [-]
	 SCS Opposite-Spin Scale   =       1.2000000000000000 [-]
	 SCS Same-Spin Energy      =      -0.1340934971689575 [Eh]
	 SCS Opposite-Spin Energy  =      -1.5694996202619667 [Eh]
	 SCS Correlation Energy    =      -1.7035931174309242 [Eh]
	 SCS Total Energy          =    -401.7903148069709118 [Eh]
	-----------------------------------------------------------

  Dipole Moment: [D]
     X:     3.1171      Y:     3.1735      Z:    -1.0477     Total:     4.5701

*** Psi4 exiting successfully. Buy a developer a beer!
