                               Psi4 1.3.2 release

  ==> Input File <==

--------------------------------------------------------------------------
#psi4
#
memory 32 gb

molecule  {
0 1
  O       -2.5211540    -0.5137840     0.0284240
  O       -0.0903380    -1.4616610     0.1717700
  N        0.9302927     0.4276570    -0.5726660
  C       -1.5147550     0.4028960    -0.3432490
  C        2.2711600    -0.1378510    -0.5222970
  C       -0.1583790    -0.2975740    -0.2472510
  C       -1.5844930     1.6236140     0.5658530
  C        2.7852269     0.1022447     0.8907653
  H       -1.6669500     0.7105100    -1.3901450
  H        2.2044940    -1.2028750    -0.7525030
  H        2.8934660     0.3357800    -1.2867330
  H        0.8101310     1.3771570    -0.9023240
  H       -1.3564630     1.3269670     1.5921410
  H       -2.5982940     2.0269070     0.5395510
  H       -0.8919110     2.4138320     0.2596650
  H        2.9042670     1.1289430     1.1200310
  H        2.2261210    -0.4398610     1.6074960
  H        3.8631580    -0.3501450     0.9292180
  H       -2.0326010    -1.3422410     0.2291570
units angstrom
no_reorient  #important for SAPT in psi4, default
symmetry c1  #important for SAPT in psi4, default
}

set PROPERTIES_ORIGIN ["COM"]
properties('MP2/aug-cc-pvtz', properties = ['dipole'])
--------------------------------------------------------------------------

    Molecular point group: c1
  Charge       = 0
  Multiplicity = 1
  Basis Set: AUG-CC-PVTZ
    Blend: AUG-CC-PVTZ
  Basis Set: (AUG-CC-PVTZ AUX)
    Blend: AUG-CC-PVTZ-JKFIT

    Orbital Energies [Eh]
    ---------------------

    Doubly Occupied:

       1A    -20.548094     2A    -20.532124     3A    -15.597470
       4A    -11.358035     5A    -11.297821     6A    -11.275118
       7A    -11.230689     8A    -11.224091     9A     -1.398096
      10A     -1.346395    11A     -1.247307    12A     -1.053637
      13A     -1.011757    14A     -0.901175    15A     -0.850657
      16A     -0.795459    17A     -0.744244    18A     -0.677877
      19A     -0.651443    20A     -0.643737    21A     -0.615869
      22A     -0.599786    23A     -0.574141    24A     -0.562629
      25A     -0.539607    26A     -0.528586    27A     -0.521758
      28A     -0.515590    29A     -0.503966    30A     -0.445932
      31A     -0.434772    32A     -0.400760

  @DF-RHF Final Energy:  -400.07936422225987

   => Energetics <=

    Nuclear Repulsion Energy =            401.4093747607509499
    One-Electron Energy =               -1341.7202334606427030
    Two-Electron Energy =                 540.2314944776318271
    Total Energy =                       -400.0793642222598692
  Basis Set: (AUG-CC-PVTZ AUX)
    Blend: AUG-CC-PVTZ-RI
    Molecular point group: c1

    Geometry (in Angstrom), charge = 0, multiplicity = 1:

       Center              X                  Y                   Z               Mass
    ------------   -----------------  -----------------  -----------------  -----------------
         O           -2.514719318863    -0.520131864768     0.017579737456    15.994914619570
         O           -0.083903318863    -1.468008864768     0.160925737456    15.994914619570
         N            0.936727381137     0.421309135232    -0.583510262544    14.003074004430
         C           -1.508320318863     0.396548135232    -0.354093262544    12.000000000000
         C            2.277594681137    -0.144198864768    -0.533141262544    12.000000000000
         C           -0.151944318863    -0.303921864768    -0.258095262544    12.000000000000
         C           -1.578058318863     1.617266135232     0.555008737456    12.000000000000
         C            2.791661581137     0.095896835232     0.879921037456    12.000000000000
         H           -1.660515318863     0.704162135232    -1.400989262544     1.007825032230
         H            2.210928681137    -1.209222864768    -0.763347262544     1.007825032230
         H            2.899900681137     0.329432135232    -1.297577262544     1.007825032230
         H            0.816565681137     1.370809135232    -0.913168262544     1.007825032230
         H           -1.350028318863     1.320619135232     1.581296737456     1.007825032230
         H           -2.591859318863     2.020559135232     0.528706737456     1.007825032230
         H           -0.885476318863     2.407484135232     0.248820737456     1.007825032230
         H            2.910701681137     1.122595135232     1.109186737456     1.007825032230
         H            2.232555681137    -0.446208864768     1.596651737456     1.007825032230
         H            3.869592681137    -0.356492864768     0.918373737456     1.007825032230
         H           -2.026166318863    -1.348588864768     0.218312737456     1.007825032230

  Basis Set: AUG-CC-PVTZ
    Blend: AUG-CC-PVTZ
  Basis Set: (AUG-CC-PVTZ AUX)
    Blend: AUG-CC-PVTZ-JKFIT
	 Reference Energy          =    -400.0793642222598692 [Eh]
	 Singles Energy            =      -0.0000000000000000 [Eh]
	 Same-Spin Energy          =      -0.4024555849159096 [Eh]
	 Opposite-Spin Energy      =      -1.3083110637091573 [Eh]
	 Correlation Energy        =      -1.7107666486250670 [Eh]
	 Total Energy              =    -401.7901308708849228 [Eh]

	 ================> DF-SCS-MP2 Energies <==================
	-----------------------------------------------------------
	 SCS Same-Spin Scale       =       0.3333333333333333 [-]
	 SCS Opposite-Spin Scale   =       1.2000000000000000 [-]
	 SCS Same-Spin Energy      =      -0.1341518616386365 [Eh]
	 SCS Opposite-Spin Energy  =      -1.5699732764509886 [Eh]
	 SCS Correlation Energy    =      -1.7041251380896252 [Eh]
	 SCS Total Energy          =    -401.7834893603495061 [Eh]
	-----------------------------------------------------------

  Dipole Moment: [D]
     X:     3.0938      Y:     3.1935      Z:    -1.2171     Total:     4.6099

*** Psi4 exiting successfully. Buy a developer a beer!
