                               Psi4 1.3.2 release

  ==> Input File <==

--------------------------------------------------------------------------
#psi4
#
memory 32 gb

molecule  {
0 1
  O       -2.5211540    -0.5137840     0.0284240
  O       -0.0688894    -1.4611857     0.1690497
  N        0.9259230     0.4056680    -0.6455280
  C       -1.5025687     0.4246905    -0.3526918
  C        2.2711600    -0.1378510    -0.5222970
  C       -0.1583790    -0.2975740    -0.2472510
  C       -1.5844930     1.6236140     0.5658530
  C        2.8531060     0.0659690     0.8699860
  H       -1.6669500     0.7105100    -1.3901450
  H        2.2044940    -1.2028750    -0.7525030
  H        2.8934660     0.3357800    -1.2867330
  H        0.8101310     1.3771570    -0.9023240
  H       -1.3564630     1.3269670     1.5921410
  H       -2.5982940     2.0269070     0.5395510
  H       -0.8919110     2.4138320     0.2596650
  H        2.9042670     1.1289430     1.1200310
  H        2.2261210    -0.4398610     1.6074960
  H        3.8631580    -0.3501450     0.9292180
  H       -2.0326010    -1.3422410     0.2291570
units angstrom
no_reorient  #important for SAPT in psi4, default
symmetry c1  #important for SAPT in psi4, default
}

set PROPERTIES_ORIGIN ["COM"]
properties('MP2/aug-cc-pvtz', properties = ['dipole'])
--------------------------------------------------------------------------

    Molecular point group: c1
  Charge       = 0
  Multiplicity = 1
  Basis Set: AUG-CC-PVTZ
    Blend: AUG-CC-PVTZ
  Basis Set: (AUG-CC-PVTZ AUX)
    Blend: AUG-CC-PVTZ-JKFIT

    Orbital Energies [Eh]
    ---------------------

    Doubly Occupied:

       1A    -20.547152     2A    -20.533543     3A    -15.597692
       4A    -11.359725     5A    -11.299079     6A    -11.272935
       7A    -11.232583     8A    -11.223904     9A     -1.396276
      10A     -1.339614    11A     -1.244961    12A     -1.055548
      13A     -1.014277    14A     -0.904139    15A     -0.849558
      16A     -0.793968    17A     -0.741431    18A     -0.676655
      19A     -0.648335    20A     -0.642384    21A     -0.610328
      22A     -0.598568    23A     -0.575261    24A     -0.564261
      25A     -0.541517    26A     -0.534640    27A     -0.520891
      28A     -0.514583    29A     -0.501655    30A     -0.449471
      31A     -0.437256    32A     -0.402891

  @DF-RHF Final Energy:  -400.08632195589649

   => Energetics <=

    Nuclear Repulsion Energy =            400.2802694416114377
    One-Electron Energy =               -1339.4830208804323775
    Two-Electron Energy =                 539.1164294829245591
    Total Energy =                       -400.0863219558964374
  Basis Set: (AUG-CC-PVTZ AUX)
    Blend: AUG-CC-PVTZ-RI
    Molecular point group: c1

    Geometry (in Angstrom), charge = 0, multiplicity = 1:

       Center              X                  Y                   Z               Mass
    ------------   -----------------  -----------------  -----------------  -----------------
         O           -2.525333214783    -0.516082584384     0.029763548431    15.994914619570
         O           -0.073068614783    -1.463484284384     0.170389248431    15.994914619570
         N            0.921743785217     0.403369415616    -0.644188451569    14.003074004430
         C           -1.506747914783     0.422391915616    -0.351352251569    12.000000000000
         C            2.266980785217    -0.140149584384    -0.520957451569    12.000000000000
         C           -0.162558214783    -0.299872584384    -0.245911451569    12.000000000000
         C           -1.588672214783     1.621315415616     0.567192548431    12.000000000000
         C            2.848926785217     0.063670415616     0.871325548431    12.000000000000
         H           -1.671129214783     0.708211415616    -1.388805451569     1.007825032230
         H            2.200314785217    -1.205173584384    -0.751163451569     1.007825032230
         H            2.889286785217     0.333481415616    -1.285393451569     1.007825032230
         H            0.805951785217     1.374858415616    -0.900984451569     1.007825032230
         H           -1.360642214783     1.324668415616     1.593480548431     1.007825032230
         H           -2.602473214783     2.024608415616     0.540890548431     1.007825032230
         H           -0.896090214783     2.411533415616     0.261004548431     1.007825032230
         H            2.900087785217     1.126644415616     1.121370548431     1.007825032230
         H            2.221941785217    -0.442159584384     1.608835548431     1.007825032230
         H            3.858978785217    -0.352443584384     0.930557548431     1.007825032230
         H           -2.036780214783    -1.344539584384     0.230496548431     1.007825032230

  Basis Set: AUG-CC-PVTZ
    Blend: AUG-CC-PVTZ
  Basis Set: (AUG-CC-PVTZ AUX)
    Blend: AUG-CC-PVTZ-JKFIT
	 Reference Energy          =    -400.0863219558964943 [Eh]
	 Singles Energy            =      -0.0000000000000000 [Eh]
	 Same-Spin Energy          =      -0.4022106972729441 [Eh]
	 Opposite-Spin Energy      =      -1.3082037695129678 [Eh]
	 Correlation Energy        =      -1.7104144667859118 [Eh]
	 Total Energy              =    -401.7967364226823861 [Eh]

	 ================> DF-SCS-MP2 Energies <==================
	-----------------------------------------------------------
	 SCS Same-Spin Scale       =       0.3333333333333333 [-]
	 SCS Opposite-Spin Scale   =       1.2000000000000000 [-]
	 SCS Same-Spin Energy      =      -0.1340702324243147 [Eh]
	 SCS Opposite-Spin Energy  =      -1.5698445234155614 [Eh]
	 SCS Correlation Energy    =      -1.7039147558398759 [Eh]
	 SCS Total Energy          =    -401.7902367117363838 [Eh]
	-----------------------------------------------------------

  Dipole Moment: [D]
     X:     3.0712      Y:     3.2446      Z:    -1.0544     Total:     4.5904

*** Psi4 exiting successfully. Buy a developer a beer!
