                               Psi4 1.3.2 release

  ==> Input File <==

--------------------------------------------------------------------------
#psi4
#
memory 32 gb

molecule  {
0 1
  O       -2.5211540    -0.5137840     0.0284240
  O       -0.0903380    -1.4616610     0.1717700
  N        0.9259230     0.4056680    -0.6455280
  C       -1.5147550     0.4028960    -0.3432490
  C        2.2711600    -0.1378510    -0.5222970
  C       -0.1583790    -0.2975740    -0.2472510
  C       -1.5844930     1.6236140     0.5658530
  C        2.8531060     0.0659690     0.8699860
  H       -1.6669500     0.7105100    -1.3901450
  H        2.2044940    -1.2028750    -0.7525030
  H        2.8934660     0.3357800    -1.2867330
  H        0.8101310     1.3771570    -0.9023240
  H       -1.3564630     1.3269670     1.5921410
  H       -2.5982940     2.0269070     0.5395510
  H       -0.8919110     2.4138320     0.2596650
  H        2.9042670     1.1289430     1.1200310
  H        2.2261210    -0.4398610     1.6074960
  H        3.8631580    -0.3501450     0.9292180
  H       -2.1320513    -1.1735994     0.1882956
units angstrom
no_reorient  #important for SAPT in psi4, default
symmetry c1  #important for SAPT in psi4, default
}

set PROPERTIES_ORIGIN ["COM"]
properties('MP2/aug-cc-pvtz', properties = ['dipole'])
--------------------------------------------------------------------------

    Molecular point group: c1
  Charge       = 0
  Multiplicity = 1
  Basis Set: AUG-CC-PVTZ
    Blend: AUG-CC-PVTZ
  Basis Set: (AUG-CC-PVTZ AUX)
    Blend: AUG-CC-PVTZ-JKFIT

    Orbital Energies [Eh]
    ---------------------

    Doubly Occupied:

       1A    -20.535782     2A    -20.529857     3A    -15.597767
       4A    -11.358663     5A    -11.301982     6A    -11.273135
       7A    -11.233533     8A    -11.223740     9A     -1.429270
      10A     -1.375151    11A     -1.244668    12A     -1.061345
      13A     -1.017215    14A     -0.904690    15A     -0.857052
      16A     -0.796903    17A     -0.769237    18A     -0.684364
      19A     -0.657231    20A     -0.641897    21A     -0.612352
      22A     -0.599576    23A     -0.583342    24A     -0.567841
      25A     -0.548889    26A     -0.538566    27A     -0.526784
      28A     -0.520315    29A     -0.502474    30A     -0.455452
      31A     -0.432634    32A     -0.402042

  @DF-RHF Final Energy:  -400.04595092647509

   => Energetics <=

    Nuclear Repulsion Energy =            401.6070729236292891
    One-Electron Energy =               -1341.7385523253162773
    Two-Electron Energy =                 540.0855284752119587
    Total Energy =                       -400.0459509264750295
  Basis Set: (AUG-CC-PVTZ AUX)
    Blend: AUG-CC-PVTZ-RI
    Molecular point group: c1

    Geometry (in Angstrom), charge = 0, multiplicity = 1:

       Center              X                  Y                   Z               Mass
    ------------   -----------------  -----------------  -----------------  -----------------
         O           -2.520297873387    -0.515235505275     0.028775809847    15.994914619570
         O           -0.089481873387    -1.463112505275     0.172121809847    15.994914619570
         N            0.926779126613     0.404216494725    -0.645176190153    14.003074004430
         C           -1.513898873387     0.401444494725    -0.342897190153    12.000000000000
         C            2.272016126613    -0.139302505275    -0.521945190153    12.000000000000
         C           -0.157522873387    -0.299025505275    -0.246899190153    12.000000000000
         C           -1.583636873387     1.622162494725     0.566204809847    12.000000000000
         C            2.853962126613     0.064517494725     0.870337809847    12.000000000000
         H           -1.666093873387     0.709058494725    -1.389793190153     1.007825032230
         H            2.205350126613    -1.204326505275    -0.752151190153     1.007825032230
         H            2.894322126613     0.334328494725    -1.286381190153     1.007825032230
         H            0.810987126613     1.375705494725    -0.901972190153     1.007825032230
         H           -1.355606873387     1.325515494725     1.592492809847     1.007825032230
         H           -2.597437873387     2.025455494725     0.539902809847     1.007825032230
         H           -0.891054873387     2.412380494725     0.260016809847     1.007825032230
         H            2.905123126613     1.127491494725     1.120382809847     1.007825032230
         H            2.226977126613    -0.441312505275     1.607847809847     1.007825032230
         H            3.864014126613    -0.351596505275     0.929569809847     1.007825032230
         H           -2.131195173387    -1.175050905275     0.188647409847     1.007825032230

  Basis Set: AUG-CC-PVTZ
    Blend: AUG-CC-PVTZ
  Basis Set: (AUG-CC-PVTZ AUX)
    Blend: AUG-CC-PVTZ-JKFIT
	 Reference Energy          =    -400.0459509264750864 [Eh]
	 Singles Energy            =      -0.0000000000000000 [Eh]
	 Same-Spin Energy          =      -0.3992158644840786 [Eh]
	 Opposite-Spin Energy      =      -1.3021225669960381 [Eh]
	 Correlation Energy        =      -1.7013384314801168 [Eh]
	 Total Energy              =    -401.7472893579551965 [Eh]

	 ================> DF-SCS-MP2 Energies <==================
	-----------------------------------------------------------
	 SCS Same-Spin Scale       =       0.3333333333333333 [-]
	 SCS Opposite-Spin Scale   =       1.2000000000000000 [-]
	 SCS Same-Spin Energy      =      -0.1330719548280262 [Eh]
	 SCS Opposite-Spin Energy  =      -1.5625470803952457 [Eh]
	 SCS Correlation Energy    =      -1.6956190352232718 [Eh]
	 SCS Total Energy          =    -401.7415699616983602 [Eh]
	-----------------------------------------------------------

  Dipole Moment: [D]
     X:     2.8942      Y:     3.3819      Z:    -1.0860     Total:     4.5818

*** Psi4 exiting successfully. Buy a developer a beer!
