                               Psi4 1.3.2 release

  ==> Input File <==

--------------------------------------------------------------------------
#psi4
#
memory 32 gb

molecule  {
0 1
  O       -2.5211540    -0.5137840     0.0284240
  O       -0.0903380    -1.4616610     0.1717700
  N        0.9259230     0.4056680    -0.6455280
  C       -1.5147550     0.4028960    -0.3432490
  C        2.2711600    -0.1378510    -0.5222970
  C       -0.1583790    -0.2975740    -0.2472510
  C       -1.5931234     1.6538859     0.5229870
  C        2.8531060     0.0659690     0.8699860
  H       -1.6706273     0.7468830    -1.3782165
  H        2.2044940    -1.2028750    -0.7525030
  H        2.8934660     0.3357800    -1.2867330
  H        0.8101310     1.3771570    -0.9023240
  H       -1.3564630     1.3269670     1.5921410
  H       -2.5982940     2.0269070     0.5395510
  H       -0.8919110     2.4138320     0.2596650
  H        2.9042670     1.1289430     1.1200310
  H        2.2261210    -0.4398610     1.6074960
  H        3.8631580    -0.3501450     0.9292180
  H       -2.0326010    -1.3422410     0.2291570
units angstrom
no_reorient  #important for SAPT in psi4, default
symmetry c1  #important for SAPT in psi4, default
}

set PROPERTIES_ORIGIN ["COM"]
properties('MP2/aug-cc-pvtz', properties = ['dipole'])
--------------------------------------------------------------------------

    Molecular point group: c1
  Charge       = 0
  Multiplicity = 1
  Basis Set: AUG-CC-PVTZ
    Blend: AUG-CC-PVTZ
  Basis Set: (AUG-CC-PVTZ AUX)
    Blend: AUG-CC-PVTZ-JKFIT

    Orbital Energies [Eh]
    ---------------------

    Doubly Occupied:

       1A    -20.549906     2A    -20.534043     3A    -15.599123
       4A    -11.360265     5A    -11.298630     6A    -11.273933
       7A    -11.231456     8A    -11.224431     9A     -1.398857
      10A     -1.347220    11A     -1.246321    12A     -1.053559
      13A     -1.013589    14A     -0.903060    15A     -0.849245
      16A     -0.794534    17A     -0.744881    18A     -0.677442
      19A     -0.649645    20A     -0.642628    21A     -0.611760
      22A     -0.600238    23A     -0.576513    24A     -0.572185
      25A     -0.543182    26A     -0.526673    27A     -0.521439
      28A     -0.514650    29A     -0.502995    30A     -0.444216
      31A     -0.437027    32A     -0.403577

  @DF-RHF Final Energy:  -400.08427746088609

   => Energetics <=

    Nuclear Repulsion Energy =            400.2326990810964276
    One-Electron Energy =               -1339.3395049538066814
    Two-Electron Energy =                 539.0225284118242826
    Total Energy =                       -400.0842774608860282
  Basis Set: (AUG-CC-PVTZ AUX)
    Blend: AUG-CC-PVTZ-RI
    Molecular point group: c1

    Geometry (in Angstrom), charge = 0, multiplicity = 1:

       Center              X                  Y                   Z               Mass
    ------------   -----------------  -----------------  -----------------  -----------------
         O           -2.520237722767    -0.517199642618     0.032714937288    15.994914619570
         O           -0.089421722767    -1.465076642618     0.176060937288    15.994914619570
         N            0.926839277233     0.402252357382    -0.641237062712    14.003074004430
         C           -1.513838722767     0.399480357382    -0.338958062712    12.000000000000
         C            2.272076277233    -0.141266642618    -0.518006062712    12.000000000000
         C           -0.157462722767    -0.300989642618    -0.242960062712    12.000000000000
         C           -1.592207122767     1.650470257382     0.527277937288    12.000000000000
         C            2.854022277233     0.062553357382     0.874276937288    12.000000000000
         H           -1.669711022767     0.743467357382    -1.373925562712     1.007825032230
         H            2.205410277233    -1.206290642618    -0.748212062712     1.007825032230
         H            2.894382277233     0.332364357382    -1.282442062712     1.007825032230
         H            0.811047277233     1.373741357382    -0.898033062712     1.007825032230
         H           -1.355546722767     1.323551357382     1.596431937288     1.007825032230
         H           -2.597377722767     2.023491357382     0.543841937288     1.007825032230
         H           -0.890994722767     2.410416357382     0.263955937288     1.007825032230
         H            2.905183277233     1.125527357382     1.124321937288     1.007825032230
         H            2.227037277233    -0.443276642618     1.611786937288     1.007825032230
         H            3.864074277233    -0.353560642618     0.933508937288     1.007825032230
         H           -2.031684722767    -1.345656642618     0.233447937288     1.007825032230

  Basis Set: AUG-CC-PVTZ
    Blend: AUG-CC-PVTZ
  Basis Set: (AUG-CC-PVTZ AUX)
    Blend: AUG-CC-PVTZ-JKFIT
	 Reference Energy          =    -400.0842774608860850 [Eh]
	 Singles Energy            =      -0.0000000000000000 [Eh]
	 Same-Spin Energy          =      -0.4021838301035753 [Eh]
	 Opposite-Spin Energy      =      -1.3078175936375933 [Eh]
	 Correlation Energy        =      -1.7100014237411685 [Eh]
	 Total Energy              =    -401.7942788846272606 [Eh]

	 ================> DF-SCS-MP2 Energies <==================
	-----------------------------------------------------------
	 SCS Same-Spin Scale       =       0.3333333333333333 [-]
	 SCS Opposite-Spin Scale   =       1.2000000000000000 [-]
	 SCS Same-Spin Energy      =      -0.1340612767011918 [Eh]
	 SCS Opposite-Spin Energy  =      -1.5693811123651120 [Eh]
	 SCS Correlation Energy    =      -1.7034423890663037 [Eh]
	 SCS Total Energy          =    -401.7877198499523956 [Eh]
	-----------------------------------------------------------

  Dipole Moment: [D]
     X:     3.1002      Y:     3.1806      Z:    -1.0638     Total:     4.5672

*** Psi4 exiting successfully. Buy a developer a beer!
