                               Psi4 1.3.2 release

  ==> Input File <==

--------------------------------------------------------------------------
#psi4
#
memory 32 gb

molecule  {
0 1
  O       -2.5211540    -0.5137840     0.0284240
  O       -0.0903380    -1.4616610     0.1717700
  N        0.9252405     0.3821892    -0.7180523
  C       -1.5147550     0.4028960    -0.3432490
  C        2.2711600    -0.1378510    -0.5222970
  C       -0.1583790    -0.2975740    -0.2472510
  C       -1.5844930     1.6236140     0.5658530
  C        2.9193900     0.0291347     0.8453906
  H       -1.6669500     0.7105100    -1.3901450
  H        2.2044940    -1.2028750    -0.7525030
  H        2.8934660     0.3357800    -1.2867330
  H        0.8101310     1.3771570    -0.9023240
  H       -1.3564630     1.3269670     1.5921410
  H       -2.5982940     2.0269070     0.5395510
  H       -0.8919110     2.4138320     0.2596650
  H        2.9042670     1.1289430     1.1200310
  H        2.2261210    -0.4398610     1.6074960
  H        3.8631580    -0.3501450     0.9292180
  H       -2.0326010    -1.3422410     0.2291570
units angstrom
no_reorient  #important for SAPT in psi4, default
symmetry c1  #important for SAPT in psi4, default
}

set PROPERTIES_ORIGIN ["COM"]
properties('MP2/aug-cc-pvtz', properties = ['dipole'])
--------------------------------------------------------------------------

    Molecular point group: c1
  Charge       = 0
  Multiplicity = 1
  Basis Set: AUG-CC-PVTZ
    Blend: AUG-CC-PVTZ
  Basis Set: (AUG-CC-PVTZ AUX)
    Blend: AUG-CC-PVTZ-JKFIT

    Orbital Energies [Eh]
    ---------------------

    Doubly Occupied:

       1A    -20.549671     2A    -20.536977     3A    -15.601098
       4A    -11.361729     5A    -11.299484     6A    -11.272759
       7A    -11.232594     8A    -11.226805     9A     -1.399874
      10A     -1.347920    11A     -1.243891    12A     -1.052777
      13A     -1.014455    14A     -0.905476    15A     -0.849337
      16A     -0.790088    17A     -0.744799    18A     -0.677238
      19A     -0.647206    20A     -0.642772    21A     -0.616046
      22A     -0.594427    23A     -0.583108    24A     -0.565663
      25A     -0.552922    26A     -0.536932    27A     -0.518967
      28A     -0.513322    29A     -0.488709    30A     -0.446900
      31A     -0.438966    32A     -0.405846

  @DF-RHF Final Energy:  -400.07823982676814

   => Energetics <=

    Nuclear Repulsion Energy =            399.3821816650201413
    One-Electron Energy =               -1337.6033278269339917
    Two-Electron Energy =                 538.1429063351456534
    Total Energy =                       -400.0782398267681401
  Basis Set: (AUG-CC-PVTZ AUX)
    Blend: AUG-CC-PVTZ-RI
    Molecular point group: c1

    Geometry (in Angstrom), charge = 0, multiplicity = 1:

       Center              X                  Y                   Z               Mass
    ------------   -----------------  -----------------  -----------------  -----------------
         O           -2.527866092844    -0.507200346349     0.039619146657    15.994914619570
         O           -0.097050092844    -1.455077346349     0.182965146657    15.994914619570
         N            0.918528407156     0.388772853651    -0.706857153343    14.003074004430
         C           -1.521467092844     0.409479653651    -0.332053853343    12.000000000000
         C            2.264447907156    -0.131267346349    -0.511101853343    12.000000000000
         C           -0.165091092844    -0.290990346349    -0.236055853343    12.000000000000
         C           -1.591205092844     1.630197653651     0.577048146657    12.000000000000
         C            2.912677907156     0.035718353651     0.856585746657    12.000000000000
         H           -1.673662092844     0.717093653651    -1.378949853343     1.007825032230
         H            2.197781907156    -1.196291346349    -0.741307853343     1.007825032230
         H            2.886753907156     0.342363653651    -1.275537853343     1.007825032230
         H            0.803418907156     1.383740653651    -0.891128853343     1.007825032230
         H           -1.363175092844     1.333550653651     1.603336146657     1.007825032230
         H           -2.605006092844     2.033490653651     0.550746146657     1.007825032230
         H           -0.898623092844     2.420415653651     0.270860146657     1.007825032230
         H            2.897554907156     1.135526653651     1.131226146657     1.007825032230
         H            2.219408907156    -0.433277346349     1.618691146657     1.007825032230
         H            3.856445907156    -0.343561346349     0.940413146657     1.007825032230
         H           -2.039313092844    -1.335657346349     0.240352146657     1.007825032230

  Basis Set: AUG-CC-PVTZ
    Blend: AUG-CC-PVTZ
  Basis Set: (AUG-CC-PVTZ AUX)
    Blend: AUG-CC-PVTZ-JKFIT
	 Reference Energy          =    -400.0782398267681401 [Eh]
	 Singles Energy            =      -0.0000000000000000 [Eh]
	 Same-Spin Energy          =      -0.4021838090155494 [Eh]
	 Opposite-Spin Energy      =      -1.3082296113744960 [Eh]
	 Correlation Energy        =      -1.7104134203900454 [Eh]
	 Total Energy              =    -401.7886532471582086 [Eh]

	 ================> DF-SCS-MP2 Energies <==================
	-----------------------------------------------------------
	 SCS Same-Spin Scale       =       0.3333333333333333 [-]
	 SCS Opposite-Spin Scale   =       1.2000000000000000 [-]
	 SCS Same-Spin Energy      =      -0.1340612696718498 [Eh]
	 SCS Opposite-Spin Energy  =      -1.5698755336493952 [Eh]
	 SCS Correlation Energy    =      -1.7039368033212450 [Eh]
	 SCS Total Energy          =    -401.7821766300893955 [Eh]
	-----------------------------------------------------------

  Dipole Moment: [D]
     X:     3.0036      Y:     3.1286      Z:    -0.8737     Total:     4.4241

*** Psi4 exiting successfully. Buy a developer a beer!
