                               Psi4 1.3.2 release

  ==> Input File <==

--------------------------------------------------------------------------
#psi4
#
memory 32 gb

molecule  {
0 1
  O       -2.5211540    -0.5137840     0.0284240
  O       -0.0903380    -1.4616610     0.1717700
  N        0.9284270     0.4204967    -0.5969785
  C       -1.5147550     0.4028960    -0.3432490
  C        2.2711600    -0.1378510    -0.5222970
  C       -0.1583790    -0.2975740    -0.2472510
  C       -1.5844930     1.6236140     0.5658530
  C        2.8080191     0.0902210     0.8842666
  H       -1.6669500     0.7105100    -1.3901450
  H        2.2044940    -1.2028750    -0.7525030
  H        2.8934660     0.3357800    -1.2867330
  H        0.8101310     1.3771570    -0.9023240
  H       -1.3564630     1.3269670     1.5921410
  H       -2.5982940     2.0269070     0.5395510
  H       -0.8919110     2.4138320     0.2596650
  H        2.9042670     1.1289430     1.1200310
  H        2.2261210    -0.4398610     1.6074960
  H        3.8631580    -0.3501450     0.9292180
  H       -2.0326010    -1.3422410     0.2291570
units angstrom
no_reorient  #important for SAPT in psi4, default
symmetry c1  #important for SAPT in psi4, default
}

set PROPERTIES_ORIGIN ["COM"]
properties('MP2/aug-cc-pvtz', properties = ['dipole'])
--------------------------------------------------------------------------

    Molecular point group: c1
  Charge       = 0
  Multiplicity = 1
  Basis Set: AUG-CC-PVTZ
    Blend: AUG-CC-PVTZ
  Basis Set: (AUG-CC-PVTZ AUX)
    Blend: AUG-CC-PVTZ-JKFIT

    Orbital Energies [Eh]
    ---------------------

    Doubly Occupied:

       1A    -20.548139     2A    -20.532309     3A    -15.597743
       4A    -11.358251     5A    -11.297848     6A    -11.274625
       7A    -11.230869     8A    -11.223919     9A     -1.398080
      10A     -1.346407    11A     -1.246905    12A     -1.053347
      13A     -1.012093    14A     -0.901727    15A     -0.850153
      16A     -0.795421    17A     -0.744137    18A     -0.677575
      19A     -0.650668    20A     -0.642996    21A     -0.613701
      22A     -0.599988    23A     -0.574307    24A     -0.562795
      25A     -0.539770    26A     -0.528646    27A     -0.523473
      28A     -0.514713    29A     -0.506517    30A     -0.445892
      31A     -0.435056    32A     -0.401751

  @DF-RHF Final Energy:  -400.08396832216704

   => Energetics <=

    Nuclear Repulsion Energy =            401.0967691838985729
    One-Electron Energy =               -1341.1018341860374221
    Two-Electron Energy =                 539.9210966799718108
    Total Energy =                       -400.0839683221670384
  Basis Set: (AUG-CC-PVTZ AUX)
    Blend: AUG-CC-PVTZ-RI
    Molecular point group: c1

    Geometry (in Angstrom), charge = 0, multiplicity = 1:

       Center              X                  Y                   Z               Mass
    ------------   -----------------  -----------------  -----------------  -----------------
         O           -2.516832258930    -0.518043098589     0.021153685075    15.994914619570
         O           -0.086016258930    -1.465920098589     0.164499685075    15.994914619570
         N            0.932748741070     0.416237601411    -0.604248814925    14.003074004430
         C           -1.510433258930     0.398636901411    -0.350519314925    12.000000000000
         C            2.275481741070    -0.142110098589    -0.529567314925    12.000000000000
         C           -0.154057258930    -0.301833098589    -0.254521314925    12.000000000000
         C           -1.580171258930     1.619354901411     0.558582685075    12.000000000000
         C            2.812340841070     0.085961901411     0.876996285075    12.000000000000
         H           -1.662628258930     0.706250901411    -1.397415314925     1.007825032230
         H            2.208815741070    -1.207134098589    -0.759773314925     1.007825032230
         H            2.897787741070     0.331520901411    -1.294003314925     1.007825032230
         H            0.814452741070     1.372897901411    -0.909594314925     1.007825032230
         H           -1.352141258930     1.322707901411     1.584870685075     1.007825032230
         H           -2.593972258930     2.022647901411     0.532280685075     1.007825032230
         H           -0.887589258930     2.409572901411     0.252394685075     1.007825032230
         H            2.908588741070     1.124683901411     1.112760685075     1.007825032230
         H            2.230442741070    -0.444120098589     1.600225685075     1.007825032230
         H            3.867479741070    -0.354404098589     0.921947685075     1.007825032230
         H           -2.028279258930    -1.346500098589     0.221886685075     1.007825032230

  Basis Set: AUG-CC-PVTZ
    Blend: AUG-CC-PVTZ
  Basis Set: (AUG-CC-PVTZ AUX)
    Blend: AUG-CC-PVTZ-JKFIT
	 Reference Energy          =    -400.0839683221670384 [Eh]
	 Singles Energy            =      -0.0000000000000000 [Eh]
	 Same-Spin Energy          =      -0.4022962614796881 [Eh]
	 Opposite-Spin Energy      =      -1.3079493066787344 [Eh]
	 Correlation Energy        =      -1.7102455681584225 [Eh]
	 Total Energy              =    -401.7942138903254659 [Eh]

	 ================> DF-SCS-MP2 Energies <==================
	-----------------------------------------------------------
	 SCS Same-Spin Scale       =       0.3333333333333333 [-]
	 SCS Opposite-Spin Scale   =       1.2000000000000000 [-]
	 SCS Same-Spin Energy      =      -0.1340987538265627 [Eh]
	 SCS Opposite-Spin Energy  =      -1.5695391680144812 [Eh]
	 SCS Correlation Energy    =      -1.7036379218410440 [Eh]
	 SCS Total Energy          =    -401.7876062440080887 [Eh]
	-----------------------------------------------------------

  Dipole Moment: [D]
     X:     3.1062      Y:     3.1902      Z:    -1.1595     Total:     4.6011

*** Psi4 exiting successfully. Buy a developer a beer!
