                               Psi4 1.4a3.dev225

  ==> Input File <==

--------------------------------------------------------------------------
#psi4
#
memory 32 gb

molecule  {
0 1
  O       -1.5707600    -1.5123310    -0.2332890
  O        0.1382410     1.6075510    -0.3059650
  N        0.6999210    -0.4896500     0.4239600
  C       -1.5456480    -0.0933390    -0.4361750
  C        2.0783650    -0.1398720     0.7271540
  C       -0.1011585     0.4365925    -0.1015400
  C       -2.5680410     0.6261290     0.4306590
  C        2.9727550    -0.1683320    -0.5071050
  H       -1.7217520     0.1422920    -1.4952760
  H        2.0695770     0.8628690     1.1612900
  H        2.4371510    -0.8367210     1.4904630
  H        0.3848370    -1.4513440     0.4597870
  H       -2.3944150     0.3774590     1.4809910
  H       -3.5869010     0.3276930     0.1608950
  H       -2.4702460     1.7050790     0.2962630
  H        2.9788310    -1.1637080    -0.9596270
  H        2.6039680     0.5505970    -1.2414500
  H        4.0012360     0.0983730    -0.2444710
  H       -2.4840080    -1.8129070    -0.3767550
units angstrom
no_reorient  #important for SAPT in psi4, default
symmetry c1  #important for SAPT in psi4, default
}

set PROPERTIES_ORIGIN ["COM"]
properties('MP2/aug-cc-pvtz', properties = ['dipole'])
--------------------------------------------------------------------------

    Molecular point group: c1
  Charge       = 0
  Multiplicity = 1
  Basis Set: AUG-CC-PVTZ
    Blend: AUG-CC-PVTZ
  Basis Set: (AUG-CC-PVTZ AUX)
    Blend: AUG-CC-PVTZ-JKFIT

    Orbital Energies [Eh]
    ---------------------

    Doubly Occupied:

       1A    -20.578403     2A    -20.512338     3A    -15.579112
       4A    -11.340828     5A    -11.297982     6A    -11.260761
       7A    -11.226071     8A    -11.213589     9A     -1.390070
      10A     -1.369132    11A     -1.235284    12A     -1.038268
      13A     -1.010438    14A     -0.895185    15A     -0.841407
      16A     -0.784175    17A     -0.713705    18A     -0.693385
      19A     -0.639208    20A     -0.637455    21A     -0.609858
      22A     -0.594060    23A     -0.587221    24A     -0.555838
      25A     -0.537672    26A     -0.526566    27A     -0.520365
      28A     -0.512574    29A     -0.492587    30A     -0.459246
      31A     -0.408980    32A     -0.389228

  @DF-RHF Final Energy:  -400.08746953259038

   => Energetics <=

    Nuclear Repulsion Energy =            400.1042842769909385
    One-Electron Energy =               -1339.4815256684105407
    Two-Electron Energy =                 539.2897718588292264
    Total Energy =                       -400.0874695325903758
  Basis Set: (AUG-CC-PVTZ AUX)
    Blend: AUG-CC-PVTZ-RI
    Molecular point group: c1

    Geometry (in Angstrom), charge = 0, multiplicity = 1:

       Center              X                  Y                   Z               Mass
    ------------   -----------------  -----------------  -----------------  -----------------
         O           -1.560133007293    -1.524210690730    -0.228208466704    15.994914619570
         O            0.148867992707     1.595671309270    -0.300884466704    15.994914619570
         N            0.710547992707    -0.501529690730     0.429040533296    14.003074004430
         C           -1.535021007293    -0.105218690730    -0.431094466704    12.000000000000
         C            2.088991992707    -0.151751690730     0.732234533296    12.000000000000
         C           -0.090531507293     0.424712809270    -0.096459466704    12.000000000000
         C           -2.557414007293     0.614249309270     0.435739533296    12.000000000000
         C            2.983381992707    -0.180211690730    -0.502024466704    12.000000000000
         H           -1.711125007293     0.130412309270    -1.490195466704     1.007825032230
         H            2.080203992707     0.850989309270     1.166370533296     1.007825032230
         H            2.447777992707    -0.848600690730     1.495543533296     1.007825032230
         H            0.395463992707    -1.463223690730     0.464867533296     1.007825032230
         H           -2.383788007293     0.365579309270     1.486071533296     1.007825032230
         H           -3.576274007293     0.315813309270     0.165975533296     1.007825032230
         H           -2.459619007293     1.693199309270     0.301343533296     1.007825032230
         H            2.989457992707    -1.175587690730    -0.954546466704     1.007825032230
         H            2.614594992707     0.538717309270    -1.236369466704     1.007825032230
         H            4.011862992707     0.086493309270    -0.239390466704     1.007825032230
         H           -2.473381007293    -1.824786690730    -0.371674466704     1.007825032230

  Basis Set: AUG-CC-PVTZ
    Blend: AUG-CC-PVTZ
  Basis Set: (AUG-CC-PVTZ AUX)
    Blend: AUG-CC-PVTZ-JKFIT
	 Reference Energy          =    -400.0874695325903758 [Eh]
	 Singles Energy            =      -0.0000000000000000 [Eh]
	 Same-Spin Energy          =      -0.4009742708031496 [Eh]
	 Opposite-Spin Energy      =      -1.3061809342182700 [Eh]
	 Correlation Energy        =      -1.7071552050214196 [Eh]
	 Total Energy              =    -401.7946247376117981 [Eh]

	 ================> DF-SCS-MP2 Energies <==================
	-----------------------------------------------------------
	 SCS Same-Spin Scale       =       0.3333333333333333 [-]
	 SCS Opposite-Spin Scale   =       1.2000000000000000 [-]
	 SCS Same-Spin Energy      =      -0.1336580902677165 [Eh]
	 SCS Opposite-Spin Energy  =      -1.5674171210619239 [Eh]
	 SCS Correlation Energy    =      -1.7010752113296403 [Eh]
	 SCS Total Energy          =    -401.7885447439199993 [Eh]
	-----------------------------------------------------------

  Dipole Moment: [D]
     X:    -0.9221      Y:    -2.7005      Z:     0.5111     Total:     2.8990

*** Psi4 exiting successfully. Buy a developer a beer!
