                               Psi4 1.3.2 release

  ==> Input File <==

--------------------------------------------------------------------------
#psi4
#
memory 32 gb

molecule  {
0 1
  O       -2.5492048    -0.5076085    -0.0396420
  O       -0.0903380    -1.4616610     0.1717700
  N        0.9259230     0.4056680    -0.6455280
  C       -1.5147550     0.4028960    -0.3432490
  C        2.2711600    -0.1378510    -0.5222970
  C       -0.1583790    -0.2975740    -0.2472510
  C       -1.5844930     1.6236140     0.5658530
  C        2.8531060     0.0659690     0.8699860
  H       -1.7131690     0.6760514    -1.3919620
  H        2.2044940    -1.2028750    -0.7525030
  H        2.8934660     0.3357800    -1.2867330
  H        0.8101310     1.3771570    -0.9023240
  H       -1.3564630     1.3269670     1.5921410
  H       -2.5982940     2.0269070     0.5395510
  H       -0.8919110     2.4138320     0.2596650
  H        2.9042670     1.1289430     1.1200310
  H        2.2261210    -0.4398610     1.6074960
  H        3.8631580    -0.3501450     0.9292180
  H       -2.0326010    -1.3422410     0.2291570
units angstrom
no_reorient  #important for SAPT in psi4, default
symmetry c1  #important for SAPT in psi4, default
}

set PROPERTIES_ORIGIN ["COM"]
properties('MP2/aug-cc-pvtz', properties = ['dipole'])
--------------------------------------------------------------------------

    Molecular point group: c1
  Charge       = 0
  Multiplicity = 1
  Basis Set: AUG-CC-PVTZ
    Blend: AUG-CC-PVTZ
  Basis Set: (AUG-CC-PVTZ AUX)
    Blend: AUG-CC-PVTZ-JKFIT

    Orbital Energies [Eh]
    ---------------------

    Doubly Occupied:

       1A    -20.549949     2A    -20.535083     3A    -15.599520
       4A    -11.360573     5A    -11.296635     6A    -11.274262
       7A    -11.232079     8A    -11.224842     9A     -1.397663
      10A     -1.342274    11A     -1.246656    12A     -1.051785
      13A     -1.012360    14A     -0.903038    15A     -0.848846
      16A     -0.794762    17A     -0.743126    18A     -0.673707
      19A     -0.643892    20A     -0.643132    21A     -0.611141
      22A     -0.600375    23A     -0.575964    24A     -0.563926
      25A     -0.543753    26A     -0.533590    27A     -0.522182
      28A     -0.514291    29A     -0.503390    30A     -0.442670
      31A     -0.437751    32A     -0.404253

  @DF-RHF Final Energy:  -400.08308667095451

   => Energetics <=

    Nuclear Repulsion Energy =            399.8140690370719312
    One-Electron Energy =               -1338.5393685663859742
    Two-Electron Energy =                 538.6422128583595850
    Total Energy =                       -400.0830866709544580
  Basis Set: (AUG-CC-PVTZ AUX)
    Blend: AUG-CC-PVTZ-RI
    Molecular point group: c1

    Geometry (in Angstrom), charge = 0, multiplicity = 1:

       Center              X                  Y                   Z               Mass
    ------------   -----------------  -----------------  -----------------  -----------------
         O           -2.544974691831    -0.508155377718    -0.030327352012    15.994914619570
         O           -0.086107891831    -1.462207877718     0.181084647988    15.994914619570
         N            0.930153108169     0.405121122282    -0.636213352012    14.003074004430
         C           -1.510524891831     0.402349122282    -0.333934352012    12.000000000000
         C            2.275390108169    -0.138397877718    -0.512982352012    12.000000000000
         C           -0.154148891831    -0.298120877718    -0.237936352012    12.000000000000
         C           -1.580262891831     1.623067122282     0.575167647988    12.000000000000
         C            2.857336108169     0.065422122282     0.879300647988    12.000000000000
         H           -1.708938891831     0.675504522282    -1.382647352012     1.007825032230
         H            2.208724108169    -1.203421877718    -0.743188352012     1.007825032230
         H            2.897696108169     0.335233122282    -1.277418352012     1.007825032230
         H            0.814361108169     1.376610122282    -0.893009352012     1.007825032230
         H           -1.352232891831     1.326420122282     1.601455647988     1.007825032230
         H           -2.594063891831     2.026360122282     0.548865647988     1.007825032230
         H           -0.887680891831     2.413285122282     0.268979647988     1.007825032230
         H            2.908497108169     1.128396122282     1.129345647988     1.007825032230
         H            2.230351108169    -0.440407877718     1.616810647988     1.007825032230
         H            3.867388108169    -0.350691877718     0.938532647988     1.007825032230
         H           -2.028370891831    -1.342787877718     0.238471647988     1.007825032230

  Basis Set: AUG-CC-PVTZ
    Blend: AUG-CC-PVTZ
  Basis Set: (AUG-CC-PVTZ AUX)
    Blend: AUG-CC-PVTZ-JKFIT
	 Reference Energy          =    -400.0830866709545148 [Eh]
	 Singles Energy            =      -0.0000000000000000 [Eh]
	 Same-Spin Energy          =      -0.4026792561476231 [Eh]
	 Opposite-Spin Energy      =      -1.3089841478050854 [Eh]
	 Correlation Energy        =      -1.7116634039527086 [Eh]
	 Total Energy              =    -401.7947500749071992 [Eh]

	 ================> DF-SCS-MP2 Energies <==================
	-----------------------------------------------------------
	 SCS Same-Spin Scale       =       0.3333333333333333 [-]
	 SCS Opposite-Spin Scale   =       1.2000000000000000 [-]
	 SCS Same-Spin Energy      =      -0.1342264187158744 [Eh]
	 SCS Opposite-Spin Energy  =      -1.5707809773661026 [Eh]
	 SCS Correlation Energy    =      -1.7050073960819769 [Eh]
	 SCS Total Energy          =    -401.7880940670364680 [Eh]
	-----------------------------------------------------------

  Dipole Moment: [D]
     X:     3.1807      Y:     3.1794      Z:    -0.9143     Total:     4.5893

*** Psi4 exiting successfully. Buy a developer a beer!
