                               Psi4 1.3.2 release

  ==> Input File <==

--------------------------------------------------------------------------
#psi4
#
memory 32 gb

molecule  {
0 1
  O       -2.5211540    -0.5137840     0.0284240
  O       -0.0903380    -1.4616610     0.1717700
  N        0.9259230     0.4056680    -0.6455280
  C       -1.5147550     0.4028960    -0.3432490
  C        2.2711600    -0.1378510    -0.5222970
  C       -0.1504718    -0.2793149    -0.2294533
  C       -1.5595854     1.6188061     0.5738306
  C        2.8531060     0.0659690     0.8699860
  H       -1.6669500     0.7105100    -1.3901450
  H        2.2044940    -1.2028750    -0.7525030
  H        2.8934660     0.3357800    -1.2867330
  H        0.8101310     1.3771570    -0.9023240
  H       -1.3564630     1.3269670     1.5921410
  H       -2.5982940     2.0269070     0.5395510
  H       -0.8919110     2.4138320     0.2596650
  H        2.9042670     1.1289430     1.1200310
  H        2.2261210    -0.4398610     1.6074960
  H        3.8631580    -0.3501450     0.9292180
  H       -2.0326010    -1.3422410     0.2291570
units angstrom
no_reorient  #important for SAPT in psi4, default
symmetry c1  #important for SAPT in psi4, default
}

set PROPERTIES_ORIGIN ["COM"]
properties('MP2/aug-cc-pvtz', properties = ['dipole'])
--------------------------------------------------------------------------

    Molecular point group: c1
  Charge       = 0
  Multiplicity = 1
  Basis Set: AUG-CC-PVTZ
    Blend: AUG-CC-PVTZ
  Basis Set: (AUG-CC-PVTZ AUX)
    Blend: AUG-CC-PVTZ-JKFIT

    Orbital Energies [Eh]
    ---------------------

    Doubly Occupied:

       1A    -20.548644     2A    -20.530422     3A    -15.600866
       4A    -11.358369     5A    -11.298572     6A    -11.274795
       7A    -11.231280     8A    -11.225163     9A     -1.393302
      10A     -1.344884    11A     -1.248300    12A     -1.054605
      13A     -1.014109    14A     -0.902892    15A     -0.850365
      16A     -0.796248    17A     -0.744156    18A     -0.677778
      19A     -0.650508    20A     -0.639225    21A     -0.612323
      22A     -0.599390    23A     -0.576857    24A     -0.557673
      25A     -0.546428    26A     -0.537922    27A     -0.518950
      28A     -0.512934    29A     -0.502000    30A     -0.446506
      31A     -0.433689    32A     -0.404163

  @DF-RHF Final Energy:  -400.08557634048839

   => Energetics <=

    Nuclear Repulsion Energy =            400.6292105635747589
    One-Electron Energy =               -1340.1629423871395375
    Two-Electron Energy =                 539.4481554830763343
    Total Energy =                       -400.0855763404883874
  Basis Set: (AUG-CC-PVTZ AUX)
    Blend: AUG-CC-PVTZ-RI
    Molecular point group: c1

    Geometry (in Angstrom), charge = 0, multiplicity = 1:

       Center              X                  Y                   Z               Mass
    ------------   -----------------  -----------------  -----------------  -----------------
         O           -2.524517299519    -0.515162504758     0.025782234519    15.994914619570
         O           -0.093701299519    -1.463039504758     0.169128234519    15.994914619570
         N            0.922559700481     0.404289495242    -0.648169765481    14.003074004430
         C           -1.518118299519     0.401517495242    -0.345890765481    12.000000000000
         C            2.267796700481    -0.139229504758    -0.524938765481    12.000000000000
         C           -0.153835099519    -0.280693404758    -0.232095065481    12.000000000000
         C           -1.562948699519     1.617427595242     0.571188834519    12.000000000000
         C            2.849742700481     0.064590495242     0.867344234519    12.000000000000
         H           -1.670313299519     0.709131495242    -1.392786765481     1.007825032230
         H            2.201130700481    -1.204253504758    -0.755144765481     1.007825032230
         H            2.890102700481     0.334401495242    -1.289374765481     1.007825032230
         H            0.806767700481     1.375778495242    -0.904965765481     1.007825032230
         H           -1.359826299519     1.325588495242     1.589499234519     1.007825032230
         H           -2.601657299519     2.025528495242     0.536909234519     1.007825032230
         H           -0.895274299519     2.412453495242     0.257023234519     1.007825032230
         H            2.900903700481     1.127564495242     1.117389234519     1.007825032230
         H            2.222757700481    -0.441239504758     1.604854234519     1.007825032230
         H            3.859794700481    -0.351523504758     0.926576234519     1.007825032230
         H           -2.035964299519    -1.343619504758     0.226515234519     1.007825032230

  Basis Set: AUG-CC-PVTZ
    Blend: AUG-CC-PVTZ
  Basis Set: (AUG-CC-PVTZ AUX)
    Blend: AUG-CC-PVTZ-JKFIT
	 Reference Energy          =    -400.0855763404883874 [Eh]
	 Singles Energy            =      -0.0000000000000000 [Eh]
	 Same-Spin Energy          =      -0.4024201017059028 [Eh]
	 Opposite-Spin Energy      =      -1.3081726550167456 [Eh]
	 Correlation Energy        =      -1.7105927567226484 [Eh]
	 Total Energy              =    -401.7961690972110205 [Eh]

	 ================> DF-SCS-MP2 Energies <==================
	-----------------------------------------------------------
	 SCS Same-Spin Scale       =       0.3333333333333333 [-]
	 SCS Opposite-Spin Scale   =       1.2000000000000000 [-]
	 SCS Same-Spin Energy      =      -0.1341400339019676 [Eh]
	 SCS Opposite-Spin Energy  =      -1.5698071860200946 [Eh]
	 SCS Correlation Energy    =      -1.7039472199220622 [Eh]
	 SCS Total Energy          =    -401.7895235604104300 [Eh]
	-----------------------------------------------------------

  Dipole Moment: [D]
     X:     3.1666      Y:     3.2470      Z:    -1.0606     Total:     4.6578

*** Psi4 exiting successfully. Buy a developer a beer!
