                               Psi4 1.3.2 release

  ==> Input File <==

--------------------------------------------------------------------------
#psi4
#
memory 32 gb

molecule  {
0 1
  O       -2.5058466    -0.5438249    -0.0074828
  O       -0.0903380    -1.4616610     0.1717700
  N        0.9259230     0.4056680    -0.6455280
  C       -1.5147550     0.4028960    -0.3432490
  C        2.2711600    -0.1378510    -0.5222970
  C       -0.1583790    -0.2975740    -0.2472510
  C       -1.5434142     1.6445451     0.5393428
  C        2.8531060     0.0659690     0.8699860
  H       -1.6669500     0.7105100    -1.3901450
  H        2.2044940    -1.2028750    -0.7525030
  H        2.8934660     0.3357800    -1.2867330
  H        0.8101310     1.3771570    -0.9023240
  H       -1.3564630     1.3269670     1.5921410
  H       -2.5982940     2.0269070     0.5395510
  H       -0.8919110     2.4138320     0.2596650
  H        2.9042670     1.1289430     1.1200310
  H        2.2261210    -0.4398610     1.6074960
  H        3.8631580    -0.3501450     0.9292180
  H       -2.0326010    -1.3422410     0.2291570
units angstrom
no_reorient  #important for SAPT in psi4, default
symmetry c1  #important for SAPT in psi4, default
}

set PROPERTIES_ORIGIN ["COM"]
properties('MP2/aug-cc-pvtz', properties = ['dipole'])
--------------------------------------------------------------------------

    Molecular point group: c1
  Charge       = 0
  Multiplicity = 1
  Basis Set: AUG-CC-PVTZ
    Blend: AUG-CC-PVTZ
  Basis Set: (AUG-CC-PVTZ AUX)
    Blend: AUG-CC-PVTZ-JKFIT

    Orbital Energies [Eh]
    ---------------------

    Doubly Occupied:

       1A    -20.547685     2A    -20.532017     3A    -15.597981
       4A    -11.357771     5A    -11.299476     6A    -11.273291
       7A    -11.233466     8A    -11.224052     9A     -1.399167
      10A     -1.349651    11A     -1.245330    12A     -1.055061
      13A     -1.013888    14A     -0.902621    15A     -0.850642
      16A     -0.793936    17A     -0.747541    18A     -0.678178
      19A     -0.649666    20A     -0.642645    21A     -0.611124
      22A     -0.601213    23A     -0.581753    24A     -0.562867
      25A     -0.544732    26A     -0.534065    27A     -0.519696
      28A     -0.513397    29A     -0.501927    30A     -0.447106
      31A     -0.433842    32A     -0.402788

  @DF-RHF Final Energy:  -400.08508543740300

   => Energetics <=

    Nuclear Repulsion Energy =            400.7430025843243584
    One-Electron Energy =               -1340.3590276488184827
    Two-Electron Energy =                 539.5309396270911293
    Total Energy =                       -400.0850854374029950
  Basis Set: (AUG-CC-PVTZ AUX)
    Blend: AUG-CC-PVTZ-RI
    Molecular point group: c1

    Geometry (in Angstrom), charge = 0, multiplicity = 1:

       Center              X                  Y                   Z               Mass
    ------------   -----------------  -----------------  -----------------  -----------------
         O           -2.512148160171    -0.541865975312     0.000139892022    15.994914619570
         O           -0.096639560171    -1.459702075312     0.179392692022    15.994914619570
         N            0.919621439829     0.407626924688    -0.637905307978    14.003074004430
         C           -1.521056560171     0.404854924688    -0.335626307978    12.000000000000
         C            2.264858439829    -0.135892075312    -0.514674307978    12.000000000000
         C           -0.164680560171    -0.295615075312    -0.239628307978    12.000000000000
         C           -1.549715760171     1.646504024688     0.546965492022    12.000000000000
         C            2.846804439829     0.067927924688     0.877608692022    12.000000000000
         H           -1.673251560171     0.712468924688    -1.382522307978     1.007825032230
         H            2.198192439829    -1.200916075312    -0.744880307978     1.007825032230
         H            2.887164439829     0.337738924688    -1.279110307978     1.007825032230
         H            0.803829439829     1.379115924688    -0.894701307978     1.007825032230
         H           -1.362764560171     1.328925924688     1.599763692022     1.007825032230
         H           -2.604595560171     2.028865924688     0.547173692022     1.007825032230
         H           -0.898212560171     2.415790924688     0.267287692022     1.007825032230
         H            2.897965439829     1.130901924688     1.127653692022     1.007825032230
         H            2.219819439829    -0.437902075312     1.615118692022     1.007825032230
         H            3.856856439829    -0.348186075312     0.936840692022     1.007825032230
         H           -2.038902560171    -1.340282075312     0.236779692022     1.007825032230

  Basis Set: AUG-CC-PVTZ
    Blend: AUG-CC-PVTZ
  Basis Set: (AUG-CC-PVTZ AUX)
    Blend: AUG-CC-PVTZ-JKFIT
	 Reference Energy          =    -400.0850854374029950 [Eh]
	 Singles Energy            =      -0.0000000000000000 [Eh]
	 Same-Spin Energy          =      -0.4018288426516820 [Eh]
	 Opposite-Spin Energy      =      -1.3069780139612854 [Eh]
	 Correlation Energy        =      -1.7088068566129675 [Eh]
	 Total Energy              =    -401.7938922940159614 [Eh]

	 ================> DF-SCS-MP2 Energies <==================
	-----------------------------------------------------------
	 SCS Same-Spin Scale       =       0.3333333333333333 [-]
	 SCS Opposite-Spin Scale   =       1.2000000000000000 [-]
	 SCS Same-Spin Energy      =      -0.1339429475505607 [Eh]
	 SCS Opposite-Spin Energy  =      -1.5683736167535425 [Eh]
	 SCS Correlation Energy    =      -1.7023165643041032 [Eh]
	 SCS Total Energy          =    -401.7874020017071075 [Eh]
	-----------------------------------------------------------

  Dipole Moment: [D]
     X:     3.0562      Y:     3.2600      Z:    -0.9769     Total:     4.5741

*** Psi4 exiting successfully. Buy a developer a beer!
