                               Psi4 1.3.2 release

  ==> Input File <==

--------------------------------------------------------------------------
#psi4
#
memory 32 gb

molecule  {
0 1
  O       -2.5211540    -0.5137840     0.0284240
  O       -0.0903380    -1.4616610     0.1717700
  N        0.9259230     0.4056680    -0.6455280
  C       -1.5179169     0.4105401    -0.3536586
  C        2.2711600    -0.1378510    -0.5222970
  C       -0.1583790    -0.2975740    -0.2472510
  C       -1.5844930     1.6236140     0.5658530
  C        2.8531060     0.0659690     0.8699860
  H       -1.6669500     0.7105100    -1.3901450
  H        2.2044940    -1.2028750    -0.7525030
  H        2.8934660     0.3357800    -1.2867330
  H        0.8101310     1.3771570    -0.9023240
  H       -1.3576383     1.3359949     1.5949674
  H       -2.5982940     2.0269070     0.5395510
  H       -0.8919110     2.4138320     0.2596650
  H        2.9042670     1.1289430     1.1200310
  H        2.2261210    -0.4398610     1.6074960
  H        3.8631580    -0.3501450     0.9292180
  H       -2.0326010    -1.3422410     0.2291570
units angstrom
no_reorient  #important for SAPT in psi4, default
symmetry c1  #important for SAPT in psi4, default
}

set PROPERTIES_ORIGIN ["COM"]
properties('MP2/aug-cc-pvtz', properties = ['dipole'])
--------------------------------------------------------------------------

    Molecular point group: c1
  Charge       = 0
  Multiplicity = 1
  Basis Set: AUG-CC-PVTZ
    Blend: AUG-CC-PVTZ
  Basis Set: (AUG-CC-PVTZ AUX)
    Blend: AUG-CC-PVTZ-JKFIT

    Orbital Energies [Eh]
    ---------------------

    Doubly Occupied:

       1A    -20.547631     2A    -20.533533     3A    -15.598630
       4A    -11.359343     5A    -11.298078     6A    -11.273641
       7A    -11.231472     8A    -11.224311     9A     -1.397485
      10A     -1.344642    11A     -1.245862    12A     -1.052757
      13A     -1.012942    14A     -0.902563    15A     -0.849723
      16A     -0.794531    17A     -0.743111    18A     -0.677305
      19A     -0.649683    20A     -0.641772    21A     -0.610941
      22A     -0.599254    23A     -0.575779    24A     -0.563226
      25A     -0.543180    26A     -0.535281    27A     -0.520955
      28A     -0.514074    29A     -0.502314    30A     -0.447345
      31A     -0.435532    32A     -0.403533

  @DF-RHF Final Energy:  -400.08756436726316

   => Energetics <=

    Nuclear Repulsion Energy =            400.2546560519274408
    One-Electron Energy =               -1339.4235800435735655
    Two-Electron Energy =                 539.0813596243829124
    Total Energy =                       -400.0875643672632123
  Basis Set: (AUG-CC-PVTZ AUX)
    Blend: AUG-CC-PVTZ-RI
    Molecular point group: c1

    Geometry (in Angstrom), charge = 0, multiplicity = 1:

       Center              X                  Y                   Z               Mass
    ------------   -----------------  -----------------  -----------------  -----------------
         O           -2.520819753623    -0.514645019406     0.029466672909    15.994914619570
         O           -0.090003753623    -1.462522019406     0.172812672909    15.994914619570
         N            0.926257246377     0.404806980594    -0.644485327091    14.003074004430
         C           -1.517582653623     0.409679080594    -0.352615927091    12.000000000000
         C            2.271494246377    -0.138712019406    -0.521254327091    12.000000000000
         C           -0.158044753623    -0.298435019406    -0.246208327091    12.000000000000
         C           -1.584158753623     1.622752980594     0.566895672909    12.000000000000
         C            2.853440246377     0.065107980594     0.871028672909    12.000000000000
         H           -1.666615753623     0.709648980594    -1.389102327091     1.007825032230
         H            2.204828246377    -1.203736019406    -0.751460327091     1.007825032230
         H            2.893800246377     0.334918980594    -1.285690327091     1.007825032230
         H            0.810465246377     1.376295980594    -0.901281327091     1.007825032230
         H           -1.357304053623     1.335133880594     1.596010072909     1.007825032230
         H           -2.597959753623     2.026045980594     0.540593672909     1.007825032230
         H           -0.891576753623     2.412970980594     0.260707672909     1.007825032230
         H            2.904601246377     1.128081980594     1.121073672909     1.007825032230
         H            2.226455246377    -0.440722019406     1.608538672909     1.007825032230
         H            3.863492246377    -0.351006019406     0.930260672909     1.007825032230
         H           -2.032266753623    -1.343102019406     0.230199672909     1.007825032230

  Basis Set: AUG-CC-PVTZ
    Blend: AUG-CC-PVTZ
  Basis Set: (AUG-CC-PVTZ AUX)
    Blend: AUG-CC-PVTZ-JKFIT
	 Reference Energy          =    -400.0875643672631554 [Eh]
	 Singles Energy            =      -0.0000000000000000 [Eh]
	 Same-Spin Energy          =      -0.4020767125810784 [Eh]
	 Opposite-Spin Energy      =      -1.3076777376076718 [Eh]
	 Correlation Energy        =      -1.7097544501887501 [Eh]
	 Total Energy              =    -401.7973188174519237 [Eh]

	 ================> DF-SCS-MP2 Energies <==================
	-----------------------------------------------------------
	 SCS Same-Spin Scale       =       0.3333333333333333 [-]
	 SCS Opposite-Spin Scale   =       1.2000000000000000 [-]
	 SCS Same-Spin Energy      =      -0.1340255708603594 [Eh]
	 SCS Opposite-Spin Energy  =      -1.5692132851292062 [Eh]
	 SCS Correlation Energy    =      -1.7032388559895657 [Eh]
	 SCS Total Energy          =    -401.7908032232527376 [Eh]
	-----------------------------------------------------------

  Dipole Moment: [D]
     X:     3.1090      Y:     3.1891      Z:    -1.0589     Total:     4.5779

*** Psi4 exiting successfully. Buy a developer a beer!
