                               Psi4 1.4a3.dev225

  ==> Input File <==

--------------------------------------------------------------------------
#psi4
#
memory 32 gb

molecule  {
0 1
  O       -1.5707600    -1.5123310    -0.2332890
  O        0.1382410     1.6075510    -0.3059650
  N        0.6999210    -0.4896500     0.4239600
  C       -1.5456480    -0.0933390    -0.4361750
  C        2.0783650    -0.1398720     0.7271540
  C       -0.1345115     0.4063264    -0.1042436
  C       -2.5680410     0.6261290     0.4306590
  C        2.9727550    -0.1683320    -0.5071050
  H       -1.7217520     0.1422920    -1.4952760
  H        2.0695770     0.8628690     1.1612900
  H        2.4371510    -0.8367210     1.4904630
  H        0.3848370    -1.4513440     0.4597870
  H       -2.3944150     0.3774590     1.4809910
  H       -3.5869010     0.3276930     0.1608950
  H       -2.4702460     1.7050790     0.2962630
  H        2.9788310    -1.1637080    -0.9596270
  H        2.6039680     0.5505970    -1.2414500
  H        4.0012360     0.0983730    -0.2444710
  H       -2.4840080    -1.8129070    -0.3767550
units angstrom
no_reorient  #important for SAPT in psi4, default
symmetry c1  #important for SAPT in psi4, default
}

set PROPERTIES_ORIGIN ["COM"]
properties('MP2/aug-cc-pvtz', properties = ['dipole'])
--------------------------------------------------------------------------

    Molecular point group: c1
  Charge       = 0
  Multiplicity = 1
  Basis Set: AUG-CC-PVTZ
    Blend: AUG-CC-PVTZ
  Basis Set: (AUG-CC-PVTZ AUX)
    Blend: AUG-CC-PVTZ-JKFIT

    Orbital Energies [Eh]
    ---------------------

    Doubly Occupied:

       1A    -20.580960     2A    -20.506549     3A    -15.581761
       4A    -11.342460     5A    -11.301290     6A    -11.261726
       7A    -11.228567     8A    -11.213316     9A     -1.387443
      10A     -1.353781    11A     -1.230835    12A     -1.044086
      13A     -1.012154    14A     -0.901617    15A     -0.844917
      16A     -0.780733    17A     -0.717870    18A     -0.694888
      19A     -0.641961    20A     -0.635499    21A     -0.608997
      22A     -0.588617    23A     -0.582568    24A     -0.558342
      25A     -0.538148    26A     -0.525457    27A     -0.519114
      28A     -0.507463    29A     -0.491536    30A     -0.460719
      31A     -0.412895    32A     -0.385644

  @DF-RHF Final Energy:  -400.08703257835776

   => Energetics <=

    Nuclear Repulsion Energy =            400.0046655458239684
    One-Electron Energy =               -1339.2995681373347452
    Two-Electron Energy =                 539.2078700131529558
    Total Energy =                       -400.0870325783578210
  Basis Set: (AUG-CC-PVTZ AUX)
    Blend: AUG-CC-PVTZ-RI
    Molecular point group: c1

    Geometry (in Angstrom), charge = 0, multiplicity = 1:

       Center              X                  Y                   Z               Mass
    ------------   -----------------  -----------------  -----------------  -----------------
         O           -1.556714494382    -1.521108569373    -0.227931361451    15.994914619570
         O            0.152286505618     1.598773430627    -0.300607361451    15.994914619570
         N            0.713966505618    -0.498427569373     0.429317638549    14.003074004430
         C           -1.531602494382    -0.102116569373    -0.430817361451    12.000000000000
         C            2.092410505618    -0.148649569373     0.732511638549    12.000000000000
         C           -0.120465994382     0.397548830627    -0.098885961451    12.000000000000
         C           -2.553995494382     0.617351430627     0.436016638549    12.000000000000
         C            2.986800505618    -0.177109569373    -0.501747361451    12.000000000000
         H           -1.707706494382     0.133514430627    -1.489918361451     1.007825032230
         H            2.083622505618     0.854091430627     1.166647638549     1.007825032230
         H            2.451196505618    -0.845498569373     1.495820638549     1.007825032230
         H            0.398882505618    -1.460121569373     0.465144638549     1.007825032230
         H           -2.380369494382     0.368681430627     1.486348638549     1.007825032230
         H           -3.572855494382     0.318915430627     0.166252638549     1.007825032230
         H           -2.456200494382     1.696301430627     0.301620638549     1.007825032230
         H            2.992876505618    -1.172485569373    -0.954269361451     1.007825032230
         H            2.618013505618     0.541819430627    -1.236092361451     1.007825032230
         H            4.015281505618     0.089595430627    -0.239113361451     1.007825032230
         H           -2.469962494382    -1.821684569373    -0.371397361451     1.007825032230

  Basis Set: AUG-CC-PVTZ
    Blend: AUG-CC-PVTZ
  Basis Set: (AUG-CC-PVTZ AUX)
    Blend: AUG-CC-PVTZ-JKFIT
	 Reference Energy          =    -400.0870325783577641 [Eh]
	 Singles Energy            =      -0.0000000000000000 [Eh]
	 Same-Spin Energy          =      -0.4016885151308529 [Eh]
	 Opposite-Spin Energy      =      -1.3076208444094206 [Eh]
	 Correlation Energy        =      -1.7093093595402735 [Eh]
	 Total Energy              =    -401.7963419378980348 [Eh]

	 ================> DF-SCS-MP2 Energies <==================
	-----------------------------------------------------------
	 SCS Same-Spin Scale       =       0.3333333333333333 [-]
	 SCS Opposite-Spin Scale   =       1.2000000000000000 [-]
	 SCS Same-Spin Energy      =      -0.1338961717102843 [Eh]
	 SCS Opposite-Spin Energy  =      -1.5691450132913047 [Eh]
	 SCS Correlation Energy    =      -1.7030411850015890 [Eh]
	 SCS Total Energy          =    -401.7900737633593735 [Eh]
	-----------------------------------------------------------

  Dipole Moment: [D]
     X:    -1.0571      Y:    -2.8739      Z:     0.5279     Total:     3.1073

*** Psi4 exiting successfully. Buy a developer a beer!
