                               Psi4 1.3.2 release

  ==> Input File <==

--------------------------------------------------------------------------
#psi4
#
memory 32 gb

molecule  {
0 1
  O       -2.5211540    -0.5137840     0.0284240
  O       -0.0903380    -1.4616610     0.1717700
  N        0.9529430     0.3684584    -0.6348705
  C       -1.5378307     0.3588389    -0.3238336
  C        2.2711600    -0.1378510    -0.5222970
  C       -0.1583790    -0.2975740    -0.2472510
  C       -1.5844930     1.6236140     0.5658530
  C        2.8531060     0.0659690     0.8699860
  H       -1.6669500     0.7105100    -1.3901450
  H        2.2044940    -1.2028750    -0.7525030
  H        2.8934660     0.3357800    -1.2867330
  H        0.8101310     1.3771570    -0.9023240
  H       -1.3564630     1.3269670     1.5921410
  H       -2.5982940     2.0269070     0.5395510
  H       -0.8919110     2.4138320     0.2596650
  H        2.9042670     1.1289430     1.1200310
  H        2.2261210    -0.4398610     1.6074960
  H        3.8631580    -0.3501450     0.9292180
  H       -2.0326010    -1.3422410     0.2291570
units angstrom
no_reorient  #important for SAPT in psi4, default
symmetry c1  #important for SAPT in psi4, default
}

set PROPERTIES_ORIGIN ["COM"]
properties('MP2/aug-cc-pvtz', properties = ['dipole'])
--------------------------------------------------------------------------

    Molecular point group: c1
  Charge       = 0
  Multiplicity = 1
  Basis Set: AUG-CC-PVTZ
    Blend: AUG-CC-PVTZ
  Basis Set: (AUG-CC-PVTZ AUX)
    Blend: AUG-CC-PVTZ-JKFIT

    Orbital Energies [Eh]
    ---------------------

    Doubly Occupied:

       1A    -20.555769     2A    -20.530725     3A    -15.600669
       4A    -11.357849     5A    -11.302315     6A    -11.270250
       7A    -11.231295     8A    -11.222494     9A     -1.406981
      10A     -1.363957    11A     -1.247405    12A     -1.049934
      13A     -1.009015    14A     -0.903974    15A     -0.851143
      16A     -0.782535    17A     -0.754591    18A     -0.680703
      19A     -0.656372    20A     -0.641927    21A     -0.614707
      22A     -0.594704    23A     -0.582710    24A     -0.563639
      25A     -0.548193    26A     -0.536345    27A     -0.520721
      28A     -0.515965    29A     -0.500892    30A     -0.440042
      31A     -0.434468    32A     -0.398994

  @DF-RHF Final Energy:  -400.08122752715002

   => Energetics <=

    Nuclear Repulsion Energy =            401.1682415875312699
    One-Electron Energy =               -1341.1563650300872723
    Two-Electron Energy =                 539.9068959154060394
    Total Energy =                       -400.0812275271499630
  Basis Set: (AUG-CC-PVTZ AUX)
    Blend: AUG-CC-PVTZ-RI
    Molecular point group: c1

    Geometry (in Angstrom), charge = 0, multiplicity = 1:

       Center              X                  Y                   Z               Mass
    ------------   -----------------  -----------------  -----------------  -----------------
         O           -2.522020498266    -0.504817792180     0.025159415956    15.994914619570
         O           -0.091204498266    -1.452694792180     0.168505415956    15.994914619570
         N            0.952076501734     0.377424607820    -0.638135084044    14.003074004430
         C           -1.538697198266     0.367805107820    -0.327098184044    12.000000000000
         C            2.270293501734    -0.128884792180    -0.525561584044    12.000000000000
         C           -0.159245498266    -0.288607792180    -0.250515584044    12.000000000000
         C           -1.585359498266     1.632580207820     0.562588415956    12.000000000000
         C            2.852239501734     0.074935207820     0.866721415956    12.000000000000
         H           -1.667816498266     0.719476207820    -1.393409584044     1.007825032230
         H            2.203627501734    -1.193908792180    -0.755767584044     1.007825032230
         H            2.892599501734     0.344746207820    -1.289997584044     1.007825032230
         H            0.809264501734     1.386123207820    -0.905588584044     1.007825032230
         H           -1.357329498266     1.335933207820     1.588876415956     1.007825032230
         H           -2.599160498266     2.035873207820     0.536286415956     1.007825032230
         H           -0.892777498266     2.422798207820     0.256400415956     1.007825032230
         H            2.903400501734     1.137909207820     1.116766415956     1.007825032230
         H            2.225254501734    -0.430894792180     1.604231415956     1.007825032230
         H            3.862291501734    -0.341178792180     0.925953415956     1.007825032230
         H           -2.033467498266    -1.333274792180     0.225892415956     1.007825032230

  Basis Set: AUG-CC-PVTZ
    Blend: AUG-CC-PVTZ
  Basis Set: (AUG-CC-PVTZ AUX)
    Blend: AUG-CC-PVTZ-JKFIT
	 Reference Energy          =    -400.0812275271500198 [Eh]
	 Singles Energy            =      -0.0000000000000000 [Eh]
	 Same-Spin Energy          =      -0.4026394412608599 [Eh]
	 Opposite-Spin Energy      =      -1.3076180003926252 [Eh]
	 Correlation Energy        =      -1.7102574416534853 [Eh]
	 Total Energy              =    -401.7914849688035019 [Eh]

	 ================> DF-SCS-MP2 Energies <==================
	-----------------------------------------------------------
	 SCS Same-Spin Scale       =       0.3333333333333333 [-]
	 SCS Opposite-Spin Scale   =       1.2000000000000000 [-]
	 SCS Same-Spin Energy      =      -0.1342131470869533 [Eh]
	 SCS Opposite-Spin Energy  =      -1.5691416004711503 [Eh]
	 SCS Correlation Energy    =      -1.7033547475581035 [Eh]
	 SCS Total Energy          =    -401.7845822747081002 [Eh]
	-----------------------------------------------------------

  Dipole Moment: [D]
     X:     2.8794      Y:     3.0857      Z:    -1.0272     Total:     4.3437

*** Psi4 exiting successfully. Buy a developer a beer!
