                               Psi4 1.3.2 release

  ==> Input File <==

--------------------------------------------------------------------------
#psi4
#
memory 32 gb

molecule  {
0 1
  O       -2.5211540    -0.5137840     0.0284240
  O       -0.0903380    -1.4616610     0.1717700
  N        0.9259230     0.4056680    -0.6455280
  C       -1.5147550     0.4028960    -0.3432490
  C        2.2711600    -0.1378510    -0.5222970
  C       -0.3357312    -0.2059844    -0.2598032
  C       -1.5844930     1.6236140     0.5658530
  C        2.8531060     0.0659690     0.8699860
  H       -1.6669500     0.7105100    -1.3901450
  H        2.2044940    -1.2028750    -0.7525030
  H        2.8934660     0.3357800    -1.2867330
  H        0.8101310     1.3771570    -0.9023240
  H       -1.3564630     1.3269670     1.5921410
  H       -2.5982940     2.0269070     0.5395510
  H       -0.8919110     2.4138320     0.2596650
  H        2.9042670     1.1289430     1.1200310
  H        2.2261210    -0.4398610     1.6074960
  H        3.8631580    -0.3501450     0.9292180
  H       -2.0326010    -1.3422410     0.2291570
units angstrom
no_reorient  #important for SAPT in psi4, default
symmetry c1  #important for SAPT in psi4, default
}

set PROPERTIES_ORIGIN ["COM"]
properties('MP2/aug-cc-pvtz', properties = ['dipole'])
--------------------------------------------------------------------------

    Molecular point group: c1
  Charge       = 0
  Multiplicity = 1
  Basis Set: AUG-CC-PVTZ
    Blend: AUG-CC-PVTZ
  Basis Set: (AUG-CC-PVTZ AUX)
    Blend: AUG-CC-PVTZ-JKFIT

    Orbital Energies [Eh]
    ---------------------

    Doubly Occupied:

       1A    -20.559158     2A    -20.529780     3A    -15.594349
       4A    -11.377458     5A    -11.302341     6A    -11.270147
       7A    -11.247333     8A    -11.218124     9A     -1.390952
      10A     -1.315273    11A     -1.208452    12A     -1.092209
      13A     -1.008459    14A     -0.940844    15A     -0.853120
      16A     -0.775393    17A     -0.746425    18A     -0.691476
      19A     -0.650185    20A     -0.636205    21A     -0.608176
      22A     -0.584637    23A     -0.574512    24A     -0.563628
      25A     -0.544069    26A     -0.537184    27A     -0.522897
      28A     -0.499773    29A     -0.489056    30A     -0.453875
      31A     -0.440760    32A     -0.386213

  @DF-RHF Final Energy:  -400.01709623138237

   => Energetics <=

    Nuclear Repulsion Energy =            400.0911997039355015
    One-Electron Energy =               -1338.9916642510656857
    Two-Electron Energy =                 538.8833683157479300
    Total Energy =                       -400.0170962313823111
  Basis Set: (AUG-CC-PVTZ AUX)
    Blend: AUG-CC-PVTZ-RI
    Molecular point group: c1

    Geometry (in Angstrom), charge = 0, multiplicity = 1:

       Center              X                  Y                   Z               Mass
    ------------   -----------------  -----------------  -----------------  -----------------
         O           -2.502976250646    -0.523171293451     0.029710608387    15.994914619570
         O           -0.072160250646    -1.471048293451     0.173056608387    15.994914619570
         N            0.944100749354     0.396280706549    -0.644241391613    14.003074004430
         C           -1.496577250646     0.393508706549    -0.341962391613    12.000000000000
         C            2.289337749354    -0.147238293451    -0.521010391613    12.000000000000
         C           -0.317553450646    -0.215371693451    -0.258516591613    12.000000000000
         C           -1.566315250646     1.614226706549     0.567139608387    12.000000000000
         C            2.871283749354     0.056581706549     0.871272608387    12.000000000000
         H           -1.648772250646     0.701122706549    -1.388858391613     1.007825032230
         H            2.222671749354    -1.212262293451    -0.751216391613     1.007825032230
         H            2.911643749354     0.326392706549    -1.285446391613     1.007825032230
         H            0.828308749354     1.367769706549    -0.901037391613     1.007825032230
         H           -1.338285250646     1.317579706549     1.593427608387     1.007825032230
         H           -2.580116250646     2.017519706549     0.540837608387     1.007825032230
         H           -0.873733250646     2.404444706549     0.260951608387     1.007825032230
         H            2.922444749354     1.119555706549     1.121317608387     1.007825032230
         H            2.244298749354    -0.449248293451     1.608782608387     1.007825032230
         H            3.881335749354    -0.359532293451     0.930504608387     1.007825032230
         H           -2.014423250646    -1.351628293451     0.230443608387     1.007825032230

  Basis Set: AUG-CC-PVTZ
    Blend: AUG-CC-PVTZ
  Basis Set: (AUG-CC-PVTZ AUX)
    Blend: AUG-CC-PVTZ-JKFIT
	 Reference Energy          =    -400.0170962313823679 [Eh]
	 Singles Energy            =      -0.0000000000000000 [Eh]
	 Same-Spin Energy          =      -0.4075881581359337 [Eh]
	 Opposite-Spin Energy      =      -1.3180476707415321 [Eh]
	 Correlation Energy        =      -1.7256358288774658 [Eh]
	 Total Energy              =    -401.7427320602598115 [Eh]

	 ================> DF-SCS-MP2 Energies <==================
	-----------------------------------------------------------
	 SCS Same-Spin Scale       =       0.3333333333333333 [-]
	 SCS Opposite-Spin Scale   =       1.2000000000000000 [-]
	 SCS Same-Spin Energy      =      -0.1358627193786446 [Eh]
	 SCS Opposite-Spin Energy  =      -1.5816572048898385 [Eh]
	 SCS Correlation Energy    =      -1.7175199242684831 [Eh]
	 SCS Total Energy          =    -401.7346161556508264 [Eh]
	-----------------------------------------------------------

  Dipole Moment: [D]
     X:     2.2245      Y:     3.5211      Z:    -0.9994     Total:     4.2831

*** Psi4 exiting successfully. Buy a developer a beer!
