                               Psi4 1.3.2 release

  ==> Input File <==

--------------------------------------------------------------------------
#psi4
#
memory 32 gb

molecule  {
0 1
  O       -2.5211540    -0.5137840     0.0284240
  O       -0.0903380    -1.4616610     0.1717700
  N        0.9259230     0.4056680    -0.6455280
  C       -1.5147550     0.4028960    -0.3432490
  C        2.2711600    -0.1378510    -0.5222970
  C       -0.1583790    -0.2975740    -0.2472510
  C       -1.5799159     1.5434955     0.5061866
  C        2.8531060     0.0659690     0.8699860
  H       -1.6669500     0.7105100    -1.3901450
  H        2.2044940    -1.2028750    -0.7525030
  H        2.8934660     0.3357800    -1.2867330
  H        0.8101310     1.3771570    -0.9023240
  H       -1.3564630     1.3269670     1.5921410
  H       -2.5982940     2.0269070     0.5395510
  H       -0.8919110     2.4138320     0.2596650
  H        2.9042670     1.1289430     1.1200310
  H        2.2261210    -0.4398610     1.6074960
  H        3.8631580    -0.3501450     0.9292180
  H       -2.0326010    -1.3422410     0.2291570
units angstrom
no_reorient  #important for SAPT in psi4, default
symmetry c1  #important for SAPT in psi4, default
}

set PROPERTIES_ORIGIN ["COM"]
properties('MP2/aug-cc-pvtz', properties = ['dipole'])
--------------------------------------------------------------------------

    Molecular point group: c1
  Charge       = 0
  Multiplicity = 1
  Basis Set: AUG-CC-PVTZ
    Blend: AUG-CC-PVTZ
  Basis Set: (AUG-CC-PVTZ AUX)
    Blend: AUG-CC-PVTZ-JKFIT

    Orbital Energies [Eh]
    ---------------------

    Doubly Occupied:

       1A    -20.548401     2A    -20.534146     3A    -15.598972
       4A    -11.359849     5A    -11.293765     6A    -11.273887
       7A    -11.236235     8A    -11.224400     9A     -1.399754
      10A     -1.348604    11A     -1.246528    12A     -1.065285
      13A     -1.018963    14A     -0.899325    15A     -0.846704
      16A     -0.794292    17A     -0.747876    18A     -0.680648
      19A     -0.651150    20A     -0.647866    21A     -0.613623
      22A     -0.599142    23A     -0.590227    24A     -0.551216
      25A     -0.540532    26A     -0.522898    27A     -0.519204
      28A     -0.510172    29A     -0.502002    30A     -0.454912
      31A     -0.433129    32A     -0.403967

  @DF-RHF Final Energy:  -400.07586741355232

   => Energetics <=

    Nuclear Repulsion Energy =            402.1737548961680773
    One-Electron Energy =               -1343.1838903807781662
    Two-Electron Energy =                 540.9342680710578861
    Total Energy =                       -400.0758674135522597
  Basis Set: (AUG-CC-PVTZ AUX)
    Blend: AUG-CC-PVTZ-RI
    Molecular point group: c1

    Geometry (in Angstrom), charge = 0, multiplicity = 1:

       Center              X                  Y                   Z               Mass
    ------------   -----------------  -----------------  -----------------  -----------------
         O           -2.521623078848    -0.505572086277     0.034539574328    15.994914619570
         O           -0.090807078848    -1.453449086277     0.177885574328    15.994914619570
         N            0.925453921152     0.413879913723    -0.639412425672    14.003074004430
         C           -1.515224078848     0.411107913723    -0.337133425672    12.000000000000
         C            2.270690921152    -0.129639086277    -0.516181425672    12.000000000000
         C           -0.158848078848    -0.289362086277    -0.241135425672    12.000000000000
         C           -1.580384978848     1.551707413723     0.512302174328    12.000000000000
         C            2.852636921152     0.074180913723     0.876101574328    12.000000000000
         H           -1.667419078848     0.718721913723    -1.384029425672     1.007825032230
         H            2.204024921152    -1.194663086277    -0.746387425672     1.007825032230
         H            2.892996921152     0.343991913723    -1.280617425672     1.007825032230
         H            0.809661921152     1.385368913723    -0.896208425672     1.007825032230
         H           -1.356932078848     1.335178913723     1.598256574328     1.007825032230
         H           -2.598763078848     2.035118913723     0.545666574328     1.007825032230
         H           -0.892380078848     2.422043913723     0.265780574328     1.007825032230
         H            2.903797921152     1.137154913723     1.126146574328     1.007825032230
         H            2.225651921152    -0.431649086277     1.613611574328     1.007825032230
         H            3.862688921152    -0.341933086277     0.935333574328     1.007825032230
         H           -2.033070078848    -1.334029086277     0.235272574328     1.007825032230

  Basis Set: AUG-CC-PVTZ
    Blend: AUG-CC-PVTZ
  Basis Set: (AUG-CC-PVTZ AUX)
    Blend: AUG-CC-PVTZ-JKFIT
	 Reference Energy          =    -400.0758674135523165 [Eh]
	 Singles Energy            =      -0.0000000000000000 [Eh]
	 Same-Spin Energy          =      -0.4031749151827014 [Eh]
	 Opposite-Spin Energy      =      -1.3088932449701942 [Eh]
	 Correlation Energy        =      -1.7120681601528958 [Eh]
	 Total Energy              =    -401.7879355737052265 [Eh]

	 ================> DF-SCS-MP2 Energies <==================
	-----------------------------------------------------------
	 SCS Same-Spin Scale       =       0.3333333333333333 [-]
	 SCS Opposite-Spin Scale   =       1.2000000000000000 [-]
	 SCS Same-Spin Energy      =      -0.1343916383942338 [Eh]
	 SCS Opposite-Spin Energy  =      -1.5706718939642330 [Eh]
	 SCS Correlation Energy    =      -1.7050635323584669 [Eh]
	 SCS Total Energy          =    -401.7809309459107681 [Eh]
	-----------------------------------------------------------

  Dipole Moment: [D]
     X:     3.1191      Y:     3.1980      Z:    -1.0275     Total:     4.5839

*** Psi4 exiting successfully. Buy a developer a beer!
