                               Psi4 1.4a3.dev225

  ==> Input File <==

--------------------------------------------------------------------------
#psi4
#
memory 32 gb

molecule  {
0 1
  O       -1.5707600    -1.5123310    -0.2332890
  O        0.1382410     1.6075510    -0.3059650
  N        0.6999210    -0.4896500     0.4239600
  C       -1.5456480    -0.0933390    -0.4361750
  C        2.0783650    -0.1398720     0.7271540
  C       -0.1470270     0.4197650    -0.1121660
  C       -2.5680410     0.6261290     0.4306590
  C        2.9727550    -0.1683320    -0.5071050
  H       -1.7217520     0.1422920    -1.4952760
  H        2.0695770     0.8628690     1.1612900
  H        2.4371510    -0.8367210     1.4904630
  H        0.3786139    -1.4703380     0.4604946
  H       -2.3944150     0.3774590     1.4809910
  H       -3.5869010     0.3276930     0.1608950
  H       -2.4702460     1.7050790     0.2962630
  H        2.9788310    -1.1637080    -0.9596270
  H        2.6039680     0.5505970    -1.2414500
  H        4.0012360     0.0983730    -0.2444710
  H       -2.4840080    -1.8129070    -0.3767550
units angstrom
no_reorient  #important for SAPT in psi4, default
symmetry c1  #important for SAPT in psi4, default
}

set PROPERTIES_ORIGIN ["COM"]
properties('MP2/aug-cc-pvtz', properties = ['dipole'])
--------------------------------------------------------------------------

    Molecular point group: c1
  Charge       = 0
  Multiplicity = 1
  Basis Set: AUG-CC-PVTZ
    Blend: AUG-CC-PVTZ
  Basis Set: (AUG-CC-PVTZ AUX)
    Blend: AUG-CC-PVTZ-JKFIT

    Orbital Energies [Eh]
    ---------------------

    Doubly Occupied:

       1A    -20.581729     2A    -20.510245     3A    -15.579705
       4A    -11.343603     5A    -11.301625     6A    -11.259692
       7A    -11.229431     8A    -11.211863     9A     -1.388552
      10A     -1.359686    11A     -1.222906    12A     -1.045374
      13A     -1.009370    14A     -0.902018    15A     -0.842958
      16A     -0.771516    17A     -0.717537    18A     -0.696813
      19A     -0.642561    20A     -0.633008    21A     -0.609958
      22A     -0.588189    23A     -0.581756    24A     -0.558869
      25A     -0.539245    26A     -0.525248    27A     -0.519677
      28A     -0.508652    29A     -0.490237    30A     -0.461203
      31A     -0.415321    32A     -0.383839

  @DF-RHF Final Energy:  -400.08679791331804

   => Energetics <=

    Nuclear Repulsion Energy =            399.8372327457242932
    One-Electron Energy =               -1338.9832896215250457
    Two-Electron Energy =                 539.0592589624826587
    Total Energy =                       -400.0867979133180370
  Basis Set: (AUG-CC-PVTZ AUX)
    Blend: AUG-CC-PVTZ-RI
    Molecular point group: c1

    Geometry (in Angstrom), charge = 0, multiplicity = 1:

       Center              X                  Y                   Z               Mass
    ------------   -----------------  -----------------  -----------------  -----------------
         O           -1.555378150336    -1.522322455700    -0.227125446810    15.994914619570
         O            0.153622849664     1.597559544300    -0.299801446810    15.994914619570
         N            0.715302849664    -0.499641455700     0.430123553190    14.003074004430
         C           -1.530266150336    -0.103330455700    -0.430011446810    12.000000000000
         C            2.093746849664    -0.149863455700     0.733317553190    12.000000000000
         C           -0.131645150336     0.409773544300    -0.106002446810    12.000000000000
         C           -2.552659150336     0.616137544300     0.436822553190    12.000000000000
         C            2.988136849664    -0.178323455700    -0.500941446810    12.000000000000
         H           -1.706370150336     0.132300544300    -1.489112446810     1.007825032230
         H            2.084958849664     0.852877544300     1.167453553190     1.007825032230
         H            2.452532849664    -0.846712455700     1.496626553190     1.007825032230
         H            0.393995749664    -1.480329455700     0.466658153190     1.007825032230
         H           -2.379033150336     0.367467544300     1.487154553190     1.007825032230
         H           -3.571519150336     0.317701544300     0.167058553190     1.007825032230
         H           -2.454864150336     1.695087544300     0.302426553190     1.007825032230
         H            2.994212849664    -1.173699455700    -0.953463446810     1.007825032230
         H            2.619349849664     0.540605544300    -1.235286446810     1.007825032230
         H            4.016617849664     0.088381544300    -0.238307446810     1.007825032230
         H           -2.468626150336    -1.822898455700    -0.370591446810     1.007825032230

  Basis Set: AUG-CC-PVTZ
    Blend: AUG-CC-PVTZ
  Basis Set: (AUG-CC-PVTZ AUX)
    Blend: AUG-CC-PVTZ-JKFIT
	 Reference Energy          =    -400.0867979133180370 [Eh]
	 Singles Energy            =      -0.0000000000000000 [Eh]
	 Same-Spin Energy          =      -0.4017836488661395 [Eh]
	 Opposite-Spin Energy      =      -1.3078393133350183 [Eh]
	 Correlation Energy        =      -1.7096229622011578 [Eh]
	 Total Energy              =    -401.7964208755191748 [Eh]

	 ================> DF-SCS-MP2 Energies <==================
	-----------------------------------------------------------
	 SCS Same-Spin Scale       =       0.3333333333333333 [-]
	 SCS Opposite-Spin Scale   =       1.2000000000000000 [-]
	 SCS Same-Spin Energy      =      -0.1339278829553798 [Eh]
	 SCS Opposite-Spin Energy  =      -1.5694071760020221 [Eh]
	 SCS Correlation Energy    =      -1.7033350589574019 [Eh]
	 SCS Total Energy          =    -401.7901329722754440 [Eh]
	-----------------------------------------------------------

  Dipole Moment: [D]
     X:    -1.1733      Y:    -2.7833      Z:     0.4781     Total:     3.0581

*** Psi4 exiting successfully. Buy a developer a beer!
