                               Psi4 1.3.2 release

  ==> Input File <==

--------------------------------------------------------------------------
#psi4
#
memory 32 gb

molecule  {
0 1
  O       -2.5211540    -0.5137840     0.0284240
  O       -0.0903380    -1.4616610     0.1717700
  N        0.9119155     0.4239543    -0.6506756
  C       -1.5025956     0.4246079    -0.3529143
  C        2.2711600    -0.1378510    -0.5222970
  C       -0.1583790    -0.2975740    -0.2472510
  C       -1.5844930     1.6236140     0.5658530
  C        2.8531060     0.0659690     0.8699860
  H       -1.6669500     0.7105100    -1.3901450
  H        2.2044940    -1.2028750    -0.7525030
  H        2.8934660     0.3357800    -1.2867330
  H        0.8101310     1.3771570    -0.9023240
  H       -1.3564630     1.3269670     1.5921410
  H       -2.5982940     2.0269070     0.5395510
  H       -0.8919110     2.4138320     0.2596650
  H        2.9042670     1.1289430     1.1200310
  H        2.2261210    -0.4398610     1.6074960
  H        3.8631580    -0.3501450     0.9292180
  H       -2.0326010    -1.3422410     0.2291570
units angstrom
no_reorient  #important for SAPT in psi4, default
symmetry c1  #important for SAPT in psi4, default
}

set PROPERTIES_ORIGIN ["COM"]
properties('MP2/aug-cc-pvtz', properties = ['dipole'])
--------------------------------------------------------------------------

    Molecular point group: c1
  Charge       = 0
  Multiplicity = 1
  Basis Set: AUG-CC-PVTZ
    Blend: AUG-CC-PVTZ
  Basis Set: (AUG-CC-PVTZ AUX)
    Blend: AUG-CC-PVTZ-JKFIT

    Orbital Energies [Eh]
    ---------------------

    Doubly Occupied:

       1A    -20.544936     2A    -20.534923     3A    -15.597705
       4A    -11.360170     5A    -11.296599     6A    -11.275535
       7A    -11.231476     8A    -11.225299     9A     -1.396143
      10A     -1.337388    11A     -1.245847    12A     -1.054433
      13A     -1.014789    14A     -0.902864    15A     -0.848987
      16A     -0.800423    17A     -0.740070    18A     -0.675589
      19A     -0.645773    20A     -0.642320    21A     -0.610714
      22A     -0.601086    23A     -0.573923    24A     -0.563157
      25A     -0.541729    26A     -0.533869    27A     -0.521605
      28A     -0.513440    29A     -0.502600    30A     -0.447988
      31A     -0.436499    32A     -0.405627

  @DF-RHF Final Energy:  -400.08608899446409

   => Energetics <=

    Nuclear Repulsion Energy =            400.1060561409316279
    One-Electron Energy =               -1339.1372769935508131
    Two-Electron Energy =                 538.9451318581551504
    Total Energy =                       -400.0860889944640348
  Basis Set: (AUG-CC-PVTZ AUX)
    Blend: AUG-CC-PVTZ-RI
    Molecular point group: c1

    Geometry (in Angstrom), charge = 0, multiplicity = 1:

       Center              X                  Y                   Z               Mass
    ------------   -----------------  -----------------  -----------------  -----------------
         O           -2.520724877818    -0.518196292859     0.030030387601    15.994914619570
         O           -0.089908877818    -1.466073292859     0.173376387601    15.994914619570
         N            0.912344622182     0.419542007141    -0.649069212399    14.003074004430
         C           -1.502166477818     0.420195607141    -0.351307912399    12.000000000000
         C            2.271589122182    -0.142263292859    -0.520690612399    12.000000000000
         C           -0.157949877818    -0.301986292859    -0.245644612399    12.000000000000
         C           -1.584063877818     1.619201707141     0.567459387601    12.000000000000
         C            2.853535122182     0.061556707141     0.871592387601    12.000000000000
         H           -1.666520877818     0.706097707141    -1.388538612399     1.007825032230
         H            2.204923122182    -1.207287292859    -0.750896612399     1.007825032230
         H            2.893895122182     0.331367707141    -1.285126612399     1.007825032230
         H            0.810560122182     1.372744707141    -0.900717612399     1.007825032230
         H           -1.356033877818     1.322554707141     1.593747387601     1.007825032230
         H           -2.597864877818     2.022494707141     0.541157387601     1.007825032230
         H           -0.891481877818     2.409419707141     0.261271387601     1.007825032230
         H            2.904696122182     1.124530707141     1.121637387601     1.007825032230
         H            2.226550122182    -0.444273292859     1.609102387601     1.007825032230
         H            3.863587122182    -0.354557292859     0.930824387601     1.007825032230
         H           -2.032171877818    -1.346653292859     0.230763387601     1.007825032230

  Basis Set: AUG-CC-PVTZ
    Blend: AUG-CC-PVTZ
  Basis Set: (AUG-CC-PVTZ AUX)
    Blend: AUG-CC-PVTZ-JKFIT
	 Reference Energy          =    -400.0860889944640917 [Eh]
	 Singles Energy            =      -0.0000000000000000 [Eh]
	 Same-Spin Energy          =      -0.4020168176088326 [Eh]
	 Opposite-Spin Energy      =      -1.3079999655907515 [Eh]
	 Correlation Energy        =      -1.7100167831995841 [Eh]
	 Total Energy              =    -401.7961057776636835 [Eh]

	 ================> DF-SCS-MP2 Energies <==================
	-----------------------------------------------------------
	 SCS Same-Spin Scale       =       0.3333333333333333 [-]
	 SCS Opposite-Spin Scale   =       1.2000000000000000 [-]
	 SCS Same-Spin Energy      =      -0.1340056058696109 [Eh]
	 SCS Opposite-Spin Energy  =      -1.5695999587089018 [Eh]
	 SCS Correlation Energy    =      -1.7036055645785126 [Eh]
	 SCS Total Energy          =    -401.7896945590426299 [Eh]
	-----------------------------------------------------------

  Dipole Moment: [D]
     X:     3.2022      Y:     3.2111      Z:    -1.0486     Total:     4.6546

*** Psi4 exiting successfully. Buy a developer a beer!
