                               Psi4 1.3.2 release

  ==> Input File <==

--------------------------------------------------------------------------
#psi4
#
memory 32 gb

molecule  {
0 1
  O       -2.5211540    -0.5137840     0.0284240
  O       -0.0903380    -1.4616610     0.1717700
  N        0.9539549     0.4739905    -0.6266142
  C       -1.5147550     0.4028960    -0.3432490
  C        2.2711600    -0.1378510    -0.5222970
  C       -0.1583790    -0.2975740    -0.2472510
  C       -1.5844930     1.6236140     0.5658530
  C        2.8531060     0.0659690     0.8699860
  H       -1.6669500     0.7105100    -1.3901450
  H        2.2607930    -1.2068146    -0.7434860
  H        2.8934660     0.3357800    -1.2867330
  H        0.8101310     1.3771570    -0.9023240
  H       -1.3564630     1.3269670     1.5921410
  H       -2.5982940     2.0269070     0.5395510
  H       -0.8919110     2.4138320     0.2596650
  H        2.9042670     1.1289430     1.1200310
  H        2.2261210    -0.4398610     1.6074960
  H        3.8631580    -0.3501450     0.9292180
  H       -2.0326010    -1.3422410     0.2291570
units angstrom
no_reorient  #important for SAPT in psi4, default
symmetry c1  #important for SAPT in psi4, default
}

set PROPERTIES_ORIGIN ["COM"]
properties('MP2/aug-cc-pvtz', properties = ['dipole'])
--------------------------------------------------------------------------

    Molecular point group: c1
  Charge       = 0
  Multiplicity = 1
  Basis Set: AUG-CC-PVTZ
    Blend: AUG-CC-PVTZ
  Basis Set: (AUG-CC-PVTZ AUX)
    Blend: AUG-CC-PVTZ-JKFIT

    Orbital Energies [Eh]
    ---------------------

    Doubly Occupied:

       1A    -20.550172     2A    -20.543602     3A    -15.592945
       4A    -11.367697     5A    -11.299610     6A    -11.272039
       7A    -11.231924     8A    -11.220977     9A     -1.400076
      10A     -1.348174    11A     -1.242368    12A     -1.051223
      13A     -1.011367    14A     -0.900349    15A     -0.849598
      16A     -0.798103    17A     -0.744268    18A     -0.678655
      19A     -0.653448    20A     -0.645242    21A     -0.606619
      22A     -0.600783    23A     -0.574898    24A     -0.562186
      25A     -0.543207    26A     -0.533965    27A     -0.521548
      28A     -0.520100    29A     -0.498645    30A     -0.447638
      31A     -0.438424    32A     -0.402590

  @DF-RHF Final Energy:  -400.08024923346204

   => Energetics <=

    Nuclear Repulsion Energy =            399.5194661157712517
    One-Electron Energy =               -1337.8945522088547477
    Two-Electron Energy =                 538.2948368596214550
    Total Energy =                       -400.0802492334620410
  Basis Set: (AUG-CC-PVTZ AUX)
    Blend: AUG-CC-PVTZ-RI
    Molecular point group: c1

    Geometry (in Angstrom), charge = 0, multiplicity = 1:

       Center              X                  Y                   Z               Mass
    ------------   -----------------  -----------------  -----------------  -----------------
         O           -2.524991293334    -0.521921533626     0.026084293019    15.994914619570
         O           -0.094175293334    -1.469798533626     0.169430293019    15.994914619570
         N            0.950117606666     0.465852966374    -0.628953906981    14.003074004430
         C           -1.518592293334     0.394758466374    -0.345588706981    12.000000000000
         C            2.267322706666    -0.145988533626    -0.524636706981    12.000000000000
         C           -0.162216293334    -0.305711533626    -0.249590706981    12.000000000000
         C           -1.588330293334     1.615476466374     0.563513293019    12.000000000000
         C            2.849268706666     0.057831466374     0.867646293019    12.000000000000
         H           -1.670787293334     0.702372466374    -1.392484706981     1.007825032230
         H            2.256955706666    -1.214952133626    -0.745825706981     1.007825032230
         H            2.889628706666     0.327642466374    -1.289072706981     1.007825032230
         H            0.806293706666     1.369019466374    -0.904663706981     1.007825032230
         H           -1.360300293334     1.318829466374     1.589801293019     1.007825032230
         H           -2.602131293334     2.018769466374     0.537211293019     1.007825032230
         H           -0.895748293334     2.405694466374     0.257325293019     1.007825032230
         H            2.900429706666     1.120805466374     1.117691293019     1.007825032230
         H            2.222283706666    -0.447998533626     1.605156293019     1.007825032230
         H            3.859320706666    -0.358282533626     0.926878293019     1.007825032230
         H           -2.036438293334    -1.350378533626     0.226817293019     1.007825032230

  Basis Set: AUG-CC-PVTZ
    Blend: AUG-CC-PVTZ
  Basis Set: (AUG-CC-PVTZ AUX)
    Blend: AUG-CC-PVTZ-JKFIT
	 Reference Energy          =    -400.0802492334620410 [Eh]
	 Singles Energy            =      -0.0000000000000000 [Eh]
	 Same-Spin Energy          =      -0.4020493231328967 [Eh]
	 Opposite-Spin Energy      =      -1.3080496238084951 [Eh]
	 Correlation Energy        =      -1.7100989469413919 [Eh]
	 Total Energy              =    -401.7903481804034413 [Eh]

	 ================> DF-SCS-MP2 Energies <==================
	-----------------------------------------------------------
	 SCS Same-Spin Scale       =       0.3333333333333333 [-]
	 SCS Opposite-Spin Scale   =       1.2000000000000000 [-]
	 SCS Same-Spin Energy      =      -0.1340164410442989 [Eh]
	 SCS Opposite-Spin Energy  =      -1.5696595485701941 [Eh]
	 SCS Correlation Energy    =      -1.7036759896144931 [Eh]
	 SCS Total Energy          =    -401.7839252230765510 [Eh]
	-----------------------------------------------------------

  Dipole Moment: [D]
     X:     2.8748      Y:     2.9649      Z:    -1.0517     Total:     4.2615

*** Psi4 exiting successfully. Buy a developer a beer!
