                               Psi4 1.4a3.dev225

  ==> Input File <==

--------------------------------------------------------------------------
#psi4
#
memory 32 gb

molecule  {
0 1
  O       -1.5707600    -1.5123310    -0.2332890
  O        0.1382410     1.6075510    -0.3059650
  N        0.6999210    -0.4896500     0.4239600
  C       -1.5456480    -0.0933390    -0.4361750
  C        2.0783650    -0.1398720     0.7271540
  C       -0.1470270     0.4197650    -0.1121660
  C       -2.5680410     0.6261290     0.4306590
  C        2.9727550    -0.1683320    -0.5071050
  H       -1.7249562     0.1465793    -1.5145465
  H        2.0695770     0.8628690     1.1612900
  H        2.4371510    -0.8367210     1.4904630
  H        0.3848370    -1.4513440     0.4597870
  H       -2.3944150     0.3774590     1.4809910
  H       -3.5869010     0.3276930     0.1608950
  H       -2.4702460     1.7050790     0.2962630
  H        2.9788310    -1.1637080    -0.9596270
  H        2.6039680     0.5505970    -1.2414500
  H        4.0012360     0.0983730    -0.2444710
  H       -2.4840080    -1.8129070    -0.3767550
units angstrom
no_reorient  #important for SAPT in psi4, default
symmetry c1  #important for SAPT in psi4, default
}

set PROPERTIES_ORIGIN ["COM"]
properties('MP2/aug-cc-pvtz', properties = ['dipole'])
--------------------------------------------------------------------------

    Molecular point group: c1
  Charge       = 0
  Multiplicity = 1
  Basis Set: AUG-CC-PVTZ
    Blend: AUG-CC-PVTZ
  Basis Set: (AUG-CC-PVTZ AUX)
    Blend: AUG-CC-PVTZ-JKFIT

    Orbital Energies [Eh]
    ---------------------

    Doubly Occupied:

       1A    -20.581907     2A    -20.510412     3A    -15.578313
       4A    -11.343914     5A    -11.304016     6A    -11.259902
       7A    -11.229648     8A    -11.212026     9A     -1.388664
      10A     -1.359918    11A     -1.225254    12A     -1.044929
      13A     -1.009814    14A     -0.901933    15A     -0.842507
      16A     -0.775962    17A     -0.715342    18A     -0.697306
      19A     -0.642224    20A     -0.633519    21A     -0.610147
      22A     -0.588466    23A     -0.582786    24A     -0.558934
      25A     -0.539698    26A     -0.525002    27A     -0.519629
      28A     -0.508798    29A     -0.490625    30A     -0.460001
      31A     -0.415612    32A     -0.384361

  @DF-RHF Final Energy:  -400.08731954437764

   => Energetics <=

    Nuclear Repulsion Energy =            399.8398804485877918
    One-Electron Energy =               -1338.9712619776553311
    Two-Electron Energy =                 539.0440619846898471
    Total Energy =                       -400.0873195443776922
  Basis Set: (AUG-CC-PVTZ AUX)
    Blend: AUG-CC-PVTZ-RI
    Molecular point group: c1

    Geometry (in Angstrom), charge = 0, multiplicity = 1:

       Center              X                  Y                   Z               Mass
    ------------   -----------------  -----------------  -----------------  -----------------
         O           -1.555404137264    -1.522522862957    -0.226953473758    15.994914619570
         O            0.153596862736     1.597359137043    -0.299629473758    15.994914619570
         N            0.715276862736    -0.499841862957     0.430295526242    14.003074004430
         C           -1.530292137264    -0.103530862957    -0.429839473758    12.000000000000
         C            2.093720862736    -0.150063862957     0.733489526242    12.000000000000
         C           -0.131671137264     0.409573137043    -0.105830473758    12.000000000000
         C           -2.552685137264     0.615937137043     0.436994526242    12.000000000000
         C            2.988110862736    -0.178523862957    -0.500769473758    12.000000000000
         H           -1.709600337264     0.136387437043    -1.508210973758     1.007825032230
         H            2.084932862736     0.852677137043     1.167625526242     1.007825032230
         H            2.452506862736    -0.846912862957     1.496798526242     1.007825032230
         H            0.400192862736    -1.461535862957     0.466122526242     1.007825032230
         H           -2.379059137264     0.367267137043     1.487326526242     1.007825032230
         H           -3.571545137264     0.317501137043     0.167230526242     1.007825032230
         H           -2.454890137264     1.694887137043     0.302598526242     1.007825032230
         H            2.994186862736    -1.173899862957    -0.953291473758     1.007825032230
         H            2.619323862736     0.540405137043    -1.235114473758     1.007825032230
         H            4.016591862736     0.088181137043    -0.238135473758     1.007825032230
         H           -2.468652137264    -1.823098862957    -0.370419473758     1.007825032230

  Basis Set: AUG-CC-PVTZ
    Blend: AUG-CC-PVTZ
  Basis Set: (AUG-CC-PVTZ AUX)
    Blend: AUG-CC-PVTZ-JKFIT
	 Reference Energy          =    -400.0873195443776353 [Eh]
	 Singles Energy            =      -0.0000000000000000 [Eh]
	 Same-Spin Energy          =      -0.4016244657634060 [Eh]
	 Opposite-Spin Energy      =      -1.3076064921888082 [Eh]
	 Correlation Energy        =      -1.7092309579522142 [Eh]
	 Total Energy              =    -401.7965505023298647 [Eh]

	 ================> DF-SCS-MP2 Energies <==================
	-----------------------------------------------------------
	 SCS Same-Spin Scale       =       0.3333333333333333 [-]
	 SCS Opposite-Spin Scale   =       1.2000000000000000 [-]
	 SCS Same-Spin Energy      =      -0.1338748219211353 [Eh]
	 SCS Opposite-Spin Energy  =      -1.5691277906265697 [Eh]
	 SCS Correlation Energy    =      -1.7030026125477051 [Eh]
	 SCS Total Energy          =    -401.7903221569253560 [Eh]
	-----------------------------------------------------------

  Dipole Moment: [D]
     X:    -1.1627      Y:    -2.7657      Z:     0.4867     Total:     3.0394

*** Psi4 exiting successfully. Buy a developer a beer!
