                               Psi4 1.4a3.dev225

  ==> Input File <==

--------------------------------------------------------------------------
#psi4
#
memory 32 gb

molecule  {
0 1
  O       -1.5707600    -1.5123310    -0.2332890
  O        0.1382410     1.6075510    -0.3059650
  N        0.6999210    -0.4896500     0.4239600
  C       -1.5456480    -0.0933390    -0.4361750
  C        2.0973245    -0.1350610     0.7313242
  C       -0.1470270     0.4197650    -0.1121660
  C       -2.5680410     0.6261290     0.4306590
  C        2.9727550    -0.1683320    -0.5071050
  H       -1.7217520     0.1422920    -1.4952760
  H        2.0695770     0.8628690     1.1612900
  H        2.4371510    -0.8367210     1.4904630
  H        0.3848370    -1.4513440     0.4597870
  H       -2.3944150     0.3774590     1.4809910
  H       -3.5869010     0.3276930     0.1608950
  H       -2.4702460     1.7050790     0.2962630
  H        2.9788310    -1.1637080    -0.9596270
  H        2.6039680     0.5505970    -1.2414500
  H        4.0012360     0.0983730    -0.2444710
  H       -2.4840080    -1.8129070    -0.3767550
units angstrom
no_reorient  #important for SAPT in psi4, default
symmetry c1  #important for SAPT in psi4, default
}

set PROPERTIES_ORIGIN ["COM"]
properties('MP2/aug-cc-pvtz', properties = ['dipole'])
--------------------------------------------------------------------------

    Molecular point group: c1
  Charge       = 0
  Multiplicity = 1
  Basis Set: AUG-CC-PVTZ
    Blend: AUG-CC-PVTZ
  Basis Set: (AUG-CC-PVTZ AUX)
    Blend: AUG-CC-PVTZ-JKFIT

    Orbital Energies [Eh]
    ---------------------

    Doubly Occupied:

       1A    -20.581022     2A    -20.509469     3A    -15.577263
       4A    -11.342875     5A    -11.301067     6A    -11.260535
       7A    -11.229020     8A    -11.212528     9A     -1.387793
      10A     -1.358784    11A     -1.220767    12A     -1.045167
      13A     -1.011764    14A     -0.901005    15A     -0.843349
      16A     -0.774240    17A     -0.716648    18A     -0.696388
      19A     -0.641872    20A     -0.631036    21A     -0.611131
      22A     -0.587741    23A     -0.582946    24A     -0.558351
      25A     -0.539728    26A     -0.524748    27A     -0.518065
      28A     -0.510630    29A     -0.492942    30A     -0.460991
      31A     -0.414512    32A     -0.384533

  @DF-RHF Final Energy:  -400.08761687756828

   => Energetics <=

    Nuclear Repulsion Energy =            399.6559214082907943
    One-Electron Energy =               -1338.6292577202073062
    Two-Electron Energy =                 538.8857194343481751
    Total Energy =                       -400.0876168775682800
  Basis Set: (AUG-CC-PVTZ AUX)
    Blend: AUG-CC-PVTZ-RI
    Molecular point group: c1

    Geometry (in Angstrom), charge = 0, multiplicity = 1:

       Center              X                  Y                   Z               Mass
    ------------   -----------------  -----------------  -----------------  -----------------
         O           -1.557374971616    -1.522979060580    -0.227546780030    15.994914619570
         O            0.151626028384     1.596902939420    -0.300222780030    15.994914619570
         N            0.713306028384    -0.500298060580     0.429702219970    14.003074004430
         C           -1.532262971616    -0.103987060580    -0.430432780030    12.000000000000
         C            2.110709528384    -0.145709060580     0.737066419970    12.000000000000
         C           -0.133641971616     0.409116939420    -0.106423780030    12.000000000000
         C           -2.554655971616     0.615480939420     0.436401219970    12.000000000000
         C            2.986140028384    -0.178980060580    -0.501362780030    12.000000000000
         H           -1.708366971616     0.131643939420    -1.489533780030     1.007825032230
         H            2.082962028384     0.852220939420     1.167032219970     1.007825032230
         H            2.450536028384    -0.847369060580     1.496205219970     1.007825032230
         H            0.398222028384    -1.461992060580     0.465529219970     1.007825032230
         H           -2.381029971616     0.366810939420     1.486733219970     1.007825032230
         H           -3.573515971616     0.317044939420     0.166637219970     1.007825032230
         H           -2.456860971616     1.694430939420     0.302005219970     1.007825032230
         H            2.992216028384    -1.174356060580    -0.953884780030     1.007825032230
         H            2.617353028384     0.539948939420    -1.235707780030     1.007825032230
         H            4.014621028384     0.087724939420    -0.238728780030     1.007825032230
         H           -2.470622971616    -1.823555060580    -0.371012780030     1.007825032230

  Basis Set: AUG-CC-PVTZ
    Blend: AUG-CC-PVTZ
  Basis Set: (AUG-CC-PVTZ AUX)
    Blend: AUG-CC-PVTZ-JKFIT
	 Reference Energy          =    -400.0876168775682800 [Eh]
	 Singles Energy            =      -0.0000000000000000 [Eh]
	 Same-Spin Energy          =      -0.4015243836420191 [Eh]
	 Opposite-Spin Energy      =      -1.3074722967420525 [Eh]
	 Correlation Energy        =      -1.7089966803840717 [Eh]
	 Total Energy              =    -401.7966135579523552 [Eh]

	 ================> DF-SCS-MP2 Energies <==================
	-----------------------------------------------------------
	 SCS Same-Spin Scale       =       0.3333333333333333 [-]
	 SCS Opposite-Spin Scale   =       1.2000000000000000 [-]
	 SCS Same-Spin Energy      =      -0.1338414612140064 [Eh]
	 SCS Opposite-Spin Energy  =      -1.5689667560904630 [Eh]
	 SCS Correlation Energy    =      -1.7028082173044694 [Eh]
	 SCS Total Energy          =    -401.7904250948727736 [Eh]
	-----------------------------------------------------------

  Dipole Moment: [D]
     X:    -1.0949      Y:    -2.7634      Z:     0.4833     Total:     3.0115

*** Psi4 exiting successfully. Buy a developer a beer!
