                               Psi4 1.3.2 release

  ==> Input File <==

--------------------------------------------------------------------------
#psi4
#
memory 32 gb

molecule  {
0 1
  O       -2.5211540    -0.5137840     0.0284240
  O       -0.0903380    -1.4616610     0.1717700
  N        0.9259230     0.4056680    -0.6455280
  C       -1.5147550     0.4028960    -0.3432490
  C        2.2407494    -0.2009521    -0.4922148
  C       -0.1149506    -0.3500843    -0.2280290
  C       -1.5844930     1.6236140     0.5658530
  C        2.8531060     0.0659690     0.8699860
  H       -1.6669500     0.7105100    -1.3901450
  H        2.2044940    -1.2028750    -0.7525030
  H        2.8934660     0.3357800    -1.2867330
  H        0.8101310     1.3771570    -0.9023240
  H       -1.3564630     1.3269670     1.5921410
  H       -2.5982940     2.0269070     0.5395510
  H       -0.8919110     2.4138320     0.2596650
  H        2.9042670     1.1289430     1.1200310
  H        2.2261210    -0.4398610     1.6074960
  H        3.8631580    -0.3501450     0.9292180
  H       -2.0326010    -1.3422410     0.2291570
units angstrom
no_reorient  #important for SAPT in psi4, default
symmetry c1  #important for SAPT in psi4, default
}

set PROPERTIES_ORIGIN ["COM"]
properties('MP2/aug-cc-pvtz', properties = ['dipole'])
--------------------------------------------------------------------------

    Molecular point group: c1
  Charge       = 0
  Multiplicity = 1
  Basis Set: AUG-CC-PVTZ
    Blend: AUG-CC-PVTZ
  Basis Set: (AUG-CC-PVTZ AUX)
    Blend: AUG-CC-PVTZ-JKFIT

    Orbital Energies [Eh]
    ---------------------

    Doubly Occupied:

       1A    -20.546050     2A    -20.542428     3A    -15.594975
       4A    -11.354278     5A    -11.293194     6A    -11.273514
       7A    -11.227242     8A    -11.224872     9A     -1.430421
      10A     -1.349444    11A     -1.251181    12A     -1.045005
      13A     -1.009797    14A     -0.892999    15A     -0.843073
      16A     -0.801638    17A     -0.739283    18A     -0.683355
      19A     -0.651686    20A     -0.646296    21A     -0.612874
      22A     -0.606636    23A     -0.575333    24A     -0.561044
      25A     -0.547382    26A     -0.535289    27A     -0.530477
      28A     -0.523211    29A     -0.498938    30A     -0.443199
      31A     -0.423916    32A     -0.406310

  @DF-RHF Final Energy:  -400.07769930333120

   => Energetics <=

    Nuclear Repulsion Energy =            401.1910724259254835
    One-Electron Energy =               -1341.2068619447302353
    Two-Electron Energy =                 539.9380902154734940
    Total Energy =                       -400.0776993033312010
  Basis Set: (AUG-CC-PVTZ AUX)
    Blend: AUG-CC-PVTZ-RI
    Molecular point group: c1

    Geometry (in Angstrom), charge = 0, multiplicity = 1:

       Center              X                  Y                   Z               Mass
    ------------   -----------------  -----------------  -----------------  -----------------
         O           -2.522488207680    -0.501934244497     0.023370641906    15.994914619570
         O           -0.091672207680    -1.449811244497     0.166716641906    15.994914619570
         N            0.924588792320     0.417517755503    -0.650581358094    14.003074004430
         C           -1.516089207680     0.414745755503    -0.348302358094    12.000000000000
         C            2.239415192320    -0.189102344497    -0.497268158094    12.000000000000
         C           -0.116284807680    -0.338234544497    -0.233082358094    12.000000000000
         C           -1.585827207680     1.635463755503     0.560799641906    12.000000000000
         C            2.851771792320     0.077818755503     0.864932641906    12.000000000000
         H           -1.668284207680     0.722359755503    -1.395198358094     1.007825032230
         H            2.203159792320    -1.191025244497    -0.757556358094     1.007825032230
         H            2.892131792320     0.347629755503    -1.291786358094     1.007825032230
         H            0.808796792320     1.389006755503    -0.907377358094     1.007825032230
         H           -1.357797207680     1.338816755503     1.587087641906     1.007825032230
         H           -2.599628207680     2.038756755503     0.534497641906     1.007825032230
         H           -0.893245207680     2.425681755503     0.254611641906     1.007825032230
         H            2.902932792320     1.140792755503     1.114977641906     1.007825032230
         H            2.224786792320    -0.428011244497     1.602442641906     1.007825032230
         H            3.861823792320    -0.338295244497     0.924164641906     1.007825032230
         H           -2.033935207680    -1.330391244497     0.224103641906     1.007825032230

  Basis Set: AUG-CC-PVTZ
    Blend: AUG-CC-PVTZ
  Basis Set: (AUG-CC-PVTZ AUX)
    Blend: AUG-CC-PVTZ-JKFIT
	 Reference Energy          =    -400.0776993033312010 [Eh]
	 Singles Energy            =      -0.0000000000000000 [Eh]
	 Same-Spin Energy          =      -0.4010374979248534 [Eh]
	 Opposite-Spin Energy      =      -1.3056486418806568 [Eh]
	 Correlation Energy        =      -1.7066861398055102 [Eh]
	 Total Energy              =    -401.7843854431367276 [Eh]

	 ================> DF-SCS-MP2 Energies <==================
	-----------------------------------------------------------
	 SCS Same-Spin Scale       =       0.3333333333333333 [-]
	 SCS Opposite-Spin Scale   =       1.2000000000000000 [-]
	 SCS Same-Spin Energy      =      -0.1336791659749511 [Eh]
	 SCS Opposite-Spin Energy  =      -1.5667783702567881 [Eh]
	 SCS Correlation Energy    =      -1.7004575362317391 [Eh]
	 SCS Total Energy          =    -401.7781568395629392 [Eh]
	-----------------------------------------------------------

  Dipole Moment: [D]
     X:     3.1800      Y:     2.8333      Z:    -0.9328     Total:     4.3601

*** Psi4 exiting successfully. Buy a developer a beer!
