                               Psi4 1.3.2 release

  ==> Input File <==

--------------------------------------------------------------------------
#psi4
#
memory 32 gb

molecule  {
0 1
  O       -2.5211540    -0.5137840     0.0284240
  O       -0.0903380    -1.4616610     0.1717700
  N        0.9259230     0.4056680    -0.6455280
  C       -1.5147550     0.4028960    -0.3432490
  C        2.2711600    -0.1378510    -0.5222970
  C       -0.1515268    -0.2894411    -0.2995710
  C       -1.5844930     1.6236140     0.5658530
  C        2.8531060     0.0659690     0.8699860
  H       -1.6327271     0.6953029    -1.3988823
  H        2.2044940    -1.2028750    -0.7525030
  H        2.8934660     0.3357800    -1.2867330
  H        0.8101310     1.3771570    -0.9023240
  H       -1.3564630     1.3269670     1.5921410
  H       -2.5982940     2.0269070     0.5395510
  H       -0.8919110     2.4138320     0.2596650
  H        2.9042670     1.1289430     1.1200310
  H        2.2261210    -0.4398610     1.6074960
  H        3.8631580    -0.3501450     0.9292180
  H       -2.0326010    -1.3422410     0.2291570
units angstrom
no_reorient  #important for SAPT in psi4, default
symmetry c1  #important for SAPT in psi4, default
}

set PROPERTIES_ORIGIN ["COM"]
properties('MP2/aug-cc-pvtz', properties = ['dipole'])
--------------------------------------------------------------------------

    Molecular point group: c1
  Charge       = 0
  Multiplicity = 1
  Basis Set: AUG-CC-PVTZ
    Blend: AUG-CC-PVTZ
  Basis Set: (AUG-CC-PVTZ AUX)
    Blend: AUG-CC-PVTZ-JKFIT

    Orbital Energies [Eh]
    ---------------------

    Doubly Occupied:

       1A    -20.548233     2A    -20.526614     3A    -15.603870
       4A    -11.358175     5A    -11.298851     6A    -11.276345
       7A    -11.232250     8A    -11.225690     9A     -1.387466
      10A     -1.342239    11A     -1.250578    12A     -1.055004
      13A     -1.015048    14A     -0.905971    15A     -0.852274
      16A     -0.799745    17A     -0.740651    18A     -0.676988
      19A     -0.652174    20A     -0.637018    21A     -0.611588
      22A     -0.598319    23A     -0.574628    24A     -0.563591
      25A     -0.545224    26A     -0.535478    27A     -0.517587
      28A     -0.510335    29A     -0.502728    30A     -0.446518
      31A     -0.431609    32A     -0.404058

  @DF-RHF Final Energy:  -400.08353942472615

   => Energetics <=

    Nuclear Repulsion Energy =            400.2784060803849684
    One-Electron Energy =               -1339.4701910245651106
    Two-Electron Energy =                 539.1082455194540444
    Total Energy =                       -400.0835394247261547
  Basis Set: (AUG-CC-PVTZ AUX)
    Blend: AUG-CC-PVTZ-RI
    Molecular point group: c1

    Geometry (in Angstrom), charge = 0, multiplicity = 1:

       Center              X                  Y                   Z               Mass
    ------------   -----------------  -----------------  -----------------  -----------------
         O           -2.522150858438    -0.514486502140     0.033861817045    15.994914619570
         O           -0.091334858438    -1.462363502140     0.177207817045    15.994914619570
         N            0.924926141562     0.404965497860    -0.640090182955    14.003074004430
         C           -1.515751858438     0.402193497860    -0.337811182955    12.000000000000
         C            2.270163141562    -0.138553502140    -0.516859182955    12.000000000000
         C           -0.152523658438    -0.290143602140    -0.294133182955    12.000000000000
         C           -1.585489858438     1.622911497860     0.571290817045    12.000000000000
         C            2.852109141562     0.065266497860     0.875423817045    12.000000000000
         H           -1.633723958438     0.694600397860    -1.393444482955     1.007825032230
         H            2.203497141562    -1.203577502140    -0.747065182955     1.007825032230
         H            2.892469141562     0.335077497860    -1.281295182955     1.007825032230
         H            0.809134141562     1.376454497860    -0.896886182955     1.007825032230
         H           -1.357459858438     1.326264497860     1.597578817045     1.007825032230
         H           -2.599290858438     2.026204497860     0.544988817045     1.007825032230
         H           -0.892907858438     2.413129497860     0.265102817045     1.007825032230
         H            2.903270141562     1.128240497860     1.125468817045     1.007825032230
         H            2.225124141562    -0.440563502140     1.612933817045     1.007825032230
         H            3.862161141562    -0.350847502140     0.934655817045     1.007825032230
         H           -2.033597858438    -1.342943502140     0.234594817045     1.007825032230

  Basis Set: AUG-CC-PVTZ
    Blend: AUG-CC-PVTZ
  Basis Set: (AUG-CC-PVTZ AUX)
    Blend: AUG-CC-PVTZ-JKFIT
	 Reference Energy          =    -400.0835394247261547 [Eh]
	 Singles Energy            =      -0.0000000000000000 [Eh]
	 Same-Spin Energy          =      -0.4026114873803287 [Eh]
	 Opposite-Spin Energy      =      -1.3085458848045242 [Eh]
	 Correlation Energy        =      -1.7111573721848528 [Eh]
	 Total Energy              =    -401.7946967969110119 [Eh]

	 ================> DF-SCS-MP2 Energies <==================
	-----------------------------------------------------------
	 SCS Same-Spin Scale       =       0.3333333333333333 [-]
	 SCS Opposite-Spin Scale   =       1.2000000000000000 [-]
	 SCS Same-Spin Energy      =      -0.1342038291267762 [Eh]
	 SCS Opposite-Spin Energy  =      -1.5702550617654289 [Eh]
	 SCS Correlation Energy    =      -1.7044588908922051 [Eh]
	 SCS Total Energy          =    -401.7879983156183812 [Eh]
	-----------------------------------------------------------

  Dipole Moment: [D]
     X:     3.2393      Y:     3.3235      Z:    -1.1192     Total:     4.7740

*** Psi4 exiting successfully. Buy a developer a beer!
