                               Psi4 1.3.2 release

  ==> Input File <==

--------------------------------------------------------------------------
#psi4
#
memory 32 gb

molecule  {
0 1
  O       -2.5211540    -0.5137840     0.0284240
  O       -0.0903380    -1.4616610     0.1717700
  N        0.9259230     0.4056680    -0.6455280
  C       -1.5147550     0.4028960    -0.3432490
  C        2.2711600    -0.1378510    -0.5222970
  C       -0.2470551    -0.2517792    -0.2535271
  C       -1.5844930     1.6236140     0.5658530
  C        2.8531060     0.0659690     0.8699860
  H       -1.6669500     0.7105100    -1.3901450
  H        2.2044940    -1.2028750    -0.7525030
  H        2.8934660     0.3357800    -1.2867330
  H        0.8101310     1.3771570    -0.9023240
  H       -1.3564630     1.3269670     1.5921410
  H       -2.5982940     2.0269070     0.5395510
  H       -0.8919110     2.4138320     0.2596650
  H        2.9042670     1.1289430     1.1200310
  H        2.2261210    -0.4398610     1.6074960
  H        3.8631580    -0.3501450     0.9292180
  H       -2.0326010    -1.3422410     0.2291570
units angstrom
no_reorient  #important for SAPT in psi4, default
symmetry c1  #important for SAPT in psi4, default
}

set PROPERTIES_ORIGIN ["COM"]
properties('MP2/aug-cc-pvtz', properties = ['dipole'])
--------------------------------------------------------------------------

    Molecular point group: c1
  Charge       = 0
  Multiplicity = 1
  Basis Set: AUG-CC-PVTZ
    Blend: AUG-CC-PVTZ
  Basis Set: (AUG-CC-PVTZ AUX)
    Blend: AUG-CC-PVTZ-JKFIT

    Orbital Energies [Eh]
    ---------------------

    Doubly Occupied:

       1A    -20.553517     2A    -20.531919     3A    -15.596775
       4A    -11.368564     5A    -11.301681     6A    -11.272113
       7A    -11.238676     8A    -11.221372     9A     -1.387947
      10A     -1.336997    11A     -1.226669    12A     -1.068333
      13A     -1.012149    14A     -0.919491    15A     -0.853797
      16A     -0.779157    17A     -0.751408    18A     -0.682160
      19A     -0.650302    20A     -0.637079    21A     -0.609401
      22A     -0.588554    23A     -0.575314    24A     -0.565958
      25A     -0.545660    26A     -0.535317    27A     -0.518313
      28A     -0.509773    29A     -0.496956    30A     -0.451097
      31A     -0.444299    32A     -0.394829

  @DF-RHF Final Energy:  -400.06793314601703

   => Energetics <=

    Nuclear Repulsion Energy =            400.1840874655085827
    One-Electron Energy =               -1339.2528921183693456
    Two-Electron Energy =                 539.0008715068437368
    Total Energy =                       -400.0679331460170260
  Basis Set: (AUG-CC-PVTZ AUX)
    Blend: AUG-CC-PVTZ-RI
    Molecular point group: c1

    Geometry (in Angstrom), charge = 0, multiplicity = 1:

       Center              X                  Y                   Z               Mass
    ------------   -----------------  -----------------  -----------------  -----------------
         O           -2.512065100008    -0.518477559302     0.029067340049    15.994914619570
         O           -0.081249100008    -1.466354559302     0.172413340049    15.994914619570
         N            0.935011899992     0.400974440698    -0.644884659951    14.003074004430
         C           -1.505666100008     0.398202440698    -0.342605659951    12.000000000000
         C            2.280248899992    -0.142544559302    -0.521653659951    12.000000000000
         C           -0.237966200008    -0.256472759302    -0.252883759951    12.000000000000
         C           -1.575404100008     1.618920440698     0.566496340049    12.000000000000
         C            2.862194899992     0.061275440698     0.870629340049    12.000000000000
         H           -1.657861100008     0.705816440698    -1.389501659951     1.007825032230
         H            2.213582899992    -1.207568559302    -0.751859659951     1.007825032230
         H            2.902554899992     0.331086440698    -1.286089659951     1.007825032230
         H            0.819219899992     1.372463440698    -0.901680659951     1.007825032230
         H           -1.347374100008     1.322273440698     1.592784340049     1.007825032230
         H           -2.589205100008     2.022213440698     0.540194340049     1.007825032230
         H           -0.882822100008     2.409138440698     0.260308340049     1.007825032230
         H            2.913355899992     1.124249440698     1.120674340049     1.007825032230
         H            2.235209899992    -0.444554559302     1.608139340049     1.007825032230
         H            3.872246899992    -0.354838559302     0.929861340049     1.007825032230
         H           -2.023512100008    -1.346934559302     0.229800340049     1.007825032230

  Basis Set: AUG-CC-PVTZ
    Blend: AUG-CC-PVTZ
  Basis Set: (AUG-CC-PVTZ AUX)
    Blend: AUG-CC-PVTZ-JKFIT
	 Reference Energy          =    -400.0679331460170260 [Eh]
	 Singles Energy            =      -0.0000000000000000 [Eh]
	 Same-Spin Energy          =      -0.4042618779670422 [Eh]
	 Opposite-Spin Energy      =      -1.3118306655014056 [Eh]
	 Correlation Energy        =      -1.7160925434684478 [Eh]
	 Total Energy              =    -401.7840256894854747 [Eh]

	 ================> DF-SCS-MP2 Energies <==================
	-----------------------------------------------------------
	 SCS Same-Spin Scale       =       0.3333333333333333 [-]
	 SCS Opposite-Spin Scale   =       1.2000000000000000 [-]
	 SCS Same-Spin Energy      =      -0.1347539593223474 [Eh]
	 SCS Opposite-Spin Energy  =      -1.5741967986016867 [Eh]
	 SCS Correlation Energy    =      -1.7089507579240342 [Eh]
	 SCS Total Energy          =    -401.7768839039410409 [Eh]
	-----------------------------------------------------------

  Dipole Moment: [D]
     X:     2.6750      Y:     3.3503      Z:    -1.0265     Total:     4.4084

*** Psi4 exiting successfully. Buy a developer a beer!
