                               Psi4 1.4a3.dev225

  ==> Input File <==

--------------------------------------------------------------------------
#psi4
#
memory 32 gb

molecule  {
0 1
  O       -1.5707600    -1.5123310    -0.2332890
  O        0.1382410     1.6075510    -0.3059650
  N        0.6999210    -0.4896500     0.4239600
  C       -1.5456480    -0.0933390    -0.4361750
  C        2.0594055    -0.1446830     0.7229838
  C       -0.1470270     0.4197650    -0.1121660
  C       -2.5680410     0.6261290     0.4306590
  C        2.9727550    -0.1683320    -0.5071050
  H       -1.7217520     0.1422920    -1.4952760
  H        2.0695770     0.8628690     1.1612900
  H        2.4371510    -0.8367210     1.4904630
  H        0.3848370    -1.4513440     0.4597870
  H       -2.3944150     0.3774590     1.4809910
  H       -3.5869010     0.3276930     0.1608950
  H       -2.4702460     1.7050790     0.2962630
  H        2.9788310    -1.1637080    -0.9596270
  H        2.6039680     0.5505970    -1.2414500
  H        4.0012360     0.0983730    -0.2444710
  H       -2.4840080    -1.8129070    -0.3767550
units angstrom
no_reorient  #important for SAPT in psi4, default
symmetry c1  #important for SAPT in psi4, default
}

set PROPERTIES_ORIGIN ["COM"]
properties('MP2/aug-cc-pvtz', properties = ['dipole'])
--------------------------------------------------------------------------

    Molecular point group: c1
  Charge       = 0
  Multiplicity = 1
  Basis Set: AUG-CC-PVTZ
    Blend: AUG-CC-PVTZ
  Basis Set: (AUG-CC-PVTZ AUX)
    Blend: AUG-CC-PVTZ-JKFIT

    Orbital Energies [Eh]
    ---------------------

    Doubly Occupied:

       1A    -20.582130     2A    -20.511423     3A    -15.579103
       4A    -11.344643     5A    -11.302258     6A    -11.259315
       7A    -11.229905     8A    -11.211514     9A     -1.389330
      10A     -1.360979    11A     -1.229820    12A     -1.045840
      13A     -1.008011    14A     -0.903492    15A     -0.843299
      16A     -0.777845    17A     -0.718321    18A     -0.697878
      19A     -0.643235    20A     -0.636502    21A     -0.609322
      22A     -0.589580    23A     -0.582044    24A     -0.559356
      25A     -0.539895    26A     -0.525984    27A     -0.521450
      28A     -0.506809    29A     -0.488115    30A     -0.461293
      31A     -0.416597    32A     -0.383914

  @DF-RHF Final Energy:  -400.08750626295239

   => Energetics <=

    Nuclear Repulsion Energy =            400.2407773487588543
    One-Electron Energy =               -1339.7381585634220755
    Two-Electron Energy =                 539.4098749517107763
    Total Energy =                       -400.0875062629523882
  Basis Set: (AUG-CC-PVTZ AUX)
    Blend: AUG-CC-PVTZ-RI
    Molecular point group: c1

    Geometry (in Angstrom), charge = 0, multiplicity = 1:

       Center              X                  Y                   Z               Mass
    ------------   -----------------  -----------------  -----------------  -----------------
         O           -1.553488466921    -1.521992854505    -0.226691931438    15.994914619570
         O            0.155512533079     1.597889145495    -0.299367931438    15.994914619570
         N            0.717192533079    -0.499311854505     0.430557068562    14.003074004430
         C           -1.528376466921    -0.103000854505    -0.429577931438    12.000000000000
         C            2.076677033079    -0.154344854505     0.729580868562    12.000000000000
         C           -0.129755466921     0.410103145495    -0.105568931438    12.000000000000
         C           -2.550769466921     0.616467145495     0.437256068562    12.000000000000
         C            2.990026533079    -0.177993854505    -0.500507931438    12.000000000000
         H           -1.704480466921     0.132630145495    -1.488678931438     1.007825032230
         H            2.086848533079     0.853207145495     1.167887068562     1.007825032230
         H            2.454422533079    -0.846382854505     1.497060068562     1.007825032230
         H            0.402108533079    -1.461005854505     0.466384068562     1.007825032230
         H           -2.377143466921     0.367797145495     1.487588068562     1.007825032230
         H           -3.569629466921     0.318031145495     0.167492068562     1.007825032230
         H           -2.452974466921     1.695417145495     0.302860068562     1.007825032230
         H            2.996102533079    -1.173369854505    -0.953029931438     1.007825032230
         H            2.621239533079     0.540935145495    -1.234852931438     1.007825032230
         H            4.018507533079     0.088711145495    -0.237873931438     1.007825032230
         H           -2.466736466921    -1.822568854505    -0.370157931438     1.007825032230

  Basis Set: AUG-CC-PVTZ
    Blend: AUG-CC-PVTZ
  Basis Set: (AUG-CC-PVTZ AUX)
    Blend: AUG-CC-PVTZ-JKFIT
	 Reference Energy          =    -400.0875062629523882 [Eh]
	 Singles Energy            =      -0.0000000000000000 [Eh]
	 Same-Spin Energy          =      -0.4016870393483465 [Eh]
	 Opposite-Spin Energy      =      -1.3074590714762455 [Eh]
	 Correlation Energy        =      -1.7091461108245920 [Eh]
	 Total Energy              =    -401.7966523737769649 [Eh]

	 ================> DF-SCS-MP2 Energies <==================
	-----------------------------------------------------------
	 SCS Same-Spin Scale       =       0.3333333333333333 [-]
	 SCS Opposite-Spin Scale   =       1.2000000000000000 [-]
	 SCS Same-Spin Energy      =      -0.1338956797827822 [Eh]
	 SCS Opposite-Spin Energy  =      -1.5689508857714947 [Eh]
	 SCS Correlation Energy    =      -1.7028465655542768 [Eh]
	 SCS Total Energy          =    -401.7903528285066841 [Eh]
	-----------------------------------------------------------

  Dipole Moment: [D]
     X:    -1.2331      Y:    -2.7578      Z:     0.4697     Total:     3.0572

*** Psi4 exiting successfully. Buy a developer a beer!
