                               Psi4 1.4a3.dev225

  ==> Input File <==

--------------------------------------------------------------------------
#psi4
#
memory 32 gb

molecule  {
0 1
  O       -1.5707600    -1.5123310    -0.2332890
  O        0.1382410     1.6075510    -0.3059650
  N        0.6999210    -0.4896500     0.4239600
  C       -1.5456480    -0.0933390    -0.4361750
  C        2.0783650    -0.1398720     0.7271540
  C       -0.1470270     0.4197650    -0.1121660
  C       -2.5680410     0.6261290     0.4306590
  C        2.9727550    -0.1683320    -0.5071050
  H       -1.7217520     0.1422920    -1.4952760
  H        2.0695770     0.8628690     1.1612900
  H        2.4371510    -0.8367210     1.4904630
  H        0.4003947    -1.4038590     0.4580180
  H       -2.3944150     0.3774590     1.4809910
  H       -3.5869010     0.3276930     0.1608950
  H       -2.4702460     1.7050790     0.2962630
  H        2.9788310    -1.1637080    -0.9596270
  H        2.6039680     0.5505970    -1.2414500
  H        4.0012360     0.0983730    -0.2444710
  H       -2.4840080    -1.8129070    -0.3767550
units angstrom
no_reorient  #important for SAPT in psi4, default
symmetry c1  #important for SAPT in psi4, default
}

set PROPERTIES_ORIGIN ["COM"]
properties('MP2/aug-cc-pvtz', properties = ['dipole'])
--------------------------------------------------------------------------

    Molecular point group: c1
  Charge       = 0
  Multiplicity = 1
  Basis Set: AUG-CC-PVTZ
    Blend: AUG-CC-PVTZ
  Basis Set: (AUG-CC-PVTZ AUX)
    Blend: AUG-CC-PVTZ-JKFIT

    Orbital Energies [Eh]
    ---------------------

    Doubly Occupied:

       1A    -20.581220     2A    -20.510941     3A    -15.574201
       4A    -11.344172     5A    -11.301774     6A    -11.260258
       7A    -11.229552     8A    -11.212359     9A     -1.388611
      10A     -1.360353    11A     -1.231519    12A     -1.045712
      13A     -1.011335    14A     -0.902795    15A     -0.844191
      16A     -0.787857    17A     -0.717371    18A     -0.697834
      19A     -0.642518    20A     -0.635370    21A     -0.610419
      22A     -0.589305    23A     -0.585069    24A     -0.558798
      25A     -0.540503    26A     -0.525753    27A     -0.520393
      28A     -0.509060    29A     -0.491378    30A     -0.461133
      31A     -0.416156    32A     -0.385605

  @DF-RHF Final Energy:  -400.08769766251572

   => Energetics <=

    Nuclear Repulsion Energy =            400.2315196206799328
    One-Electron Energy =               -1339.6914006462145608
    Two-Electron Energy =                 539.3721833630188485
    Total Energy =                       -400.0876976625157795
  Basis Set: (AUG-CC-PVTZ AUX)
    Blend: AUG-CC-PVTZ-RI
    Molecular point group: c1

    Geometry (in Angstrom), charge = 0, multiplicity = 1:

       Center              X                  Y                   Z               Mass
    ------------   -----------------  -----------------  -----------------  -----------------
         O           -1.555565641171    -1.522894712147    -0.227104128043    15.994914619570
         O            0.153435358829     1.596987287853    -0.299780128043    15.994914619570
         N            0.715115358829    -0.500213712147     0.430144871957    14.003074004430
         C           -1.530453641171    -0.103902712147    -0.429990128043    12.000000000000
         C            2.093559358829    -0.150435712147     0.733338871957    12.000000000000
         C           -0.131832641171     0.409201287853    -0.105981128043    12.000000000000
         C           -2.552846641171     0.615565287853     0.436843871957    12.000000000000
         C            2.987949358829    -0.178895712147    -0.500920128043    12.000000000000
         H           -1.706557641171     0.131728287853    -1.489091128043     1.007825032230
         H            2.084771358829     0.852305287853     1.167474871957     1.007825032230
         H            2.452345358829    -0.847284712147     1.496647871957     1.007825032230
         H            0.415589058829    -1.414422712147     0.464202871957     1.007825032230
         H           -2.379220641171     0.366895287853     1.487175871957     1.007825032230
         H           -3.571706641171     0.317129287853     0.167079871957     1.007825032230
         H           -2.455051641171     1.694515287853     0.302447871957     1.007825032230
         H            2.994025358829    -1.174271712147    -0.953442128043     1.007825032230
         H            2.619162358829     0.540033287853    -1.235265128043     1.007825032230
         H            4.016430358829     0.087809287853    -0.238286128043     1.007825032230
         H           -2.468813641171    -1.823470712147    -0.370570128043     1.007825032230

  Basis Set: AUG-CC-PVTZ
    Blend: AUG-CC-PVTZ
  Basis Set: (AUG-CC-PVTZ AUX)
    Blend: AUG-CC-PVTZ-JKFIT
	 Reference Energy          =    -400.0876976625157226 [Eh]
	 Singles Energy            =      -0.0000000000000000 [Eh]
	 Same-Spin Energy          =      -0.4011224966285328 [Eh]
	 Opposite-Spin Energy      =      -1.3065167387062182 [Eh]
	 Correlation Energy        =      -1.7076392353347511 [Eh]
	 Total Energy              =    -401.7953368978504614 [Eh]

	 ================> DF-SCS-MP2 Energies <==================
	-----------------------------------------------------------
	 SCS Same-Spin Scale       =       0.3333333333333333 [-]
	 SCS Opposite-Spin Scale   =       1.2000000000000000 [-]
	 SCS Same-Spin Energy      =      -0.1337074988761776 [Eh]
	 SCS Opposite-Spin Energy  =      -1.5678200864474618 [Eh]
	 SCS Correlation Energy    =      -1.7015275853236393 [Eh]
	 SCS Total Energy          =    -401.7892252478393402 [Eh]
	-----------------------------------------------------------

  Dipole Moment: [D]
     X:    -1.1418      Y:    -2.7046      Z:     0.4729     Total:     2.9735

*** Psi4 exiting successfully. Buy a developer a beer!
