                               Psi4 1.3.2 release

  ==> Input File <==

--------------------------------------------------------------------------
#psi4
#
memory 32 gb

molecule  {
0 1
  O       -2.5211540    -0.5137840     0.0284240
  O       -0.0903380    -1.4616610     0.1717700
  N        0.9259230     0.4056680    -0.6455280
  C       -1.5147550     0.4028960    -0.3432490
  C        2.2711600    -0.1378510    -0.5222970
  C       -0.1528877    -0.3915221    -0.2134338
  C       -1.5844930     1.6236140     0.5658530
  C        2.8531060     0.0659690     0.8699860
  H       -1.6669500     0.7105100    -1.3901450
  H        2.2044940    -1.2028750    -0.7525030
  H        2.8934660     0.3357800    -1.2867330
  H        0.8101310     1.3771570    -0.9023240
  H       -1.3564630     1.3269670     1.5921410
  H       -2.5982940     2.0269070     0.5395510
  H       -0.8919110     2.4138320     0.2596650
  H        2.9042670     1.1289430     1.1200310
  H        2.2261210    -0.4398610     1.6074960
  H        3.8631580    -0.3501450     0.9292180
  H       -2.0326010    -1.3422410     0.2291570
units angstrom
no_reorient  #important for SAPT in psi4, default
symmetry c1  #important for SAPT in psi4, default
}

set PROPERTIES_ORIGIN ["COM"]
properties('MP2/aug-cc-pvtz', properties = ['dipole'])
--------------------------------------------------------------------------

    Molecular point group: c1
  Charge       = 0
  Multiplicity = 1
  Basis Set: AUG-CC-PVTZ
    Blend: AUG-CC-PVTZ
  Basis Set: (AUG-CC-PVTZ AUX)
    Blend: AUG-CC-PVTZ-JKFIT

    Orbital Energies [Eh]
    ---------------------

    Doubly Occupied:

       1A    -20.554123     2A    -20.548356     3A    -15.582636
       4A    -11.355973     5A    -11.294392     6A    -11.266325
       7A    -11.228146     8A    -11.220726     9A     -1.463373
      10A     -1.354755    11A     -1.230153    12A     -1.040769
      13A     -1.004567    14A     -0.891042    15A     -0.839605
      16A     -0.787246    17A     -0.746658    18A     -0.689064
      19A     -0.660466    20A     -0.640739    21A     -0.615849
      22A     -0.603048    23A     -0.574978    24A     -0.561095
      25A     -0.551469    26A     -0.534689    27A     -0.534229
      28A     -0.527220    29A     -0.502036    30A     -0.445408
      31A     -0.426553    32A     -0.398656

  @DF-RHF Final Energy:  -400.07685389237412

   => Energetics <=

    Nuclear Repulsion Energy =            400.8587714162874249
    One-Electron Energy =               -1340.5225626868186737
    Two-Electron Energy =                 539.5869373781570175
    Total Energy =                       -400.0768538923741744
  Basis Set: (AUG-CC-PVTZ AUX)
    Blend: AUG-CC-PVTZ-RI
    Molecular point group: c1

    Geometry (in Angstrom), charge = 0, multiplicity = 1:

       Center              X                  Y                   Z               Mass
    ------------   -----------------  -----------------  -----------------  -----------------
         O           -2.521716779700    -0.504154622596     0.024957980660    15.994914619570
         O           -0.090900779700    -1.452031622596     0.168303980660    15.994914619570
         N            0.925360220300     0.415297377404    -0.648994019340    14.003074004430
         C           -1.515317779700     0.412525377404    -0.346715019340    12.000000000000
         C            2.270597220300    -0.128221622596    -0.525763019340    12.000000000000
         C           -0.153450479700    -0.381892722596    -0.216899819340    12.000000000000
         C           -1.585055779700     1.633243377404     0.562386980660    12.000000000000
         C            2.852543220300     0.075598377404     0.866519980660    12.000000000000
         H           -1.667512779700     0.720139377404    -1.393611019340     1.007825032230
         H            2.203931220300    -1.193245622596    -0.755969019340     1.007825032230
         H            2.892903220300     0.345409377404    -1.290199019340     1.007825032230
         H            0.809568220300     1.386786377404    -0.905790019340     1.007825032230
         H           -1.357025779700     1.336596377404     1.588674980660     1.007825032230
         H           -2.598856779700     2.036536377404     0.536084980660     1.007825032230
         H           -0.892473779700     2.423461377404     0.256198980660     1.007825032230
         H            2.903704220300     1.138572377404     1.116564980660     1.007825032230
         H            2.225558220300    -0.430231622596     1.604029980660     1.007825032230
         H            3.862595220300    -0.340515622596     0.925751980660     1.007825032230
         H           -2.033163779700    -1.332611622596     0.225690980660     1.007825032230

  Basis Set: AUG-CC-PVTZ
    Blend: AUG-CC-PVTZ
  Basis Set: (AUG-CC-PVTZ AUX)
    Blend: AUG-CC-PVTZ-JKFIT
	 Reference Energy          =    -400.0768538923741175 [Eh]
	 Singles Energy            =      -0.0000000000000000 [Eh]
	 Same-Spin Energy          =      -0.4000971865833675 [Eh]
	 Opposite-Spin Energy      =      -1.3039454543547224 [Eh]
	 Correlation Energy        =      -1.7040426409380900 [Eh]
	 Total Energy              =    -401.7808965333122160 [Eh]

	 ================> DF-SCS-MP2 Energies <==================
	-----------------------------------------------------------
	 SCS Same-Spin Scale       =       0.3333333333333333 [-]
	 SCS Opposite-Spin Scale   =       1.2000000000000000 [-]
	 SCS Same-Spin Energy      =      -0.1333657288611225 [Eh]
	 SCS Opposite-Spin Energy  =      -1.5647345452256669 [Eh]
	 SCS Correlation Energy    =      -1.6981002740867894 [Eh]
	 SCS Total Energy          =    -401.7749541664609296 [Eh]
	-----------------------------------------------------------

  Dipole Moment: [D]
     X:     2.8154      Y:     2.5617      Z:    -0.8389     Total:     3.8977

*** Psi4 exiting successfully. Buy a developer a beer!
