                               Psi4 1.3.2 release

  ==> Input File <==

--------------------------------------------------------------------------
#psi4
#
memory 32 gb

molecule  {
0 1
  O       -2.5211540    -0.5137840     0.0284240
  O       -0.1332909    -1.4615479     0.1768270
  N        0.9259230     0.4056680    -0.6455280
  C       -1.5378846     0.3586736    -0.3242786
  C        2.2711600    -0.1378510    -0.5222970
  C       -0.1583790    -0.2975740    -0.2472510
  C       -1.5844930     1.6236140     0.5658530
  C        2.8531060     0.0659690     0.8699860
  H       -1.6669500     0.7105100    -1.3901450
  H        2.2044940    -1.2028750    -0.7525030
  H        2.8934660     0.3357800    -1.2867330
  H        0.8101310     1.3771570    -0.9023240
  H       -1.3564630     1.3269670     1.5921410
  H       -2.5982940     2.0269070     0.5395510
  H       -0.8919110     2.4138320     0.2596650
  H        2.9042670     1.1289430     1.1200310
  H        2.2261210    -0.4398610     1.6074960
  H        3.8631580    -0.3501450     0.9292180
  H       -2.0326010    -1.3422410     0.2291570
units angstrom
no_reorient  #important for SAPT in psi4, default
symmetry c1  #important for SAPT in psi4, default
}

set PROPERTIES_ORIGIN ["COM"]
properties('MP2/aug-cc-pvtz', properties = ['dipole'])
--------------------------------------------------------------------------

    Molecular point group: c1
  Charge       = 0
  Multiplicity = 1
  Basis Set: AUG-CC-PVTZ
    Blend: AUG-CC-PVTZ
  Basis Set: (AUG-CC-PVTZ AUX)
    Blend: AUG-CC-PVTZ-JKFIT

    Orbital Energies [Eh]
    ---------------------

    Doubly Occupied:

       1A    -20.551291     2A    -20.533377     3A    -15.600750
       4A    -11.358431     5A    -11.297306     6A    -11.275363
       7A    -11.229015     8A    -11.225285     9A     -1.406231
      10A     -1.359913    11A     -1.247966    12A     -1.048493
      13A     -1.009303    14A     -0.900928    15A     -0.849312
      16A     -0.795181    17A     -0.751675    18A     -0.678180
      19A     -0.651063    20A     -0.642352    21A     -0.613601
      22A     -0.601325    23A     -0.580248    24A     -0.561294
      25A     -0.547394    26A     -0.535855    27A     -0.521614
      28A     -0.514229    29A     -0.504333    30A     -0.437522
      31A     -0.432716    32A     -0.404352

  @DF-RHF Final Energy:  -400.08511422991791

   => Energetics <=

    Nuclear Repulsion Energy =            400.8220180389546385
    One-Electron Energy =               -1340.4824685456935640
    Two-Electron Energy =                 539.5753362768210764
    Total Energy =                       -400.0851142299178491
  Basis Set: (AUG-CC-PVTZ AUX)
    Blend: AUG-CC-PVTZ-RI
    Molecular point group: c1

    Geometry (in Angstrom), charge = 0, multiplicity = 1:

       Center              X                  Y                   Z               Mass
    ------------   -----------------  -----------------  -----------------  -----------------
         O           -2.512915210191    -0.509266705329     0.025788832773    15.994914619570
         O           -0.125052110191    -1.457030605329     0.174191832773    15.994914619570
         N            0.934161789809     0.410185294671    -0.648163167227    14.003074004430
         C           -1.529645810191     0.363190894671    -0.326913767227    12.000000000000
         C            2.279398789809    -0.133333705329    -0.524932167227    12.000000000000
         C           -0.150140210191    -0.293056705329    -0.249886167227    12.000000000000
         C           -1.576254210191     1.628131294671     0.563217832773    12.000000000000
         C            2.861344789809     0.070486294671     0.867350832773    12.000000000000
         H           -1.658711210191     0.715027294671    -1.392780167227     1.007825032230
         H            2.212732789809    -1.198357705329    -0.755138167227     1.007825032230
         H            2.901704789809     0.340297294671    -1.289368167227     1.007825032230
         H            0.818369789809     1.381674294671    -0.904959167227     1.007825032230
         H           -1.348224210191     1.331484294671     1.589505832773     1.007825032230
         H           -2.590055210191     2.031424294671     0.536915832773     1.007825032230
         H           -0.883672210191     2.418349294671     0.257029832773     1.007825032230
         H            2.912505789809     1.133460294671     1.117395832773     1.007825032230
         H            2.234359789809    -0.435343705329     1.604860832773     1.007825032230
         H            3.871396789809    -0.345627705329     0.926582832773     1.007825032230
         H           -2.024362210191    -1.337723705329     0.226521832773     1.007825032230

  Basis Set: AUG-CC-PVTZ
    Blend: AUG-CC-PVTZ
  Basis Set: (AUG-CC-PVTZ AUX)
    Blend: AUG-CC-PVTZ-JKFIT
	 Reference Energy          =    -400.0851142299179060 [Eh]
	 Singles Energy            =      -0.0000000000000000 [Eh]
	 Same-Spin Energy          =      -0.4021505012721103 [Eh]
	 Opposite-Spin Energy      =      -1.3069383533602050 [Eh]
	 Correlation Energy        =      -1.7090888546323153 [Eh]
	 Total Energy              =    -401.7942030845502472 [Eh]

	 ================> DF-SCS-MP2 Energies <==================
	-----------------------------------------------------------
	 SCS Same-Spin Scale       =       0.3333333333333333 [-]
	 SCS Opposite-Spin Scale   =       1.2000000000000000 [-]
	 SCS Same-Spin Energy      =      -0.1340501670907034 [Eh]
	 SCS Opposite-Spin Energy  =      -1.5683260240322461 [Eh]
	 SCS Correlation Energy    =      -1.7023761911229496 [Eh]
	 SCS Total Energy          =    -401.7874904210408431 [Eh]
	-----------------------------------------------------------

  Dipole Moment: [D]
     X:     3.1437      Y:     3.0191      Z:    -1.0156     Total:     4.4754

*** Psi4 exiting successfully. Buy a developer a beer!
