                               Psi4 1.4a3.dev225

  ==> Input File <==

--------------------------------------------------------------------------
#psi4
#
memory 32 gb

molecule  {
0 1
  O       -1.5707600    -1.5123310    -0.2332890
  O        0.1382410     1.6075510    -0.3059650
  N        0.6999210    -0.4896500     0.4239600
  C       -1.5452977    -0.0735434    -0.4390054
  C        2.0783650    -0.1398720     0.7271540
  C       -0.1470270     0.4197650    -0.1121660
  C       -2.5680410     0.6261290     0.4306590
  C        2.9727550    -0.1683320    -0.5071050
  H       -1.7217520     0.1422920    -1.4952760
  H        2.0695770     0.8628690     1.1612900
  H        2.4371510    -0.8367210     1.4904630
  H        0.3848370    -1.4513440     0.4597870
  H       -2.3944150     0.3774590     1.4809910
  H       -3.5869010     0.3276930     0.1608950
  H       -2.4702460     1.7050790     0.2962630
  H        2.9788310    -1.1637080    -0.9596270
  H        2.6039680     0.5505970    -1.2414500
  H        4.0012360     0.0983730    -0.2444710
  H       -2.4840080    -1.8129070    -0.3767550
units angstrom
no_reorient  #important for SAPT in psi4, default
symmetry c1  #important for SAPT in psi4, default
}

set PROPERTIES_ORIGIN ["COM"]
properties('MP2/aug-cc-pvtz', properties = ['dipole'])
--------------------------------------------------------------------------

    Molecular point group: c1
  Charge       = 0
  Multiplicity = 1
  Basis Set: AUG-CC-PVTZ
    Blend: AUG-CC-PVTZ
  Basis Set: (AUG-CC-PVTZ AUX)
    Blend: AUG-CC-PVTZ-JKFIT

    Orbital Energies [Eh]
    ---------------------

    Doubly Occupied:

       1A    -20.578999     2A    -20.510624     3A    -15.578589
       4A    -11.344052     5A    -11.301813     6A    -11.260106
       7A    -11.229923     8A    -11.212137     9A     -1.383127
      10A     -1.358117    11A     -1.225325    12A     -1.047705
      13A     -1.010644    14A     -0.902837    15A     -0.843678
      16A     -0.776032    17A     -0.716963    18A     -0.693556
      19A     -0.641091    20A     -0.633655    21A     -0.610048
      22A     -0.588624    23A     -0.582854    24A     -0.558884
      25A     -0.539979    26A     -0.523999    27A     -0.519676
      28A     -0.508698    29A     -0.490570    30A     -0.463662
      31A     -0.416782    32A     -0.384489

  @DF-RHF Final Energy:  -400.08728586470960

   => Energetics <=

    Nuclear Repulsion Energy =            399.8733067297060870
    One-Electron Energy =               -1339.0467076429090412
    Two-Electron Energy =                 539.0861150484934115
    Total Energy =                       -400.0872858647095427
  Basis Set: (AUG-CC-PVTZ AUX)
    Blend: AUG-CC-PVTZ-RI
    Molecular point group: c1

    Geometry (in Angstrom), charge = 0, multiplicity = 1:

       Center              X                  Y                   Z               Mass
    ------------   -----------------  -----------------  -----------------  -----------------
         O           -1.555467623237    -1.524514905889    -0.226829254125    15.994914619570
         O            0.153533376763     1.595367094111    -0.299505254125    15.994914619570
         N            0.715213376763    -0.501833905889     0.430419745875    14.003074004430
         C           -1.530005323237    -0.085727305889    -0.432545654125    12.000000000000
         C            2.093657376763    -0.152055905889     0.733613745875    12.000000000000
         C           -0.131734623237     0.407581094111    -0.105706254125    12.000000000000
         C           -2.552748623237     0.613945094111     0.437118745875    12.000000000000
         C            2.988047376763    -0.180515905889    -0.500645254125    12.000000000000
         H           -1.706459623237     0.130108094111    -1.488816254125     1.007825032230
         H            2.084869376763     0.850685094111     1.167749745875     1.007825032230
         H            2.452443376763    -0.848904905889     1.496922745875     1.007825032230
         H            0.400129376763    -1.463527905889     0.466246745875     1.007825032230
         H           -2.379122623237     0.365275094111     1.487450745875     1.007825032230
         H           -3.571608623237     0.315509094111     0.167354745875     1.007825032230
         H           -2.454953623237     1.692895094111     0.302722745875     1.007825032230
         H            2.994123376763    -1.175891905889    -0.953167254125     1.007825032230
         H            2.619260376763     0.538413094111    -1.234990254125     1.007825032230
         H            4.016528376763     0.086189094111    -0.238011254125     1.007825032230
         H           -2.468715623237    -1.825090905889    -0.370295254125     1.007825032230

  Basis Set: AUG-CC-PVTZ
    Blend: AUG-CC-PVTZ
  Basis Set: (AUG-CC-PVTZ AUX)
    Blend: AUG-CC-PVTZ-JKFIT
	 Reference Energy          =    -400.0872858647095995 [Eh]
	 Singles Energy            =      -0.0000000000000000 [Eh]
	 Same-Spin Energy          =      -0.4016376121916827 [Eh]
	 Opposite-Spin Energy      =      -1.3077473064640874 [Eh]
	 Correlation Energy        =      -1.7093849186557701 [Eh]
	 Total Energy              =    -401.7966707833653572 [Eh]

	 ================> DF-SCS-MP2 Energies <==================
	-----------------------------------------------------------
	 SCS Same-Spin Scale       =       0.3333333333333333 [-]
	 SCS Opposite-Spin Scale   =       1.2000000000000000 [-]
	 SCS Same-Spin Energy      =      -0.1338792040638942 [Eh]
	 SCS Opposite-Spin Energy  =      -1.5692967677569050 [Eh]
	 SCS Correlation Energy    =      -1.7031759718207993 [Eh]
	 SCS Total Energy          =    -401.7904618365304259 [Eh]
	-----------------------------------------------------------

  Dipole Moment: [D]
     X:    -1.1582      Y:    -2.6891      Z:     0.4754     Total:     2.9662

*** Psi4 exiting successfully. Buy a developer a beer!
