                               Psi4 1.3.2 release

  ==> Input File <==

--------------------------------------------------------------------------
#psi4
#
memory 32 gb

molecule  {
0 1
  O       -2.5211540    -0.5137840     0.0284240
  O       -0.0903380    -1.4616610     0.1717700
  N        0.9259230     0.4056680    -0.6455280
  C       -1.5147550     0.4028960    -0.3432490
  C        2.2711600    -0.1378510    -0.5222970
  C       -0.1624877    -0.3066239    -0.2561611
  C       -1.5969393     1.6258786     0.5617602
  C        2.8531060     0.0659690     0.8699860
  H       -1.6669500     0.7105100    -1.3901450
  H        2.2044940    -1.2028750    -0.7525030
  H        2.8934660     0.3357800    -1.2867330
  H        0.8101310     1.3771570    -0.9023240
  H       -1.3564630     1.3269670     1.5921410
  H       -2.5982940     2.0269070     0.5395510
  H       -0.8919110     2.4138320     0.2596650
  H        2.9042670     1.1289430     1.1200310
  H        2.2261210    -0.4398610     1.6074960
  H        3.8631580    -0.3501450     0.9292180
  H       -2.0326010    -1.3422410     0.2291570
units angstrom
no_reorient  #important for SAPT in psi4, default
symmetry c1  #important for SAPT in psi4, default
}

set PROPERTIES_ORIGIN ["COM"]
properties('MP2/aug-cc-pvtz', properties = ['dipole'])
--------------------------------------------------------------------------

    Molecular point group: c1
  Charge       = 0
  Multiplicity = 1
  Basis Set: AUG-CC-PVTZ
    Blend: AUG-CC-PVTZ
  Basis Set: (AUG-CC-PVTZ AUX)
    Blend: AUG-CC-PVTZ-JKFIT

    Orbital Energies [Eh]
    ---------------------

    Doubly Occupied:

       1A    -20.548454     2A    -20.535021     3A    -15.597609
       4A    -11.359689     5A    -11.298113     6A    -11.273206
       7A    -11.231576     8A    -11.223948     9A     -1.401163
      10A     -1.347617    11A     -1.244550    12A     -1.052151
      13A     -1.012305    14A     -0.903157    15A     -0.848992
      16A     -0.793300    17A     -0.744180    18A     -0.677068
      19A     -0.648701    20A     -0.643760    21A     -0.610732
      22A     -0.599366    23A     -0.575484    24A     -0.566098
      25A     -0.543212    26A     -0.532924    27A     -0.522220
      28A     -0.515822    29A     -0.502606    30A     -0.446026
      31A     -0.437064    32A     -0.403012

  @DF-RHF Final Energy:  -400.08780068216856

   => Energetics <=

    Nuclear Repulsion Energy =            400.3424662847721152
    One-Electron Energy =               -1339.5822856276276980
    Two-Electron Energy =                 539.1520186606869629
    Total Energy =                       -400.0878006821685631
  Basis Set: (AUG-CC-PVTZ AUX)
    Blend: AUG-CC-PVTZ-RI
    Molecular point group: c1

    Geometry (in Angstrom), charge = 0, multiplicity = 1:

       Center              X                  Y                   Z               Mass
    ------------   -----------------  -----------------  -----------------  -----------------
         O           -2.519457146047    -0.513088366403     0.029756802846    15.994914619570
         O           -0.088641146047    -1.460965366403     0.173102802846    15.994914619570
         N            0.927619853953     0.406363633597    -0.644195197154    14.003074004430
         C           -1.513058146047     0.403591633597    -0.341916197154    12.000000000000
         C            2.272856853953    -0.137155366403    -0.520964197154    12.000000000000
         C           -0.160790846047    -0.305928266403    -0.254828297154    12.000000000000
         C           -1.595242446047     1.626574233597     0.563093002846    12.000000000000
         C            2.854802853953     0.066664633597     0.871318802846    12.000000000000
         H           -1.665253146047     0.711205633597    -1.388812197154     1.007825032230
         H            2.206190853953    -1.202179366403    -0.751170197154     1.007825032230
         H            2.895162853953     0.336475633597    -1.285400197154     1.007825032230
         H            0.811827853953     1.377852633597    -0.900991197154     1.007825032230
         H           -1.354766146047     1.327662633597     1.593473802846     1.007825032230
         H           -2.596597146047     2.027602633597     0.540883802846     1.007825032230
         H           -0.890214146047     2.414527633597     0.260997802846     1.007825032230
         H            2.905963853953     1.129638633597     1.121363802846     1.007825032230
         H            2.227817853953    -0.439165366403     1.608828802846     1.007825032230
         H            3.864854853953    -0.349449366403     0.930550802846     1.007825032230
         H           -2.030904146047    -1.341545366403     0.230489802846     1.007825032230

  Basis Set: AUG-CC-PVTZ
    Blend: AUG-CC-PVTZ
  Basis Set: (AUG-CC-PVTZ AUX)
    Blend: AUG-CC-PVTZ-JKFIT
	 Reference Energy          =    -400.0878006821685631 [Eh]
	 Singles Energy            =      -0.0000000000000000 [Eh]
	 Same-Spin Energy          =      -0.4019973692544281 [Eh]
	 Opposite-Spin Energy      =      -1.3074568751487230 [Eh]
	 Correlation Energy        =      -1.7094542444031511 [Eh]
	 Total Energy              =    -401.7972549265717248 [Eh]

	 ================> DF-SCS-MP2 Energies <==================
	-----------------------------------------------------------
	 SCS Same-Spin Scale       =       0.3333333333333333 [-]
	 SCS Opposite-Spin Scale   =       1.2000000000000000 [-]
	 SCS Same-Spin Energy      =      -0.1339991230848094 [Eh]
	 SCS Opposite-Spin Energy  =      -1.5689482501784675 [Eh]
	 SCS Correlation Energy    =      -1.7029473732632769 [Eh]
	 SCS Total Energy          =    -401.7907480554318340 [Eh]
	-----------------------------------------------------------

  Dipole Moment: [D]
     X:     3.0610      Y:     3.1367      Z:    -1.0370     Total:     4.5038

*** Psi4 exiting successfully. Buy a developer a beer!
