                               Psi4 1.3.2 release

  ==> Input File <==

--------------------------------------------------------------------------
#psi4
#
memory 32 gb

molecule  {
0 1
  O       -2.5211540    -0.5137840     0.0284240
  O       -0.0903380    -1.4616610     0.1717700
  N        0.9259230     0.4056680    -0.6455280
  C       -1.5147550     0.4028960    -0.3432490
  C        2.2711600    -0.1378510    -0.5222970
  C       -0.1583790    -0.2975740    -0.2472510
  C       -1.5844930     1.6236140     0.5658530
  C        2.8531060     0.0659690     0.8699860
  H       -1.6669500     0.7105100    -1.3901450
  H        2.2044940    -1.2028750    -0.7525030
  H        2.8934660     0.3357800    -1.2867330
  H        0.8101310     1.3771570    -0.9023240
  H       -1.3564630     1.3269670     1.5921410
  H       -2.5982940     2.0269070     0.5395510
  H       -0.8919110     2.4138320     0.2596650
  H        2.9042670     1.1289430     1.1200310
  H        2.2261210    -0.4398610     1.6074960
  H        3.8631580    -0.3501450     0.9292180
  H       -1.9828758    -1.4265618     0.2495877
units angstrom
no_reorient  #important for SAPT in psi4, default
symmetry c1  #important for SAPT in psi4, default
}

set PROPERTIES_ORIGIN ["COM"]
properties('MP2/aug-cc-pvtz', properties = ['dipole'])
--------------------------------------------------------------------------

    Molecular point group: c1
  Charge       = 0
  Multiplicity = 1
  Basis Set: AUG-CC-PVTZ
    Blend: AUG-CC-PVTZ
  Basis Set: (AUG-CC-PVTZ AUX)
    Blend: AUG-CC-PVTZ-JKFIT

    Orbital Energies [Eh]
    ---------------------

    Doubly Occupied:

       1A    -20.550247     2A    -20.536222     3A    -15.599548
       4A    -11.359936     5A    -11.296179     6A    -11.274286
       7A    -11.230240     8A    -11.224857     9A     -1.397190
      10A     -1.329411    11A     -1.246946    12A     -1.050444
      13A     -1.010810    14A     -0.902555    15A     -0.847365
      16A     -0.794634    17A     -0.733726    18A     -0.675018
      19A     -0.643561    20A     -0.642785    21A     -0.610903
      22A     -0.599934    23A     -0.571950    24A     -0.560839
      25A     -0.542490    26A     -0.533227    27A     -0.521720
      28A     -0.506401    29A     -0.500213    30A     -0.441829
      31A     -0.437772    32A     -0.404434

  @DF-RHF Final Energy:  -400.07497347526328

   => Energetics <=

    Nuclear Repulsion Energy =            400.0063779252438962
    One-Electron Energy =               -1339.0073569833489273
    Two-Electron Energy =                 538.9260055828417535
    Total Energy =                       -400.0749734752632776
  Basis Set: (AUG-CC-PVTZ AUX)
    Blend: AUG-CC-PVTZ-RI
    Molecular point group: c1

    Geometry (in Angstrom), charge = 0, multiplicity = 1:

       Center              X                  Y                   Z               Mass
    ------------   -----------------  -----------------  -----------------  -----------------
         O           -2.521581987793    -0.513057985091     0.028248202642    15.994914619570
         O           -0.090765987793    -1.460934985091     0.171594202642    15.994914619570
         N            0.925495012207     0.406394014909    -0.645703797358    14.003074004430
         C           -1.515182987793     0.403622014909    -0.343424797358    12.000000000000
         C            2.270732012207    -0.137124985091    -0.522472797358    12.000000000000
         C           -0.158806987793    -0.296847985091    -0.247426797358    12.000000000000
         C           -1.584920987793     1.624340014909     0.565677202642    12.000000000000
         C            2.852678012207     0.066695014909     0.869810202642    12.000000000000
         H           -1.667377987793     0.711236014909    -1.390320797358     1.007825032230
         H            2.204066012207    -1.202148985091    -0.752678797358     1.007825032230
         H            2.893038012207     0.336506014909    -1.286908797358     1.007825032230
         H            0.809703012207     1.377883014909    -0.902499797358     1.007825032230
         H           -1.356890987793     1.327693014909     1.591965202642     1.007825032230
         H           -2.598721987793     2.027633014909     0.539375202642     1.007825032230
         H           -0.892338987793     2.414558014909     0.259489202642     1.007825032230
         H            2.903839012207     1.129669014909     1.119855202642     1.007825032230
         H            2.225693012207    -0.439134985091     1.607320202642     1.007825032230
         H            3.862730012207    -0.349418985091     0.929042202642     1.007825032230
         H           -1.983303787793    -1.425835785091     0.249411902642     1.007825032230

  Basis Set: AUG-CC-PVTZ
    Blend: AUG-CC-PVTZ
  Basis Set: (AUG-CC-PVTZ AUX)
    Blend: AUG-CC-PVTZ-JKFIT
	 Reference Energy          =    -400.0749734752632776 [Eh]
	 Singles Energy            =      -0.0000000000000000 [Eh]
	 Same-Spin Energy          =      -0.4037022135535490 [Eh]
	 Opposite-Spin Energy      =      -1.3108707611737160 [Eh]
	 Correlation Energy        =      -1.7145729747272651 [Eh]
	 Total Energy              =    -401.7895464499905529 [Eh]

	 ================> DF-SCS-MP2 Energies <==================
	-----------------------------------------------------------
	 SCS Same-Spin Scale       =       0.3333333333333333 [-]
	 SCS Opposite-Spin Scale   =       1.2000000000000000 [-]
	 SCS Same-Spin Energy      =      -0.1345674045178497 [Eh]
	 SCS Opposite-Spin Energy  =      -1.5730449134084592 [Eh]
	 SCS Correlation Energy    =      -1.7076123179263090 [Eh]
	 SCS Total Energy          =    -401.7825857931895825 [Eh]
	-----------------------------------------------------------

  Dipole Moment: [D]
     X:     3.2507      Y:     3.0687      Z:    -1.0255     Total:     4.5865

*** Psi4 exiting successfully. Buy a developer a beer!
