                               Psi4 1.3.2 release

  ==> Input File <==

--------------------------------------------------------------------------
#psi4
#
memory 32 gb

molecule  {
0 1
  O       -2.5211540    -0.5137840     0.0284240
  O       -0.0903380    -1.4616610     0.1717700
  N        0.9259230     0.4056680    -0.6455280
  C       -1.5147550     0.4028960    -0.3432490
  C        2.2711600    -0.1378510    -0.5222970
  C       -0.3187357    -0.4015760    -0.1883501
  C       -1.5844930     1.6236140     0.5658530
  C        2.8531060     0.0659690     0.8699860
  H       -1.6669500     0.7105100    -1.3901450
  H        2.2044940    -1.2028750    -0.7525030
  H        2.8934660     0.3357800    -1.2867330
  H        0.8101310     1.3771570    -0.9023240
  H       -1.3564630     1.3269670     1.5921410
  H       -2.5982940     2.0269070     0.5395510
  H       -0.8919110     2.4138320     0.2596650
  H        2.9042670     1.1289430     1.1200310
  H        2.2261210    -0.4398610     1.6074960
  H        3.8631580    -0.3501450     0.9292180
  H       -2.0326010    -1.3422410     0.2291570
units angstrom
no_reorient  #important for SAPT in psi4, default
symmetry c1  #important for SAPT in psi4, default
}

set PROPERTIES_ORIGIN ["COM"]
properties('MP2/aug-cc-pvtz', properties = ['dipole'])
--------------------------------------------------------------------------

    Molecular point group: c1
  Charge       = 0
  Multiplicity = 1
  Basis Set: AUG-CC-PVTZ
    Blend: AUG-CC-PVTZ
  Basis Set: (AUG-CC-PVTZ AUX)
    Blend: AUG-CC-PVTZ-JKFIT

    Orbital Energies [Eh]
    ---------------------

    Doubly Occupied:

       1A    -20.571108     2A    -20.559447     3A    -15.557994
       4A    -11.370256     5A    -11.305743     6A    -11.254866
       7A    -11.239161     8A    -11.211061     9A     -1.473864
      10A     -1.372709    11A     -1.185893    12A     -1.058135
      13A     -0.991504    14A     -0.915945    15A     -0.832790
      16A     -0.774531    17A     -0.749596    18A     -0.693538
      19A     -0.675573    20A     -0.631272    21A     -0.617917
      22A     -0.590801    23A     -0.580127    24A     -0.562513
      25A     -0.549160    26A     -0.543665    27A     -0.537632
      28A     -0.519575    29A     -0.493137    30A     -0.458199
      31A     -0.440258    32A     -0.373557

  @DF-RHF Final Energy:  -400.04583728731552

   => Energetics <=

    Nuclear Repulsion Energy =            400.7120768735850334
    One-Electron Energy =               -1340.1327754857597938
    Two-Electron Energy =                 539.3748613248592392
    Total Energy =                       -400.0458372873155213
  Basis Set: (AUG-CC-PVTZ AUX)
    Blend: AUG-CC-PVTZ-RI
    Molecular point group: c1

    Geometry (in Angstrom), charge = 0, multiplicity = 1:

       Center              X                  Y                   Z               Mass
    ------------   -----------------  -----------------  -----------------  -----------------
         O           -2.504718202980    -0.503124148967     0.022387028952    15.994914619570
         O           -0.073902202980    -1.451001148967     0.165733028952    15.994914619570
         N            0.942358797020     0.416327851033    -0.651564971048    14.003074004430
         C           -1.498319202980     0.413555851033    -0.349285971048    12.000000000000
         C            2.287595797020    -0.127191148967    -0.528333971048    12.000000000000
         C           -0.302299902980    -0.390916148967    -0.194387071048    12.000000000000
         C           -1.568057202980     1.634273851033     0.559816028952    12.000000000000
         C            2.869541797020     0.076628851033     0.863949028952    12.000000000000
         H           -1.650514202980     0.721169851033    -1.396181971048     1.007825032230
         H            2.220929797020    -1.192215148967    -0.758539971048     1.007825032230
         H            2.909901797020     0.346439851033    -1.292769971048     1.007825032230
         H            0.826566797020     1.387816851033    -0.908360971048     1.007825032230
         H           -1.340027202980     1.337626851033     1.586104028952     1.007825032230
         H           -2.581858202980     2.037566851033     0.533514028952     1.007825032230
         H           -0.875475202980     2.424491851033     0.253628028952     1.007825032230
         H            2.920702797020     1.139602851033     1.113994028952     1.007825032230
         H            2.242556797020    -0.429201148967     1.601459028952     1.007825032230
         H            3.879593797020    -0.339485148967     0.923181028952     1.007825032230
         H           -2.016165202980    -1.331581148967     0.223120028952     1.007825032230

  Basis Set: AUG-CC-PVTZ
    Blend: AUG-CC-PVTZ
  Basis Set: (AUG-CC-PVTZ AUX)
    Blend: AUG-CC-PVTZ-JKFIT
	 Reference Energy          =    -400.0458372873155213 [Eh]
	 Singles Energy            =      -0.0000000000000000 [Eh]
	 Same-Spin Energy          =      -0.4016596377335878 [Eh]
	 Opposite-Spin Energy      =      -1.3075169573961993 [Eh]
	 Correlation Energy        =      -1.7091765951297870 [Eh]
	 Total Energy              =    -401.7550138824453256 [Eh]

	 ================> DF-SCS-MP2 Energies <==================
	-----------------------------------------------------------
	 SCS Same-Spin Scale       =       0.3333333333333333 [-]
	 SCS Opposite-Spin Scale   =       1.2000000000000000 [-]
	 SCS Same-Spin Energy      =      -0.1338865459111959 [Eh]
	 SCS Opposite-Spin Energy  =      -1.5690203488754391 [Eh]
	 SCS Correlation Energy    =      -1.7029068947866350 [Eh]
	 SCS Total Energy          =    -401.7487441821021434 [Eh]
	-----------------------------------------------------------

  Dipole Moment: [D]
     X:     1.5466      Y:     2.3611      Z:    -0.5991     Total:     2.8854

*** Psi4 exiting successfully. Buy a developer a beer!
