                               Psi4 1.4a3.dev225

  ==> Input File <==

--------------------------------------------------------------------------
#psi4
#
memory 32 gb

molecule  {
0 1
  O       -1.5707600    -1.5123310    -0.2332890
  O        0.1382410     1.6075510    -0.3059650
  N        0.6999210    -0.4896500     0.4239600
  C       -1.5456480    -0.0933390    -0.4361750
  C        2.0783650    -0.1398720     0.7271540
  C       -0.1585591     0.3717480    -0.1043316
  C       -2.5680410     0.6261290     0.4306590
  C        2.9727550    -0.1683320    -0.5071050
  H       -1.7217520     0.1422920    -1.4952760
  H        2.0695770     0.8628690     1.1612900
  H        2.4371510    -0.8367210     1.4904630
  H        0.3848370    -1.4513440     0.4597870
  H       -2.3944150     0.3774590     1.4809910
  H       -3.5869010     0.3276930     0.1608950
  H       -2.4702460     1.7050790     0.2962630
  H        2.9788310    -1.1637080    -0.9596270
  H        2.6039680     0.5505970    -1.2414500
  H        4.0012360     0.0983730    -0.2444710
  H       -2.4840080    -1.8129070    -0.3767550
units angstrom
no_reorient  #important for SAPT in psi4, default
symmetry c1  #important for SAPT in psi4, default
}

set PROPERTIES_ORIGIN ["COM"]
properties('MP2/aug-cc-pvtz', properties = ['dipole'])
--------------------------------------------------------------------------

    Molecular point group: c1
  Charge       = 0
  Multiplicity = 1
  Basis Set: AUG-CC-PVTZ
    Blend: AUG-CC-PVTZ
  Basis Set: (AUG-CC-PVTZ AUX)
    Blend: AUG-CC-PVTZ-JKFIT

    Orbital Energies [Eh]
    ---------------------

    Doubly Occupied:

       1A    -20.582760     2A    -20.499675     3A    -15.586118
       4A    -11.343523     5A    -11.303360     6A    -11.263596
       7A    -11.230392     8A    -11.213778     9A     -1.389205
      10A     -1.335744    11A     -1.227313    12A     -1.049115
      13A     -1.014659    14A     -0.907570    15A     -0.848793
      16A     -0.779800    17A     -0.721882    18A     -0.695759
      19A     -0.644733    20A     -0.636748    21A     -0.608196
      22A     -0.586791    23A     -0.573994    24A     -0.560390
      25A     -0.537734    26A     -0.525836    27A     -0.518060
      28A     -0.502913    29A     -0.491041    30A     -0.461160
      31A     -0.411919    32A     -0.382150

  @DF-RHF Final Energy:  -400.08073923213379

   => Energetics <=

    Nuclear Repulsion Energy =            399.9705660091053687
    One-Electron Energy =               -1339.2331976208638480
    Two-Electron Energy =                 539.1818923796246281
    Total Energy =                       -400.0807392321338511
  Basis Set: (AUG-CC-PVTZ AUX)
    Blend: AUG-CC-PVTZ-RI
    Molecular point group: c1

    Geometry (in Angstrom), charge = 0, multiplicity = 1:

       Center              X                  Y                   Z               Mass
    ------------   -----------------  -----------------  -----------------  -----------------
         O           -1.554249737655    -1.517564459192    -0.227922341899    15.994914619570
         O            0.154751262345     1.602317540808    -0.300598341899    15.994914619570
         N            0.716431262345    -0.494883459192     0.429326658101    14.003074004430
         C           -1.529137737655    -0.098572459192    -0.430808341899    12.000000000000
         C            2.094875262345    -0.145105459192     0.732520658101    12.000000000000
         C           -0.142048837655     0.366514540808    -0.098964941899    12.000000000000
         C           -2.551530737655     0.620895540808     0.436025658101    12.000000000000
         C            2.989265262345    -0.173565459192    -0.501738341899    12.000000000000
         H           -1.705241737655     0.137058540808    -1.489909341899     1.007825032230
         H            2.086087262345     0.857635540808     1.166656658101     1.007825032230
         H            2.453661262345    -0.841954459192     1.495829658101     1.007825032230
         H            0.401347262345    -1.456577459192     0.465153658101     1.007825032230
         H           -2.377904737655     0.372225540808     1.486357658101     1.007825032230
         H           -3.570390737655     0.322459540808     0.166261658101     1.007825032230
         H           -2.453735737655     1.699845540808     0.301629658101     1.007825032230
         H            2.995341262345    -1.168941459192    -0.954260341899     1.007825032230
         H            2.620478262345     0.545363540808    -1.236083341899     1.007825032230
         H            4.017746262345     0.093139540808    -0.239104341899     1.007825032230
         H           -2.467497737655    -1.818140459192    -0.371388341899     1.007825032230

  Basis Set: AUG-CC-PVTZ
    Blend: AUG-CC-PVTZ
  Basis Set: (AUG-CC-PVTZ AUX)
    Blend: AUG-CC-PVTZ-JKFIT
	 Reference Energy          =    -400.0807392321337943 [Eh]
	 Singles Energy            =      -0.0000000000000000 [Eh]
	 Same-Spin Energy          =      -0.4025227618220482 [Eh]
	 Opposite-Spin Energy      =      -1.3092931683362454 [Eh]
	 Correlation Energy        =      -1.7118159301582936 [Eh]
	 Total Energy              =    -401.7925551622921034 [Eh]

	 ================> DF-SCS-MP2 Energies <==================
	-----------------------------------------------------------
	 SCS Same-Spin Scale       =       0.3333333333333333 [-]
	 SCS Opposite-Spin Scale   =       1.2000000000000000 [-]
	 SCS Same-Spin Energy      =      -0.1341742539406827 [Eh]
	 SCS Opposite-Spin Energy  =      -1.5711518020034945 [Eh]
	 SCS Correlation Energy    =      -1.7053260559441772 [Eh]
	 SCS Total Energy          =    -401.7860652880779639 [Eh]
	-----------------------------------------------------------

  Dipole Moment: [D]
     X:    -1.1141      Y:    -3.0718      Z:     0.5667     Total:     3.3164

*** Psi4 exiting successfully. Buy a developer a beer!
