                               Psi4 1.3.2 release

  ==> Input File <==

--------------------------------------------------------------------------
#psi4
#
memory 32 gb

molecule  {
0 1
  O       -2.5211540    -0.5137840     0.0284240
  O       -0.0903380    -1.4616610     0.1717700
  N        0.9259230     0.4056680    -0.6455280
  C       -1.5147550     0.4028960    -0.3432490
  C        2.2711600    -0.1378510    -0.5222970
  C       -0.1583790    -0.2975740    -0.2472510
  C       -1.5936471     1.7838509     0.6851858
  C        2.8531060     0.0659690     0.8699860
  H       -1.6669500     0.7105100    -1.3901450
  H        2.2044940    -1.2028750    -0.7525030
  H        2.8934660     0.3357800    -1.2867330
  H        0.8101310     1.3771570    -0.9023240
  H       -1.3564630     1.3269670     1.5921410
  H       -2.5982940     2.0269070     0.5395510
  H       -0.8919110     2.4138320     0.2596650
  H        2.9042670     1.1289430     1.1200310
  H        2.2261210    -0.4398610     1.6074960
  H        3.8631580    -0.3501450     0.9292180
  H       -2.0326010    -1.3422410     0.2291570
units angstrom
no_reorient  #important for SAPT in psi4, default
symmetry c1  #important for SAPT in psi4, default
}

set PROPERTIES_ORIGIN ["COM"]
properties('MP2/aug-cc-pvtz', properties = ['dipole'])
--------------------------------------------------------------------------

    Molecular point group: c1
  Charge       = 0
  Multiplicity = 1
  Basis Set: AUG-CC-PVTZ
    Blend: AUG-CC-PVTZ
  Basis Set: (AUG-CC-PVTZ AUX)
    Blend: AUG-CC-PVTZ-JKFIT

    Orbital Energies [Eh]
    ---------------------

    Doubly Occupied:

       1A    -20.549840     2A    -20.532272     3A    -15.598038
       4A    -11.358491     5A    -11.304163     6A    -11.273415
       7A    -11.230878     8A    -11.224190     9A     -1.396827
      10A     -1.344952    11A     -1.244935    12A     -1.042535
      13A     -1.000759    14A     -0.910444    15A     -0.851928
      16A     -0.793969    17A     -0.739451    18A     -0.673936
      19A     -0.647759    20A     -0.637352    21A     -0.611869
      22A     -0.602817    23A     -0.590067    24A     -0.569142
      25A     -0.551663    26A     -0.540184    27A     -0.518934
      28A     -0.512403    29A     -0.501934    30A     -0.438630
      31A     -0.417360    32A     -0.399487

  @DF-RHF Final Energy:  -400.06127948975842

   => Energetics <=

    Nuclear Repulsion Energy =            397.2440359314204557
    One-Electron Energy =               -1333.3893828882080470
    Two-Electron Energy =                 536.0840674670291719
    Total Energy =                       -400.0612794897583626
  Basis Set: (AUG-CC-PVTZ AUX)
    Blend: AUG-CC-PVTZ-RI
    Molecular point group: c1

    Geometry (in Angstrom), charge = 0, multiplicity = 1:

       Center              X                  Y                   Z               Mass
    ------------   -----------------  -----------------  -----------------  -----------------
         O           -2.520215700666    -0.530207292653     0.016193066477    15.994914619570
         O           -0.089399700666    -1.478084292653     0.159539066477    15.994914619570
         N            0.926861299334     0.389244707347    -0.657758933523    14.003074004430
         C           -1.513816700666     0.386472707347    -0.355479933523    12.000000000000
         C            2.272098299334    -0.154274292653    -0.534527933523    12.000000000000
         C           -0.157440700666    -0.313997292653    -0.259481933523    12.000000000000
         C           -1.592708800666     1.767427607347     0.672954866477    12.000000000000
         C            2.854044299334     0.049545707347     0.857755066477    12.000000000000
         H           -1.666011700666     0.694086707347    -1.402375933523     1.007825032230
         H            2.205432299334    -1.219298292653    -0.764733933523     1.007825032230
         H            2.894404299334     0.319356707347    -1.298963933523     1.007825032230
         H            0.811069299334     1.360733707347    -0.914554933523     1.007825032230
         H           -1.355524700666     1.310543707347     1.579910066477     1.007825032230
         H           -2.597355700666     2.010483707347     0.527320066477     1.007825032230
         H           -0.890972700666     2.397408707347     0.247434066477     1.007825032230
         H            2.905205299334     1.112519707347     1.107800066477     1.007825032230
         H            2.227059299334    -0.456284292653     1.595265066477     1.007825032230
         H            3.864096299334    -0.366568292653     0.916987066477     1.007825032230
         H           -2.031662700666    -1.358664292653     0.216926066477     1.007825032230

  Basis Set: AUG-CC-PVTZ
    Blend: AUG-CC-PVTZ
  Basis Set: (AUG-CC-PVTZ AUX)
    Blend: AUG-CC-PVTZ-JKFIT
	 Reference Energy          =    -400.0612794897584195 [Eh]
	 Singles Energy            =      -0.0000000000000000 [Eh]
	 Same-Spin Energy          =      -0.4022232472812979 [Eh]
	 Opposite-Spin Energy      =      -1.3090472966883437 [Eh]
	 Correlation Energy        =      -1.7112705439696416 [Eh]
	 Total Energy              =    -401.7725500337280664 [Eh]

	 ================> DF-SCS-MP2 Energies <==================
	-----------------------------------------------------------
	 SCS Same-Spin Scale       =       0.3333333333333333 [-]
	 SCS Opposite-Spin Scale   =       1.2000000000000000 [-]
	 SCS Same-Spin Energy      =      -0.1340744157604326 [Eh]
	 SCS Opposite-Spin Energy  =      -1.5708567560260125 [Eh]
	 SCS Correlation Energy    =      -1.7049311717864450 [Eh]
	 SCS Total Energy          =    -401.7662106615448465 [Eh]
	-----------------------------------------------------------

  Dipole Moment: [D]
     X:     3.0525      Y:     3.0644      Z:    -1.1142     Total:     4.4665

*** Psi4 exiting successfully. Buy a developer a beer!
