                               Psi4 1.4a3.dev225

  ==> Input File <==

--------------------------------------------------------------------------
#psi4
#
memory 32 gb

molecule  {
0 1
  O       -1.5707600    -1.5123310    -0.2332890
  O        0.1382410     1.6075510    -0.3059650
  N        0.6999210    -0.4896500     0.4239600
  C       -1.5459983    -0.1131346    -0.4333446
  C        2.0783650    -0.1398720     0.7271540
  C       -0.1470270     0.4197650    -0.1121660
  C       -2.5680410     0.6261290     0.4306590
  C        2.9727550    -0.1683320    -0.5071050
  H       -1.7217520     0.1422920    -1.4952760
  H        2.0695770     0.8628690     1.1612900
  H        2.4371510    -0.8367210     1.4904630
  H        0.3848370    -1.4513440     0.4597870
  H       -2.3944150     0.3774590     1.4809910
  H       -3.5869010     0.3276930     0.1608950
  H       -2.4702460     1.7050790     0.2962630
  H        2.9788310    -1.1637080    -0.9596270
  H        2.6039680     0.5505970    -1.2414500
  H        4.0012360     0.0983730    -0.2444710
  H       -2.4840080    -1.8129070    -0.3767550
units angstrom
no_reorient  #important for SAPT in psi4, default
symmetry c1  #important for SAPT in psi4, default
}

set PROPERTIES_ORIGIN ["COM"]
properties('MP2/aug-cc-pvtz', properties = ['dipole'])
--------------------------------------------------------------------------

    Molecular point group: c1
  Charge       = 0
  Multiplicity = 1
  Basis Set: AUG-CC-PVTZ
    Blend: AUG-CC-PVTZ
  Basis Set: (AUG-CC-PVTZ AUX)
    Blend: AUG-CC-PVTZ-JKFIT

    Orbital Energies [Eh]
    ---------------------

    Doubly Occupied:

       1A    -20.584103     2A    -20.510286     3A    -15.577874
       4A    -11.343503     5A    -11.301664     6A    -11.259611
       7A    -11.229020     8A    -11.211884     9A     -1.395206
      10A     -1.360784    11A     -1.225062    12A     -1.043280
      13A     -1.009092    14A     -0.901684    15A     -0.842944
      16A     -0.776097    17A     -0.718553    18A     -0.700521
      19A     -0.644272    20A     -0.633652    21A     -0.610188
      22A     -0.588368    23A     -0.582698    24A     -0.559200
      25A     -0.539520    26A     -0.526257    27A     -0.519957
      28A     -0.508738    29A     -0.490544    30A     -0.458329
      31A     -0.414245    32A     -0.384197

  @DF-RHF Final Energy:  -400.08784867114537

   => Energetics <=

    Nuclear Repulsion Energy =            400.0219087189029779
    One-Electron Energy =               -1339.3168470011212321
    Two-Electron Energy =                 539.2070896110728881
    Total Energy =                       -400.0878486711453661
  Basis Set: (AUG-CC-PVTZ AUX)
    Blend: AUG-CC-PVTZ-RI
    Molecular point group: c1

    Geometry (in Angstrom), charge = 0, multiplicity = 1:

       Center              X                  Y                   Z               Mass
    ------------   -----------------  -----------------  -----------------  -----------------
         O           -1.555395815300    -1.520457009196    -0.227409457342    15.994914619570
         O            0.153605184700     1.599424990804    -0.300085457342    15.994914619570
         N            0.715285184700    -0.497776009196     0.429839542658    14.003074004430
         C           -1.530634115300    -0.121260609196    -0.427465057342    12.000000000000
         C            2.093729184700    -0.147998009196     0.733033542658    12.000000000000
         C           -0.131662815300     0.411638990804    -0.106286457342    12.000000000000
         C           -2.552676815300     0.618002990804     0.436538542658    12.000000000000
         C            2.988119184700    -0.176458009196    -0.501225457342    12.000000000000
         H           -1.706387815300     0.134165990804    -1.489396457342     1.007825032230
         H            2.084941184700     0.854742990804     1.167169542658     1.007825032230
         H            2.452515184700    -0.844847009196     1.496342542658     1.007825032230
         H            0.400201184700    -1.459470009196     0.465666542658     1.007825032230
         H           -2.379050815300     0.369332990804     1.486870542658     1.007825032230
         H           -3.571536815300     0.319566990804     0.166774542658     1.007825032230
         H           -2.454881815300     1.696952990804     0.302142542658     1.007825032230
         H            2.994195184700    -1.171834009196    -0.953747457342     1.007825032230
         H            2.619332184700     0.542470990804    -1.235570457342     1.007825032230
         H            4.016600184700     0.090246990804    -0.238591457342     1.007825032230
         H           -2.468643815300    -1.821033009196    -0.370875457342     1.007825032230

  Basis Set: AUG-CC-PVTZ
    Blend: AUG-CC-PVTZ
  Basis Set: (AUG-CC-PVTZ AUX)
    Blend: AUG-CC-PVTZ-JKFIT
	 Reference Energy          =    -400.0878486711453661 [Eh]
	 Singles Energy            =      -0.0000000000000000 [Eh]
	 Same-Spin Energy          =      -0.4015705746655513 [Eh]
	 Opposite-Spin Energy      =      -1.3071847101148024 [Eh]
	 Correlation Energy        =      -1.7087552847803538 [Eh]
	 Total Energy              =    -401.7966039559257183 [Eh]

	 ================> DF-SCS-MP2 Energies <==================
	-----------------------------------------------------------
	 SCS Same-Spin Scale       =       0.3333333333333333 [-]
	 SCS Opposite-Spin Scale   =       1.2000000000000000 [-]
	 SCS Same-Spin Energy      =      -0.1338568582218504 [Eh]
	 SCS Opposite-Spin Energy  =      -1.5686216521377629 [Eh]
	 SCS Correlation Energy    =      -1.7024785103596134 [Eh]
	 SCS Total Energy          =    -401.7903271815050061 [Eh]
	-----------------------------------------------------------

  Dipole Moment: [D]
     X:    -1.1686      Y:    -2.8329      Z:     0.4788     Total:     3.1017

*** Psi4 exiting successfully. Buy a developer a beer!
