                               Psi4 1.3.2 release

  ==> Input File <==

--------------------------------------------------------------------------
#psi4
#
memory 32 gb

molecule  {
0 1
  O       -2.5211540    -0.5137840     0.0284240
  O       -0.0903380    -1.4616610     0.1717700
  N        0.9259230     0.4056680    -0.6455280
  C       -1.5021628     0.3732550    -0.3009263
  C        2.2711600    -0.1378510    -0.5222970
  C       -0.1583790    -0.2975740    -0.2472510
  C       -1.5844930     1.6236140     0.5658530
  C        2.8531060     0.0659690     0.8699860
  H       -1.6669500     0.7105100    -1.3901450
  H        2.2044940    -1.2028750    -0.7525030
  H        2.8934660     0.3357800    -1.2867330
  H        0.8101310     1.3771570    -0.9023240
  H       -1.3519364     1.2910883     1.5800563
  H       -2.5982940     2.0269070     0.5395510
  H       -0.8919110     2.4138320     0.2596650
  H        2.9042670     1.1289430     1.1200310
  H        2.2261210    -0.4398610     1.6074960
  H        3.8631580    -0.3501450     0.9292180
  H       -2.0326010    -1.3422410     0.2291570
units angstrom
no_reorient  #important for SAPT in psi4, default
symmetry c1  #important for SAPT in psi4, default
}

set PROPERTIES_ORIGIN ["COM"]
properties('MP2/aug-cc-pvtz', properties = ['dipole'])
--------------------------------------------------------------------------

    Molecular point group: c1
  Charge       = 0
  Multiplicity = 1
  Basis Set: AUG-CC-PVTZ
    Blend: AUG-CC-PVTZ
  Basis Set: (AUG-CC-PVTZ AUX)
    Blend: AUG-CC-PVTZ-JKFIT

    Orbital Energies [Eh]
    ---------------------

    Doubly Occupied:

       1A    -20.552177     2A    -20.533205     3A    -15.598903
       4A    -11.358748     5A    -11.299377     6A    -11.274107
       7A    -11.231492     8A    -11.224514     9A     -1.402828
      10A     -1.354628    11A     -1.246179    12A     -1.053938
      13A     -1.012900    14A     -0.905124    15A     -0.849006
      16A     -0.793589    17A     -0.748372    18A     -0.677191
      19A     -0.647667    20A     -0.644230    21A     -0.612228
      22A     -0.600041    23A     -0.576554    24A     -0.563562
      25A     -0.547112    26A     -0.534191    27A     -0.522362
      28A     -0.517698    29A     -0.503379    30A     -0.442676
      31A     -0.434758    32A     -0.402955

  @DF-RHF Final Energy:  -400.08416589673021

   => Energetics <=

    Nuclear Repulsion Energy =            401.1676521939084523
    One-Electron Energy =               -1341.1722543834493990
    Two-Electron Energy =                 539.9204362928106775
    Total Energy =                       -400.0841658967302692
  Basis Set: (AUG-CC-PVTZ AUX)
    Blend: AUG-CC-PVTZ-RI
    Molecular point group: c1

    Geometry (in Angstrom), charge = 0, multiplicity = 1:

       Center              X                  Y                   Z               Mass
    ------------   -----------------  -----------------  -----------------  -----------------
         O           -2.522483551172    -0.510436926702     0.024190236203    15.994914619570
         O           -0.091667551172    -1.458313926702     0.167536236203    15.994914619570
         N            0.924593448828     0.409015073298    -0.649761763797    14.003074004430
         C           -1.503492351172     0.376602073298    -0.305160063797    12.000000000000
         C            2.269830448828    -0.134503926702    -0.526530763797    12.000000000000
         C           -0.159708551172    -0.294226926702    -0.251484763797    12.000000000000
         C           -1.585822551172     1.626961073298     0.561619236203    12.000000000000
         C            2.851776448828     0.069316073298     0.865752236203    12.000000000000
         H           -1.668279551172     0.713857073298    -1.394378763797     1.007825032230
         H            2.203164448828    -1.199527926702    -0.756736763797     1.007825032230
         H            2.892136448828     0.339127073298    -1.290966763797     1.007825032230
         H            0.808801448828     1.380504073298    -0.906557763797     1.007825032230
         H           -1.353265951172     1.294435373298     1.575822536203     1.007825032230
         H           -2.599623551172     2.030254073298     0.535317236203     1.007825032230
         H           -0.893240551172     2.417179073298     0.255431236203     1.007825032230
         H            2.902937448828     1.132290073298     1.115797236203     1.007825032230
         H            2.224791448828    -0.436513926702     1.603262236203     1.007825032230
         H            3.861828448828    -0.346797926702     0.924984236203     1.007825032230
         H           -2.033930551172    -1.338893926702     0.224923236203     1.007825032230

  Basis Set: AUG-CC-PVTZ
    Blend: AUG-CC-PVTZ
  Basis Set: (AUG-CC-PVTZ AUX)
    Blend: AUG-CC-PVTZ-JKFIT
	 Reference Energy          =    -400.0841658967302124 [Eh]
	 Singles Energy            =      -0.0000000000000000 [Eh]
	 Same-Spin Energy          =      -0.4024017323623668 [Eh]
	 Opposite-Spin Energy      =      -1.3077993949727860 [Eh]
	 Correlation Energy        =      -1.7102011273351527 [Eh]
	 Total Energy              =    -401.7943670240653660 [Eh]

	 ================> DF-SCS-MP2 Energies <==================
	-----------------------------------------------------------
	 SCS Same-Spin Scale       =       0.3333333333333333 [-]
	 SCS Opposite-Spin Scale   =       1.2000000000000000 [-]
	 SCS Same-Spin Energy      =      -0.1341339107874556 [Eh]
	 SCS Opposite-Spin Energy  =      -1.5693592739673432 [Eh]
	 SCS Correlation Energy    =      -1.7034931847547987 [Eh]
	 SCS Total Energy          =    -401.7876590814850033 [Eh]
	-----------------------------------------------------------

  Dipole Moment: [D]
     X:     3.0450      Y:     3.1159      Z:    -0.9788     Total:     4.4653

*** Psi4 exiting successfully. Buy a developer a beer!
