                               Psi4 1.4a3.dev225

  ==> Input File <==

--------------------------------------------------------------------------
#psi4
#
memory 32 gb

molecule  {
0 1
  O       -1.5707600    -1.5123310    -0.2332890
  O        0.1382410     1.6075510    -0.3059650
  N        0.6999210    -0.4896500     0.4239600
  C       -1.5456480    -0.0933390    -0.4361750
  C        2.0783650    -0.1398720     0.7271540
  C       -0.1470270     0.4197650    -0.1121660
  C       -2.5680410     0.6261290     0.4306590
  C        2.9727550    -0.1683320    -0.5071050
  H       -1.7217520     0.1422920    -1.4952760
  H        2.0695770     0.8628690     1.1612900
  H        2.4371510    -0.8367210     1.4904630
  H        0.3848370    -1.4513440     0.4597870
  H       -2.3944150     0.3774590     1.4809910
  H       -3.5869010     0.3276930     0.1608950
  H       -2.4702460     1.7050790     0.2962630
  H        2.9788310    -1.1637080    -0.9596270
  H        2.6039680     0.5505970    -1.2414500
  H        4.0012360     0.0983730    -0.2444710
  H       -2.4652185    -1.8067229    -0.3738033
units angstrom
no_reorient  #important for SAPT in psi4, default
symmetry c1  #important for SAPT in psi4, default
}

set PROPERTIES_ORIGIN ["COM"]
properties('MP2/aug-cc-pvtz', properties = ['dipole'])
--------------------------------------------------------------------------

    Molecular point group: c1
  Charge       = 0
  Multiplicity = 1
  Basis Set: AUG-CC-PVTZ
    Blend: AUG-CC-PVTZ
  Basis Set: (AUG-CC-PVTZ AUX)
    Blend: AUG-CC-PVTZ-JKFIT

    Orbital Energies [Eh]
    ---------------------

    Doubly Occupied:

       1A    -20.579857     2A    -20.510509     3A    -15.578288
       4A    -11.343842     5A    -11.301919     6A    -11.259906
       7A    -11.229614     8A    -11.212054     9A     -1.392072
      10A     -1.360934    11A     -1.225339    12A     -1.046467
      13A     -1.010012    14A     -0.902912    15A     -0.843659
      16A     -0.776471    17A     -0.719148    18A     -0.699420
      19A     -0.643284    20A     -0.634007    21A     -0.610228
      22A     -0.588807    23A     -0.582861    24A     -0.559393
      25A     -0.539780    26A     -0.525793    27A     -0.520115
      28A     -0.508910    29A     -0.490695    30A     -0.461629
      31A     -0.415768    32A     -0.384402

  @DF-RHF Final Energy:  -400.08884283289797

   => Energetics <=

    Nuclear Repulsion Energy =            400.0761055303864850
    One-Electron Energy =               -1339.4137095592739115
    Two-Electron Energy =                 539.2487611959894593
    Total Energy =                       -400.0888428328979671
  Basis Set: (AUG-CC-PVTZ AUX)
    Blend: AUG-CC-PVTZ-RI
    Molecular point group: c1

    Geometry (in Angstrom), charge = 0, multiplicity = 1:

       Center              X                  Y                   Z               Mass
    ------------   -----------------  -----------------  -----------------  -----------------
         O           -1.555593460759    -1.522539190760    -0.227144764199    15.994914619570
         O            0.153407539241     1.597342809240    -0.299820764199    15.994914619570
         N            0.715087539241    -0.499858190760     0.430104235801    14.003074004430
         C           -1.530481460759    -0.103547190760    -0.430030764199    12.000000000000
         C            2.093531539241    -0.150080190760     0.733298235801    12.000000000000
         C           -0.131860460759     0.409556809240    -0.106021764199    12.000000000000
         C           -2.552874460759     0.615920809240     0.436803235801    12.000000000000
         C            2.987921539241    -0.178540190760    -0.500960764199    12.000000000000
         H           -1.706585460759     0.132083809240    -1.489131764199     1.007825032230
         H            2.084743539241     0.852660809240     1.167434235801     1.007825032230
         H            2.452317539241    -0.846929190760     1.496607235801     1.007825032230
         H            0.400003539241    -1.461552190760     0.465931235801     1.007825032230
         H           -2.379248460759     0.367250809240     1.487135235801     1.007825032230
         H           -3.571734460759     0.317484809240     0.167039235801     1.007825032230
         H           -2.455079460759     1.694870809240     0.302407235801     1.007825032230
         H            2.993997539241    -1.173916190760    -0.953482764199     1.007825032230
         H            2.619134539241     0.540388809240    -1.235305764199     1.007825032230
         H            4.016402539241     0.088164809240    -0.238326764199     1.007825032230
         H           -2.450051960759    -1.816931090760    -0.367659064199     1.007825032230

  Basis Set: AUG-CC-PVTZ
    Blend: AUG-CC-PVTZ
  Basis Set: (AUG-CC-PVTZ AUX)
    Blend: AUG-CC-PVTZ-JKFIT
	 Reference Energy          =    -400.0888428328979671 [Eh]
	 Singles Energy            =      -0.0000000000000000 [Eh]
	 Same-Spin Energy          =      -0.4013483272940311 [Eh]
	 Opposite-Spin Energy      =      -1.3068272016057370 [Eh]
	 Correlation Energy        =      -1.7081755288997682 [Eh]
	 Total Energy              =    -401.7970183617977113 [Eh]

	 ================> DF-SCS-MP2 Energies <==================
	-----------------------------------------------------------
	 SCS Same-Spin Scale       =       0.3333333333333333 [-]
	 SCS Opposite-Spin Scale   =       1.2000000000000000 [-]
	 SCS Same-Spin Energy      =      -0.1337827757646770 [Eh]
	 SCS Opposite-Spin Energy  =      -1.5681926419268843 [Eh]
	 SCS Correlation Energy    =      -1.7019754176915614 [Eh]
	 SCS Total Energy          =    -401.7908182505895525 [Eh]
	-----------------------------------------------------------

  Dipole Moment: [D]
     X:    -1.1503      Y:    -2.7516      Z:     0.4790     Total:     3.0206

*** Psi4 exiting successfully. Buy a developer a beer!
