                               Psi4 1.3.2 release

  ==> Input File <==

--------------------------------------------------------------------------
#psi4
#
memory 32 gb

molecule  {
0 1
  O       -2.5211540    -0.5137840     0.0284240
  O       -0.0903380    -1.4616610     0.1717700
  N        0.9259230     0.4056680    -0.6455280
  C       -1.5147550     0.4028960    -0.3432490
  C        2.2806737    -0.1151168    -0.5285015
  C       -0.1583790    -0.2975740    -0.2472510
  C       -1.5844930     1.6236140     0.5658530
  C        2.8531060     0.0659690     0.8699860
  H       -1.6669500     0.7105100    -1.3901450
  H        2.2044940    -1.2028750    -0.7525030
  H        2.8934660     0.3357800    -1.2867330
  H        0.8276837     1.3788925    -0.9030662
  H       -1.3564630     1.3269670     1.5921410
  H       -2.5982940     2.0269070     0.5395510
  H       -0.8919110     2.4138320     0.2596650
  H        2.9042670     1.1289430     1.1200310
  H        2.2261210    -0.4398610     1.6074960
  H        3.8631580    -0.3501450     0.9292180
  H       -2.0326010    -1.3422410     0.2291570
units angstrom
no_reorient  #important for SAPT in psi4, default
symmetry c1  #important for SAPT in psi4, default
}

set PROPERTIES_ORIGIN ["COM"]
properties('MP2/aug-cc-pvtz', properties = ['dipole'])
--------------------------------------------------------------------------

    Molecular point group: c1
  Charge       = 0
  Multiplicity = 1
  Basis Set: AUG-CC-PVTZ
    Blend: AUG-CC-PVTZ
  Basis Set: (AUG-CC-PVTZ AUX)
    Blend: AUG-CC-PVTZ-JKFIT

    Orbital Energies [Eh]
    ---------------------

    Doubly Occupied:

       1A    -20.548510     2A    -20.533679     3A    -15.598740
       4A    -11.359953     5A    -11.298270     6A    -11.273439
       7A    -11.231231     8A    -11.224404     9A     -1.398405
      10A     -1.346709    11A     -1.245885    12A     -1.052918
      13A     -1.012853    14A     -0.903552    15A     -0.849485
      16A     -0.794174    17A     -0.744661    18A     -0.676712
      19A     -0.650482    20A     -0.642094    21A     -0.611278
      22A     -0.597935    23A     -0.575896    24A     -0.563164
      25A     -0.543780    26A     -0.534746    27A     -0.524002
      28A     -0.514539    29A     -0.499221    30A     -0.446032
      31A     -0.436408    32A     -0.403452

  @DF-RHF Final Energy:  -400.08678128873163

   => Energetics <=

    Nuclear Repulsion Energy =            400.3057800049791126
    One-Electron Energy =               -1339.5119020884542351
    Two-Electron Energy =                 539.1193407947434935
    Total Energy =                       -400.0867812887315722
  Basis Set: (AUG-CC-PVTZ AUX)
    Blend: AUG-CC-PVTZ-RI
    Molecular point group: c1

    Geometry (in Angstrom), charge = 0, multiplicity = 1:

       Center              X                  Y                   Z               Mass
    ------------   -----------------  -----------------  -----------------  -----------------
         O           -2.522280150266    -0.516128904377     0.029066390329    15.994914619570
         O           -0.091464150266    -1.464005904377     0.172412390329    15.994914619570
         N            0.924796849734     0.403323095623    -0.644885609671    14.003074004430
         C           -1.515881150266     0.400551095623    -0.342606609671    12.000000000000
         C            2.279547549734    -0.117461704377    -0.527859109671    12.000000000000
         C           -0.159505150266    -0.299918904377    -0.246608609671    12.000000000000
         C           -1.585619150266     1.621269095623     0.566495390329    12.000000000000
         C            2.851979849734     0.063624095623     0.870628390329    12.000000000000
         H           -1.668076150266     0.708165095623    -1.389502609671     1.007825032230
         H            2.203367849734    -1.205219904377    -0.751860609671     1.007825032230
         H            2.892339849734     0.333435095623    -1.286090609671     1.007825032230
         H            0.826557549734     1.376547595623    -0.902423809671     1.007825032230
         H           -1.357589150266     1.324622095623     1.592783390329     1.007825032230
         H           -2.599420150266     2.024562095623     0.540193390329     1.007825032230
         H           -0.893037150266     2.411487095623     0.260307390329     1.007825032230
         H            2.903140849734     1.126598095623     1.120673390329     1.007825032230
         H            2.224994849734    -0.442205904377     1.608138390329     1.007825032230
         H            3.862031849734    -0.352489904377     0.929860390329     1.007825032230
         H           -2.033727150266    -1.344585904377     0.229799390329     1.007825032230

  Basis Set: AUG-CC-PVTZ
    Blend: AUG-CC-PVTZ
  Basis Set: (AUG-CC-PVTZ AUX)
    Blend: AUG-CC-PVTZ-JKFIT
	 Reference Energy          =    -400.0867812887316290 [Eh]
	 Singles Energy            =      -0.0000000000000000 [Eh]
	 Same-Spin Energy          =      -0.4021656898753334 [Eh]
	 Opposite-Spin Energy      =      -1.3077510789915192 [Eh]
	 Correlation Energy        =      -1.7099167688668526 [Eh]
	 Total Energy              =    -401.7966980575984621 [Eh]

	 ================> DF-SCS-MP2 Energies <==================
	-----------------------------------------------------------
	 SCS Same-Spin Scale       =       0.3333333333333333 [-]
	 SCS Opposite-Spin Scale   =       1.2000000000000000 [-]
	 SCS Same-Spin Energy      =      -0.1340552299584445 [Eh]
	 SCS Opposite-Spin Energy  =      -1.5693012947898231 [Eh]
	 SCS Correlation Energy    =      -1.7033565247482676 [Eh]
	 SCS Total Energy          =    -401.7901378134798733 [Eh]
	-----------------------------------------------------------

  Dipole Moment: [D]
     X:     3.1110      Y:     3.1887      Z:    -1.0502     Total:     4.5771

*** Psi4 exiting successfully. Buy a developer a beer!
