                               Psi4 1.3.2 release

  ==> Input File <==

--------------------------------------------------------------------------
#psi4
#
memory 32 gb

molecule  {
0 1
  O       -2.5211540    -0.5137840     0.0284240
  O       -0.0903380    -1.4616610     0.1717700
  N        0.9259230     0.4056680    -0.6455280
  C       -1.5337978     0.4501344    -0.4046406
  C        2.2711600    -0.1378510    -0.5222970
  C       -0.1583790    -0.2975740    -0.2472510
  C       -1.5844930     1.6236140     0.5658530
  C        2.8531060     0.0659690     0.8699860
  H       -1.6669500     0.7105100    -1.3901450
  H        2.2044940    -1.2028750    -0.7525030
  H        2.8934660     0.3357800    -1.2867330
  H        0.8101310     1.3771570    -0.9023240
  H       -1.3637720     1.3814489     1.6079194
  H       -2.5982940     2.0269070     0.5395510
  H       -0.8919110     2.4138320     0.2596650
  H        2.9042670     1.1289430     1.1200310
  H        2.2261210    -0.4398610     1.6074960
  H        3.8631580    -0.3501450     0.9292180
  H       -2.0326010    -1.3422410     0.2291570
units angstrom
no_reorient  #important for SAPT in psi4, default
symmetry c1  #important for SAPT in psi4, default
}

set PROPERTIES_ORIGIN ["COM"]
properties('MP2/aug-cc-pvtz', properties = ['dipole'])
--------------------------------------------------------------------------

    Molecular point group: c1
  Charge       = 0
  Multiplicity = 1
  Basis Set: AUG-CC-PVTZ
    Blend: AUG-CC-PVTZ
  Basis Set: (AUG-CC-PVTZ AUX)
    Blend: AUG-CC-PVTZ-JKFIT

    Orbital Energies [Eh]
    ---------------------

    Doubly Occupied:

       1A    -20.543512     2A    -20.533951     3A    -15.598310
       4A    -11.360320     5A    -11.298235     6A    -11.273142
       7A    -11.232323     8A    -11.224101     9A     -1.393468
      10A     -1.333661    11A     -1.245507    12A     -1.052255
      13A     -1.013559    14A     -0.900909    15A     -0.852380
      16A     -0.795917    17A     -0.737946    18A     -0.677963
      19A     -0.651490    20A     -0.639972    21A     -0.609727
      22A     -0.598700    23A     -0.577253    24A     -0.562698
      25A     -0.539905    26A     -0.536969    27A     -0.520603
      28A     -0.509110    29A     -0.499932    30A     -0.451926
      31A     -0.430999    32A     -0.403675

  @DF-RHF Final Energy:  -400.07927866978957

   => Energetics <=

    Nuclear Repulsion Energy =            399.3114100385852225
    One-Electron Energy =               -1337.5805394817807610
    Two-Electron Energy =                 538.1898507734059649
    Total Energy =                       -400.0792786697895735
  Basis Set: (AUG-CC-PVTZ AUX)
    Blend: AUG-CC-PVTZ-RI
    Molecular point group: c1

    Geometry (in Angstrom), charge = 0, multiplicity = 1:

       Center              X                  Y                   Z               Mass
    ------------   -----------------  -----------------  -----------------  -----------------
         O           -2.519139242752    -0.519094505430     0.034580576851    15.994914619570
         O           -0.088323242752    -1.466971505430     0.177926576851    15.994914619570
         N            0.927937757248     0.400357494570    -0.639371423149    14.003074004430
         C           -1.531783042752     0.444823894570    -0.398484023149    12.000000000000
         C            2.273174757248    -0.143161505430    -0.516140423149    12.000000000000
         C           -0.156364242752    -0.302884505430    -0.241094423149    12.000000000000
         C           -1.582478242752     1.618303494570     0.572009576851    12.000000000000
         C            2.855120757248     0.060658494570     0.876142576851    12.000000000000
         H           -1.664935242752     0.705199494570    -1.383988423149     1.007825032230
         H            2.206508757248    -1.208185505430    -0.746346423149     1.007825032230
         H            2.895480757248     0.330469494570    -1.280576423149     1.007825032230
         H            0.812145757248     1.371846494570    -0.896167423149     1.007825032230
         H           -1.361757242752     1.376138394570     1.614075976851     1.007825032230
         H           -2.596279242752     2.021596494570     0.545707576851     1.007825032230
         H           -0.889896242752     2.408521494570     0.265821576851     1.007825032230
         H            2.906281757248     1.123632494570     1.126187576851     1.007825032230
         H            2.228135757248    -0.445171505430     1.613652576851     1.007825032230
         H            3.865172757248    -0.355455505430     0.935374576851     1.007825032230
         H           -2.030586242752    -1.347551505430     0.235313576851     1.007825032230

  Basis Set: AUG-CC-PVTZ
    Blend: AUG-CC-PVTZ
  Basis Set: (AUG-CC-PVTZ AUX)
    Blend: AUG-CC-PVTZ-JKFIT
	 Reference Energy          =    -400.0792786697895735 [Eh]
	 Singles Energy            =      -0.0000000000000000 [Eh]
	 Same-Spin Energy          =      -0.4020696884908662 [Eh]
	 Opposite-Spin Energy      =      -1.3083348631340472 [Eh]
	 Correlation Energy        =      -1.7104045516249133 [Eh]
	 Total Energy              =    -401.7896832214144638 [Eh]

	 ================> DF-SCS-MP2 Energies <==================
	-----------------------------------------------------------
	 SCS Same-Spin Scale       =       0.3333333333333333 [-]
	 SCS Opposite-Spin Scale   =       1.2000000000000000 [-]
	 SCS Same-Spin Energy      =      -0.1340232294969554 [Eh]
	 SCS Opposite-Spin Energy  =      -1.5700018357608567 [Eh]
	 SCS Correlation Energy    =      -1.7040250652578122 [Eh]
	 SCS Total Energy          =    -401.7833037350474115 [Eh]
	-----------------------------------------------------------

  Dipole Moment: [D]
     X:     3.1704      Y:     3.2623      Z:    -1.1194     Total:     4.6848

*** Psi4 exiting successfully. Buy a developer a beer!
