                               Psi4 1.3.2 release

  ==> Input File <==

--------------------------------------------------------------------------
#psi4
#
memory 32 gb

molecule  {
0 1
  O       -2.5296851    -0.5051132     0.0265051
  O       -0.0903380    -1.4616610     0.1717700
  N        0.9259230     0.4056680    -0.6455280
  C       -1.5147550     0.4028960    -0.3432490
  C        2.2711600    -0.1378510    -0.5222970
  C       -0.1523641    -0.2863471    -0.2512448
  C       -1.5844930     1.6236140     0.5658530
  C        2.8531060     0.0659690     0.8699860
  H       -1.6669500     0.7105100    -1.3901450
  H        2.2044940    -1.2028750    -0.7525030
  H        2.8934660     0.3357800    -1.2867330
  H        0.8101310     1.3771570    -0.9023240
  H       -1.3564630     1.3269670     1.5921410
  H       -2.5982940     2.0269070     0.5395510
  H       -0.8919110     2.4138320     0.2596650
  H        2.9042670     1.1289430     1.1200310
  H        2.2261210    -0.4398610     1.6074960
  H        3.8631580    -0.3501450     0.9292180
  H       -2.0326010    -1.3422410     0.2291570
units angstrom
no_reorient  #important for SAPT in psi4, default
symmetry c1  #important for SAPT in psi4, default
}

set PROPERTIES_ORIGIN ["COM"]
properties('MP2/aug-cc-pvtz', properties = ['dipole'])
--------------------------------------------------------------------------

    Molecular point group: c1
  Charge       = 0
  Multiplicity = 1
  Basis Set: AUG-CC-PVTZ
    Blend: AUG-CC-PVTZ
  Basis Set: (AUG-CC-PVTZ AUX)
    Blend: AUG-CC-PVTZ-JKFIT

    Orbital Energies [Eh]
    ---------------------

    Doubly Occupied:

       1A    -20.549270     2A    -20.530928     3A    -15.601504
       4A    -11.359244     5A    -11.298020     6A    -11.275190
       7A    -11.231066     8A    -11.225282     9A     -1.392697
      10A     -1.343514    11A     -1.248981    12A     -1.053716
      13A     -1.013815    14A     -0.903809    15A     -0.850202
      16A     -0.796967    17A     -0.742342    18A     -0.676637
      19A     -0.649627    20A     -0.639797    21A     -0.611874
      22A     -0.599187    23A     -0.574677    24A     -0.562998
      25A     -0.544487    26A     -0.534840    27A     -0.519619
      28A     -0.513327    29A     -0.502927    30A     -0.445042
      31A     -0.435155    32A     -0.404467

  @DF-RHF Final Energy:  -400.08574881404468

   => Energetics <=

    Nuclear Repulsion Energy =            400.2769639448286512
    One-Electron Energy =               -1339.4630067068835615
    Two-Electron Energy =                 539.1002939480102896
    Total Energy =                       -400.0857488140446776
  Basis Set: (AUG-CC-PVTZ AUX)
    Blend: AUG-CC-PVTZ-RI
    Molecular point group: c1

    Geometry (in Angstrom), charge = 0, multiplicity = 1:

       Center              X                  Y                   Z               Mass
    ------------   -----------------  -----------------  -----------------  -----------------
         O           -2.529136057427    -0.507448299246     0.027176669213    15.994914619570
         O           -0.089788957427    -1.463996099246     0.172441569213    15.994914619570
         N            0.926472042573     0.403332900754    -0.644856430787    14.003074004430
         C           -1.514205957427     0.400560900754    -0.342577430787    12.000000000000
         C            2.271709042573    -0.140186099246    -0.521625430787    12.000000000000
         C           -0.151815057427    -0.288682199246    -0.250573230787    12.000000000000
         C           -1.583943957427     1.621278900754     0.566524569213    12.000000000000
         C            2.853655042573     0.063633900754     0.870657569213    12.000000000000
         H           -1.666400957427     0.708174900754    -1.389473430787     1.007825032230
         H            2.205043042573    -1.205210099246    -0.751831430787     1.007825032230
         H            2.894015042573     0.333444900754    -1.286061430787     1.007825032230
         H            0.810680042573     1.374821900754    -0.901652430787     1.007825032230
         H           -1.355913957427     1.324631900754     1.592812569213     1.007825032230
         H           -2.597744957427     2.024571900754     0.540222569213     1.007825032230
         H           -0.891361957427     2.411496900754     0.260336569213     1.007825032230
         H            2.904816042573     1.126607900754     1.120702569213     1.007825032230
         H            2.226670042573    -0.442196099246     1.608167569213     1.007825032230
         H            3.863707042573    -0.352480099246     0.929889569213     1.007825032230
         H           -2.032051957427    -1.344576099246     0.229828569213     1.007825032230

  Basis Set: AUG-CC-PVTZ
    Blend: AUG-CC-PVTZ
  Basis Set: (AUG-CC-PVTZ AUX)
    Blend: AUG-CC-PVTZ-JKFIT
	 Reference Energy          =    -400.0857488140446776 [Eh]
	 Singles Energy            =      -0.0000000000000000 [Eh]
	 Same-Spin Energy          =      -0.4025252239908981 [Eh]
	 Opposite-Spin Energy      =      -1.3084524488349625 [Eh]
	 Correlation Energy        =      -1.7109776728258606 [Eh]
	 Total Energy              =    -401.7967264868705115 [Eh]

	 ================> DF-SCS-MP2 Energies <==================
	-----------------------------------------------------------
	 SCS Same-Spin Scale       =       0.3333333333333333 [-]
	 SCS Opposite-Spin Scale   =       1.2000000000000000 [-]
	 SCS Same-Spin Energy      =      -0.1341750746636327 [Eh]
	 SCS Opposite-Spin Energy  =      -1.5701429386019550 [Eh]
	 SCS Correlation Energy    =      -1.7043180132655877 [Eh]
	 SCS Total Energy          =    -401.7900668273102838 [Eh]
	-----------------------------------------------------------

  Dipole Moment: [D]
     X:     3.1935      Y:     3.2290      Z:    -1.0717     Total:     4.6662

*** Psi4 exiting successfully. Buy a developer a beer!
