                               Psi4 1.4a3.dev225

  ==> Input File <==

--------------------------------------------------------------------------
#psi4
#
memory 32 gb

molecule  {
0 1
  O       -1.5707600    -1.5123310    -0.2332890
  O        0.1382410     1.6075510    -0.3059650
  N        0.6999210    -0.4896500     0.4239600
  C       -1.5456480    -0.0933390    -0.4361750
  C        2.0783650    -0.1398720     0.7271540
  C       -0.1424141     0.4389718    -0.1152998
  C       -2.5680410     0.6261290     0.4306590
  C        2.9727550    -0.1683320    -0.5071050
  H       -1.7217520     0.1422920    -1.4952760
  H        2.0695770     0.8628690     1.1612900
  H        2.4371510    -0.8367210     1.4904630
  H        0.3848370    -1.4513440     0.4597870
  H       -2.3944150     0.3774590     1.4809910
  H       -3.5869010     0.3276930     0.1608950
  H       -2.4702460     1.7050790     0.2962630
  H        2.9788310    -1.1637080    -0.9596270
  H        2.6039680     0.5505970    -1.2414500
  H        4.0012360     0.0983730    -0.2444710
  H       -2.4840080    -1.8129070    -0.3767550
units angstrom
no_reorient  #important for SAPT in psi4, default
symmetry c1  #important for SAPT in psi4, default
}

set PROPERTIES_ORIGIN ["COM"]
properties('MP2/aug-cc-pvtz', properties = ['dipole'])
--------------------------------------------------------------------------

    Molecular point group: c1
  Charge       = 0
  Multiplicity = 1
  Basis Set: AUG-CC-PVTZ
    Blend: AUG-CC-PVTZ
  Basis Set: (AUG-CC-PVTZ AUX)
    Blend: AUG-CC-PVTZ-JKFIT

    Orbital Energies [Eh]
    ---------------------

    Doubly Occupied:

       1A    -20.581030     2A    -20.514776     3A    -15.575047
       4A    -11.343693     5A    -11.300878     6A    -11.258372
       7A    -11.229073     8A    -11.211321     9A     -1.390800
      10A     -1.369445    11A     -1.222881    12A     -1.043968
      13A     -1.007989    14A     -0.900016    15A     -0.841144
      16A     -0.774535    17A     -0.715769    18A     -0.697922
      19A     -0.641787    20A     -0.633855    21A     -0.611760
      22A     -0.590706    23A     -0.583670    24A     -0.558258
      25A     -0.540178    26A     -0.525754    27A     -0.520926
      28A     -0.511473    29A     -0.490337    30A     -0.461191
      31A     -0.415712    32A     -0.384447

  @DF-RHF Final Energy:  -400.08867032245860

   => Energetics <=

    Nuclear Repulsion Energy =            399.9526222796207549
    One-Electron Energy =               -1339.1851624382252339
    Two-Electron Energy =                 539.1438698361458819
    Total Energy =                       -400.0886703224585972
  Basis Set: (AUG-CC-PVTZ AUX)
    Blend: AUG-CC-PVTZ-RI
    Molecular point group: c1

    Geometry (in Angstrom), charge = 0, multiplicity = 1:

       Center              X                  Y                   Z               Mass
    ------------   -----------------  -----------------  -----------------  -----------------
         O           -1.555904518064    -1.524454556882    -0.226798157168    15.994914619570
         O            0.153096481936     1.595427443118    -0.299474157168    15.994914619570
         N            0.714776481936    -0.501773556882     0.430450842832    14.003074004430
         C           -1.530792518064    -0.105462556882    -0.429684157168    12.000000000000
         C            2.093220481936    -0.151995556882     0.733644842832    12.000000000000
         C           -0.127558618064     0.426848243118    -0.108808957168    12.000000000000
         C           -2.553185518064     0.614005443118     0.437149842832    12.000000000000
         C            2.987610481936    -0.180455556882    -0.500614157168    12.000000000000
         H           -1.706896518064     0.130168443118    -1.488785157168     1.007825032230
         H            2.084432481936     0.850745443118     1.167780842832     1.007825032230
         H            2.452006481936    -0.848844556882     1.496953842832     1.007825032230
         H            0.399692481936    -1.463467556882     0.466277842832     1.007825032230
         H           -2.379559518064     0.365335443118     1.487481842832     1.007825032230
         H           -3.572045518064     0.315569443118     0.167385842832     1.007825032230
         H           -2.455390518064     1.692955443118     0.302753842832     1.007825032230
         H            2.993686481936    -1.175831556882    -0.953136157168     1.007825032230
         H            2.618823481936     0.538473443118    -1.234959157168     1.007825032230
         H            4.016091481936     0.086249443118    -0.237980157168     1.007825032230
         H           -2.469152518064    -1.825030556882    -0.370264157168     1.007825032230

  Basis Set: AUG-CC-PVTZ
    Blend: AUG-CC-PVTZ
  Basis Set: (AUG-CC-PVTZ AUX)
    Blend: AUG-CC-PVTZ-JKFIT
	 Reference Energy          =    -400.0886703224585972 [Eh]
	 Singles Energy            =      -0.0000000000000000 [Eh]
	 Same-Spin Energy          =      -0.4012186108738186 [Eh]
	 Opposite-Spin Energy      =      -1.3067161897969959 [Eh]
	 Correlation Energy        =      -1.7079348006708144 [Eh]
	 Total Energy              =    -401.7966051231294387 [Eh]

	 ================> DF-SCS-MP2 Energies <==================
	-----------------------------------------------------------
	 SCS Same-Spin Scale       =       0.3333333333333333 [-]
	 SCS Opposite-Spin Scale   =       1.2000000000000000 [-]
	 SCS Same-Spin Energy      =      -0.1337395369579395 [Eh]
	 SCS Opposite-Spin Energy  =      -1.5680594277563951 [Eh]
	 SCS Correlation Energy    =      -1.7017989647143346 [Eh]
	 SCS Total Energy          =    -401.7904692871729253 [Eh]
	-----------------------------------------------------------

  Dipole Moment: [D]
     X:    -1.1825      Y:    -2.6299      Z:     0.4393     Total:     2.9168

*** Psi4 exiting successfully. Buy a developer a beer!
