                               Psi4 1.3.2 release

  ==> Input File <==

--------------------------------------------------------------------------
#psi4
#
memory 32 gb

molecule  {
0 1
  O       -2.5283490    -0.4983424     0.0462103
  O       -0.0903380    -1.4616610     0.1717700
  N        0.9259230     0.4056680    -0.6455280
  C       -1.5147550     0.4028960    -0.3432490
  C        2.2711600    -0.1378510    -0.5222970
  C       -0.1583790    -0.2975740    -0.2472510
  C       -1.6050037     1.6125890     0.5786947
  C        2.8531060     0.0659690     0.8699860
  H       -1.6669500     0.7105100    -1.3901450
  H        2.2044940    -1.2028750    -0.7525030
  H        2.8934660     0.3357800    -1.2867330
  H        0.8101310     1.3771570    -0.9023240
  H       -1.3564630     1.3269670     1.5921410
  H       -2.5982940     2.0269070     0.5395510
  H       -0.8919110     2.4138320     0.2596650
  H        2.9042670     1.1289430     1.1200310
  H        2.2261210    -0.4398610     1.6074960
  H        3.8631580    -0.3501450     0.9292180
  H       -2.0326010    -1.3422410     0.2291570
units angstrom
no_reorient  #important for SAPT in psi4, default
symmetry c1  #important for SAPT in psi4, default
}

set PROPERTIES_ORIGIN ["COM"]
properties('MP2/aug-cc-pvtz', properties = ['dipole'])
--------------------------------------------------------------------------

    Molecular point group: c1
  Charge       = 0
  Multiplicity = 1
  Basis Set: AUG-CC-PVTZ
    Blend: AUG-CC-PVTZ
  Basis Set: (AUG-CC-PVTZ AUX)
    Blend: AUG-CC-PVTZ-JKFIT

    Orbital Energies [Eh]
    ---------------------

    Doubly Occupied:

       1A    -20.549103     2A    -20.534226     3A    -15.599047
       4A    -11.359929     5A    -11.297791     6A    -11.273962
       7A    -11.230790     8A    -11.224498     9A     -1.398274
      10A     -1.345365    11A     -1.246243    12A     -1.052007
      13A     -1.012368    14A     -0.903456    15A     -0.849130
      16A     -0.794553    17A     -0.742577    18A     -0.676866
      19A     -0.649044    20A     -0.642629    21A     -0.611149
      22A     -0.599090    23A     -0.574213    24A     -0.565386
      25A     -0.542965    26A     -0.532444    27A     -0.521504
      28A     -0.515144    29A     -0.502838    30A     -0.445420
      31A     -0.437046    32A     -0.403807

  @DF-RHF Final Energy:  -400.08572210076676

   => Energetics <=

    Nuclear Repulsion Energy =            400.3061521610591171
    One-Electron Energy =               -1339.5180166988725432
    Two-Electron Energy =                 539.1261424370467239
    Total Energy =                       -400.0857221007667022
  Basis Set: (AUG-CC-PVTZ AUX)
    Blend: AUG-CC-PVTZ-RI
    Molecular point group: c1

    Geometry (in Angstrom), charge = 0, multiplicity = 1:

       Center              X                  Y                   Z               Mass
    ------------   -----------------  -----------------  -----------------  -----------------
         O           -2.525263751541    -0.499321795311     0.042464261562    15.994914619570
         O           -0.087252751541    -1.462640395311     0.168023961562    15.994914619570
         N            0.929008248459     0.404688604689    -0.649274038438    14.003074004430
         C           -1.511669751541     0.401916604689    -0.346995038438    12.000000000000
         C            2.274245248459    -0.138830395311    -0.526043038438    12.000000000000
         C           -0.155293751541    -0.298553395311    -0.250997038438    12.000000000000
         C           -1.601918451541     1.611609604689     0.574948661562    12.000000000000
         C            2.856191248459     0.064989604689     0.866239961562    12.000000000000
         H           -1.663864751541     0.709530604689    -1.393891038438     1.007825032230
         H            2.207579248459    -1.203854395311    -0.756249038438     1.007825032230
         H            2.896551248459     0.334800604689    -1.290479038438     1.007825032230
         H            0.813216248459     1.376177604689    -0.906070038438     1.007825032230
         H           -1.353377751541     1.325987604689     1.588394961562     1.007825032230
         H           -2.595208751541     2.025927604689     0.535804961562     1.007825032230
         H           -0.888825751541     2.412852604689     0.255918961562     1.007825032230
         H            2.907352248459     1.127963604689     1.116284961562     1.007825032230
         H            2.229206248459    -0.440840395311     1.603749961562     1.007825032230
         H            3.866243248459    -0.351124395311     0.925471961562     1.007825032230
         H           -2.029515751541    -1.343220395311     0.225410961562     1.007825032230

  Basis Set: AUG-CC-PVTZ
    Blend: AUG-CC-PVTZ
  Basis Set: (AUG-CC-PVTZ AUX)
    Blend: AUG-CC-PVTZ-JKFIT
	 Reference Energy          =    -400.0857221007667590 [Eh]
	 Singles Energy            =      -0.0000000000000000 [Eh]
	 Same-Spin Energy          =      -0.4023390877942756 [Eh]
	 Opposite-Spin Energy      =      -1.3081673649329661 [Eh]
	 Correlation Energy        =      -1.7105064527272418 [Eh]
	 Total Energy              =    -401.7962285534940179 [Eh]

	 ================> DF-SCS-MP2 Energies <==================
	-----------------------------------------------------------
	 SCS Same-Spin Scale       =       0.3333333333333333 [-]
	 SCS Opposite-Spin Scale   =       1.2000000000000000 [-]
	 SCS Same-Spin Energy      =      -0.1341130292647585 [Eh]
	 SCS Opposite-Spin Energy  =      -1.5698008379195594 [Eh]
	 SCS Correlation Energy    =      -1.7039138671843179 [Eh]
	 SCS Total Energy          =    -401.7896359679510851 [Eh]
	-----------------------------------------------------------

  Dipole Moment: [D]
     X:     3.1119      Y:     3.1241      Z:    -1.0772     Total:     4.5392

*** Psi4 exiting successfully. Buy a developer a beer!
