                               Psi4 1.3.2 release

  ==> Input File <==

--------------------------------------------------------------------------
#psi4
#
memory 32 gb

molecule  {
0 1
  O       -2.5211540    -0.5137840     0.0284240
  O       -0.0903380    -1.4616610     0.1717700
  N        0.9173949     0.3825534    -0.6517601
  C       -1.5147550     0.4028960    -0.3432490
  C        2.2711600    -0.1378510    -0.5222970
  C       -0.1583790    -0.2975740    -0.2472510
  C       -1.5844930     1.6236140     0.5658530
  C        2.8531060     0.0659690     0.8699860
  H       -1.6669500     0.7105100    -1.3901450
  H        2.1857606    -1.2009123    -0.7553696
  H        2.8934660     0.3357800    -1.2867330
  H        0.8101310     1.3771570    -0.9023240
  H       -1.3564630     1.3269670     1.5921410
  H       -2.5982940     2.0269070     0.5395510
  H       -0.8919110     2.4138320     0.2596650
  H        2.9042670     1.1289430     1.1200310
  H        2.2261210    -0.4398610     1.6074960
  H        3.8631580    -0.3501450     0.9292180
  H       -2.0326010    -1.3422410     0.2291570
units angstrom
no_reorient  #important for SAPT in psi4, default
symmetry c1  #important for SAPT in psi4, default
}

set PROPERTIES_ORIGIN ["COM"]
properties('MP2/aug-cc-pvtz', properties = ['dipole'])
--------------------------------------------------------------------------

    Molecular point group: c1
  Charge       = 0
  Multiplicity = 1
  Basis Set: AUG-CC-PVTZ
    Blend: AUG-CC-PVTZ
  Basis Set: (AUG-CC-PVTZ AUX)
    Blend: AUG-CC-PVTZ-JKFIT

    Orbital Energies [Eh]
    ---------------------

    Doubly Occupied:

       1A    -20.548003     2A    -20.530172     3A    -15.600560
       4A    -11.356355     5A    -11.297846     6A    -11.274441
       7A    -11.231244     8A    -11.225496     9A     -1.398282
      10A     -1.346461    11A     -1.247132    12A     -1.053677
      13A     -1.013596    14A     -0.904175    15A     -0.849962
      16A     -0.791816    17A     -0.744142    18A     -0.676887
      19A     -0.648858    20A     -0.641380    21A     -0.612983
      22A     -0.597922    23A     -0.576014    24A     -0.563547
      25A     -0.544393    26A     -0.535142    27A     -0.521120
      28A     -0.512992    29A     -0.503607    30A     -0.445587
      31A     -0.435175    32A     -0.403682

  @DF-RHF Final Energy:  -400.08684768150192

   => Energetics <=

    Nuclear Repulsion Energy =            400.7457165619817374
    One-Electron Energy =               -1340.3998317656860308
    Two-Electron Energy =                 539.5672675222024282
    Total Energy =                       -400.0868476815019221
  Basis Set: (AUG-CC-PVTZ AUX)
    Blend: AUG-CC-PVTZ-RI
    Molecular point group: c1

    Geometry (in Angstrom), charge = 0, multiplicity = 1:

       Center              X                  Y                   Z               Mass
    ------------   -----------------  -----------------  -----------------  -----------------
         O           -2.519972698846    -0.511036129537     0.029194129580    15.994914619570
         O           -0.089156698846    -1.458913129537     0.172540129580    15.994914619570
         N            0.918576201154     0.385301270463    -0.650989970420    14.003074004430
         C           -1.513573698846     0.405643870463    -0.342478870420    12.000000000000
         C            2.272341301154    -0.135103129537    -0.521526870420    12.000000000000
         C           -0.157197698846    -0.294826129537    -0.246480870420    12.000000000000
         C           -1.583311698846     1.626361870463     0.566623129580    12.000000000000
         C            2.854287301154     0.068716870463     0.870756129580    12.000000000000
         H           -1.665768698846     0.713257870463    -1.389374870420     1.007825032230
         H            2.186941901154    -1.198164429537    -0.754599470420     1.007825032230
         H            2.894647301154     0.338527870463    -1.285962870420     1.007825032230
         H            0.811312301154     1.379904870463    -0.901553870420     1.007825032230
         H           -1.355281698846     1.329714870463     1.592911129580     1.007825032230
         H           -2.597112698846     2.029654870463     0.540321129580     1.007825032230
         H           -0.890729698846     2.416579870463     0.260435129580     1.007825032230
         H            2.905448301154     1.131690870463     1.120801129580     1.007825032230
         H            2.227302301154    -0.437113129537     1.608266129580     1.007825032230
         H            3.864339301154    -0.347397129537     0.929988129580     1.007825032230
         H           -2.031419698846    -1.339493129537     0.229927129580     1.007825032230

  Basis Set: AUG-CC-PVTZ
    Blend: AUG-CC-PVTZ
  Basis Set: (AUG-CC-PVTZ AUX)
    Blend: AUG-CC-PVTZ-JKFIT
	 Reference Energy          =    -400.0868476815019221 [Eh]
	 Singles Energy            =      -0.0000000000000000 [Eh]
	 Same-Spin Energy          =      -0.4022137024300469 [Eh]
	 Opposite-Spin Energy      =      -1.3077069730195756 [Eh]
	 Correlation Energy        =      -1.7099206754496226 [Eh]
	 Total Energy              =    -401.7967683569515316 [Eh]

	 ================> DF-SCS-MP2 Energies <==================
	-----------------------------------------------------------
	 SCS Same-Spin Scale       =       0.3333333333333333 [-]
	 SCS Opposite-Spin Scale   =       1.2000000000000000 [-]
	 SCS Same-Spin Energy      =      -0.1340712341433490 [Eh]
	 SCS Opposite-Spin Energy  =      -1.5692483676234907 [Eh]
	 SCS Correlation Energy    =      -1.7033196017668397 [Eh]
	 SCS Total Energy          =    -401.7901672832687723 [Eh]
	-----------------------------------------------------------

  Dipole Moment: [D]
     X:     3.1641      Y:     3.2381      Z:    -1.0414     Total:     4.6456

*** Psi4 exiting successfully. Buy a developer a beer!
