                               Psi4 1.3.2 release

  ==> Input File <==

--------------------------------------------------------------------------
#psi4
#
memory 32 gb

molecule  {
0 1
  O       -2.5136524    -0.5289464     0.0105245
  O       -0.0903380    -1.4616610     0.1717700
  N        0.9259230     0.4056680    -0.6455280
  C       -1.5147550     0.4028960    -0.3432490
  C        2.2711600    -0.1378510    -0.5222970
  C       -0.1583790    -0.2975740    -0.2472510
  C       -1.5639611     1.6342671     0.5527344
  C        2.8531060     0.0659690     0.8699860
  H       -1.6669500     0.7105100    -1.3901450
  H        2.2044940    -1.2028750    -0.7525030
  H        2.8934660     0.3357800    -1.2867330
  H        0.8101310     1.3771570    -0.9023240
  H       -1.3564630     1.3269670     1.5921410
  H       -2.5982940     2.0269070     0.5395510
  H       -0.8919110     2.4138320     0.2596650
  H        2.9042670     1.1289430     1.1200310
  H        2.2261210    -0.4398610     1.6074960
  H        3.8631580    -0.3501450     0.9292180
  H       -2.0326010    -1.3422410     0.2291570
units angstrom
no_reorient  #important for SAPT in psi4, default
symmetry c1  #important for SAPT in psi4, default
}

set PROPERTIES_ORIGIN ["COM"]
properties('MP2/aug-cc-pvtz', properties = ['dipole'])
--------------------------------------------------------------------------

    Molecular point group: c1
  Charge       = 0
  Multiplicity = 1
  Basis Set: AUG-CC-PVTZ
    Blend: AUG-CC-PVTZ
  Basis Set: (AUG-CC-PVTZ AUX)
    Blend: AUG-CC-PVTZ-JKFIT

    Orbital Energies [Eh]
    ---------------------

    Doubly Occupied:

       1A    -20.548030     2A    -20.532726     3A    -15.598335
       4A    -11.358473     5A    -11.298778     6A    -11.273514
       7A    -11.232303     8A    -11.224204     9A     -1.398735
      10A     -1.348175    11A     -1.245625    12A     -1.053958
      13A     -1.013394    14A     -0.902726    15A     -0.849944
      16A     -0.794094    17A     -0.745834    18A     -0.677674
      19A     -0.649497    20A     -0.642168    21A     -0.611181
      22A     -0.600034    23A     -0.578264    24A     -0.562693
      25A     -0.544896    26A     -0.535145    27A     -0.520388
      28A     -0.514433    29A     -0.502288    30A     -0.446639
      31A     -0.435055    32A     -0.403127

  @DF-RHF Final Energy:  -400.08758585111491

   => Energetics <=

    Nuclear Repulsion Energy =            400.5858647862967246
    One-Electron Energy =               -1340.0622420048234744
    Two-Electron Energy =                 539.3887913674118408
    Total Energy =                       -400.0875858511149090
  Basis Set: (AUG-CC-PVTZ AUX)
    Blend: AUG-CC-PVTZ-RI
    Molecular point group: c1

    Geometry (in Angstrom), charge = 0, multiplicity = 1:

       Center              X                  Y                   Z               Mass
    ------------   -----------------  -----------------  -----------------  -----------------
         O           -2.516781606697    -0.527966680448     0.014314527684    15.994914619570
         O           -0.093467206697    -1.460681280448     0.175560027684    15.994914619570
         N            0.922793793303     0.406647719552    -0.641737972316    14.003074004430
         C           -1.517884206697     0.403875719552    -0.339458972316    12.000000000000
         C            2.268030793303    -0.136871280448    -0.518506972316    12.000000000000
         C           -0.161508206697    -0.296594280448    -0.243460972316    12.000000000000
         C           -1.567090306697     1.635246819552     0.556524427684    12.000000000000
         C            2.849976793303     0.066948719552     0.873776027684    12.000000000000
         H           -1.670079206697     0.711489719552    -1.386354972316     1.007825032230
         H            2.201364793303    -1.201895280448    -0.748712972316     1.007825032230
         H            2.890336793303     0.336759719552    -1.282942972316     1.007825032230
         H            0.807001793303     1.378136719552    -0.898533972316     1.007825032230
         H           -1.359592206697     1.327946719552     1.595931027684     1.007825032230
         H           -2.601423206697     2.027886719552     0.543341027684     1.007825032230
         H           -0.895040206697     2.414811719552     0.263455027684     1.007825032230
         H            2.901137793303     1.129922719552     1.123821027684     1.007825032230
         H            2.222991793303    -0.438881280448     1.611286027684     1.007825032230
         H            3.860028793303    -0.349165280448     0.933008027684     1.007825032230
         H           -2.035730206697    -1.341261280448     0.232947027684     1.007825032230

  Basis Set: AUG-CC-PVTZ
    Blend: AUG-CC-PVTZ
  Basis Set: (AUG-CC-PVTZ AUX)
    Blend: AUG-CC-PVTZ-JKFIT
	 Reference Energy          =    -400.0875858511149090 [Eh]
	 Singles Energy            =      -0.0000000000000000 [Eh]
	 Same-Spin Energy          =      -0.4019467158326683 [Eh]
	 Opposite-Spin Energy      =      -1.3072447065857142 [Eh]
	 Correlation Energy        =      -1.7091914224183826 [Eh]
	 Total Energy              =    -401.7967772735332801 [Eh]

	 ================> DF-SCS-MP2 Energies <==================
	-----------------------------------------------------------
	 SCS Same-Spin Scale       =       0.3333333333333333 [-]
	 SCS Opposite-Spin Scale   =       1.2000000000000000 [-]
	 SCS Same-Spin Energy      =      -0.1339822386108894 [Eh]
	 SCS Opposite-Spin Energy  =      -1.5686936479028570 [Eh]
	 SCS Correlation Energy    =      -1.7026758865137466 [Eh]
	 SCS Total Energy          =    -401.7902617376286685 [Eh]
	-----------------------------------------------------------

  Dipole Moment: [D]
     X:     3.0778      Y:     3.2197      Z:    -1.0109     Total:     4.5675

*** Psi4 exiting successfully. Buy a developer a beer!
