                               Psi4 1.4a3.dev225

  ==> Input File <==

--------------------------------------------------------------------------
#psi4
#
memory 32 gb

molecule  {
0 1
  O       -1.5707600    -1.5123310    -0.2332890
  O        0.1382410     1.6075510    -0.3059650
  N        0.6999210    -0.4896500     0.4239600
  C       -1.5456480    -0.0933390    -0.4361750
  C        2.0783650    -0.1398720     0.7271540
  C       -0.1470270     0.4197650    -0.1121660
  C       -2.5680410     0.6261290     0.4306590
  C        2.9727550    -0.1683320    -0.5071050
  H       -1.7217520     0.1422920    -1.4952760
  H        2.0695770     0.8628690     1.1612900
  H        2.4371510    -0.8367210     1.4904630
  H        0.3692793    -1.4988290     0.4615560
  H       -2.3944150     0.3774590     1.4809910
  H       -3.5869010     0.3276930     0.1608950
  H       -2.4702460     1.7050790     0.2962630
  H        2.9788310    -1.1637080    -0.9596270
  H        2.6039680     0.5505970    -1.2414500
  H        4.0012360     0.0983730    -0.2444710
  H       -2.4840080    -1.8129070    -0.3767550
units angstrom
no_reorient  #important for SAPT in psi4, default
symmetry c1  #important for SAPT in psi4, default
}

set PROPERTIES_ORIGIN ["COM"]
properties('MP2/aug-cc-pvtz', properties = ['dipole'])
--------------------------------------------------------------------------

    Molecular point group: c1
  Charge       = 0
  Multiplicity = 1
  Basis Set: AUG-CC-PVTZ
    Blend: AUG-CC-PVTZ
  Basis Set: (AUG-CC-PVTZ AUX)
    Blend: AUG-CC-PVTZ-JKFIT

    Orbital Energies [Eh]
    ---------------------

    Doubly Occupied:

       1A    -20.581964     2A    -20.509956     3A    -15.581779
       4A    -11.343365     5A    -11.301568     6A    -11.259441
       7A    -11.229382     8A    -11.211639     9A     -1.388569
      10A     -1.359420    11A     -1.219720    12A     -1.045238
      13A     -1.008609    14A     -0.901721    15A     -0.842532
      16A     -0.765052    17A     -0.717604    18A     -0.696298
      19A     -0.642588    20A     -0.631982    21A     -0.609754
      22A     -0.587771    23A     -0.580182    24A     -0.558884
      25A     -0.538648    26A     -0.525082    27A     -0.519214
      28A     -0.508474    29A     -0.489672    30A     -0.461236
      31A     -0.414956    32A     -0.383101

  @DF-RHF Final Energy:  -400.08399713212066

   => Energetics <=

    Nuclear Repulsion Energy =            399.6793012296654979
    One-Electron Energy =               -1338.6957976245300870
    Two-Electron Energy =                 538.9324992627439315
    Total Energy =                       -400.0839971321206576
  Basis Set: (AUG-CC-PVTZ AUX)
    Blend: AUG-CC-PVTZ-RI
    Molecular point group: c1

    Geometry (in Angstrom), charge = 0, multiplicity = 1:

       Center              X                  Y                   Z               Mass
    ------------   -----------------  -----------------  -----------------  -----------------
         O           -1.555297797366    -1.522077202937    -0.227134583425    15.994914619570
         O            0.153703202634     1.597804797063    -0.299810583425    15.994914619570
         N            0.715383202634    -0.499396202937     0.430114416575    14.003074004430
         C           -1.530185797366    -0.103085202937    -0.430020583425    12.000000000000
         C            2.093827202634    -0.149618202937     0.733308416575    12.000000000000
         C           -0.131564797366     0.410018797063    -0.106011583425    12.000000000000
         C           -2.552578797366     0.616382797063     0.436813416575    12.000000000000
         C            2.988217202634    -0.178078202937    -0.500950583425    12.000000000000
         H           -1.706289797366     0.132545797063    -1.489121583425     1.007825032230
         H            2.085039202634     0.853122797063     1.167444416575     1.007825032230
         H            2.452613202634    -0.846467202937     1.496617416575     1.007825032230
         H            0.384741502634    -1.508575202937     0.467710416575     1.007825032230
         H           -2.378952797366     0.367712797063     1.487145416575     1.007825032230
         H           -3.571438797366     0.317946797063     0.167049416575     1.007825032230
         H           -2.454783797366     1.695332797063     0.302417416575     1.007825032230
         H            2.994293202634    -1.173454202937    -0.953472583425     1.007825032230
         H            2.619430202634     0.540850797063    -1.235295583425     1.007825032230
         H            4.016698202634     0.088626797063    -0.238316583425     1.007825032230
         H           -2.468545797366    -1.822653202937    -0.370600583425     1.007825032230

  Basis Set: AUG-CC-PVTZ
    Blend: AUG-CC-PVTZ
  Basis Set: (AUG-CC-PVTZ AUX)
    Blend: AUG-CC-PVTZ-JKFIT
	 Reference Energy          =    -400.0839971321206576 [Eh]
	 Singles Energy            =      -0.0000000000000000 [Eh]
	 Same-Spin Energy          =      -0.4020811310165150 [Eh]
	 Opposite-Spin Energy      =      -1.3084673228286798 [Eh]
	 Correlation Energy        =      -1.7105484538451949 [Eh]
	 Total Energy              =    -401.7945455859658637 [Eh]

	 ================> DF-SCS-MP2 Energies <==================
	-----------------------------------------------------------
	 SCS Same-Spin Scale       =       0.3333333333333333 [-]
	 SCS Opposite-Spin Scale   =       1.2000000000000000 [-]
	 SCS Same-Spin Energy      =      -0.1340270436721717 [Eh]
	 SCS Opposite-Spin Energy  =      -1.5701607873944157 [Eh]
	 SCS Correlation Energy    =      -1.7041878310665872 [Eh]
	 SCS Total Energy          =    -401.7881849631872342 [Eh]
	-----------------------------------------------------------

  Dipole Moment: [D]
     X:    -1.1879      Y:    -2.8175      Z:     0.4800     Total:     3.0951

*** Psi4 exiting successfully. Buy a developer a beer!
