                               Psi4 1.4a3.dev225

  ==> Input File <==

--------------------------------------------------------------------------
#psi4
#
memory 32 gb

molecule  {
0 1
  O       -1.5707600    -1.5123310    -0.2332890
  O        0.1382410     1.6075510    -0.3059650
  N        0.6999210    -0.4896500     0.4239600
  C       -1.5456480    -0.0933390    -0.4361750
  C        2.0783650    -0.1398720     0.7271540
  C       -0.1928955     0.4029375    -0.1227920
  C       -2.5680410     0.6261290     0.4306590
  C        2.9727550    -0.1683320    -0.5071050
  H       -1.7217520     0.1422920    -1.4952760
  H        2.0695770     0.8628690     1.1612900
  H        2.4371510    -0.8367210     1.4904630
  H        0.3848370    -1.4513440     0.4597870
  H       -2.3944150     0.3774590     1.4809910
  H       -3.5869010     0.3276930     0.1608950
  H       -2.4702460     1.7050790     0.2962630
  H        2.9788310    -1.1637080    -0.9596270
  H        2.6039680     0.5505970    -1.2414500
  H        4.0012360     0.0983730    -0.2444710
  H       -2.4840080    -1.8129070    -0.3767550
units angstrom
no_reorient  #important for SAPT in psi4, default
symmetry c1  #important for SAPT in psi4, default
}

set PROPERTIES_ORIGIN ["COM"]
properties('MP2/aug-cc-pvtz', properties = ['dipole'])
--------------------------------------------------------------------------

    Molecular point group: c1
  Charge       = 0
  Multiplicity = 1
  Basis Set: AUG-CC-PVTZ
    Blend: AUG-CC-PVTZ
  Basis Set: (AUG-CC-PVTZ AUX)
    Blend: AUG-CC-PVTZ-JKFIT

    Orbital Energies [Eh]
    ---------------------

    Doubly Occupied:

       1A    -20.584604     2A    -20.508889     3A    -15.577651
       4A    -11.347436     5A    -11.304285     6A    -11.259081
       7A    -11.232940     8A    -11.210510     9A     -1.390845
      10A     -1.346898    11A     -1.215392    12A     -1.054489
      13A     -1.008681    14A     -0.910627    15A     -0.844173
      16A     -0.768374    17A     -0.721336    18A     -0.701134
      19A     -0.646605    20A     -0.630863    21A     -0.609311
      22A     -0.583800    23A     -0.577575    24A     -0.561582
      25A     -0.541995    26A     -0.526235    27A     -0.518713
      28A     -0.504977    29A     -0.488860    30A     -0.461765
      31A     -0.418929    32A     -0.379538

  @DF-RHF Final Energy:  -400.08161462042477

   => Energetics <=

    Nuclear Repulsion Energy =            399.8114016939669568
    One-Electron Energy =               -1338.9098447663404841
    Two-Electron Energy =                 539.0168284519488680
    Total Energy =                       -400.0816146204247161
  Basis Set: (AUG-CC-PVTZ AUX)
    Blend: AUG-CC-PVTZ-RI
    Molecular point group: c1

    Geometry (in Angstrom), charge = 0, multiplicity = 1:

       Center              X                  Y                   Z               Mass
    ------------   -----------------  -----------------  -----------------  -----------------
         O           -1.550730431244    -1.520761224354    -0.226030244763    15.994914619570
         O            0.158270568756     1.599120775646    -0.298706244763    15.994914619570
         N            0.719950568756    -0.498080224354     0.431218755237    14.003074004430
         C           -1.525618431244    -0.101769224354    -0.428916244763    12.000000000000
         C            2.098394568756    -0.148302224354     0.734412755237    12.000000000000
         C           -0.172865931244     0.394507275646    -0.115533244763    12.000000000000
         C           -2.548011431244     0.617698775646     0.437917755237    12.000000000000
         C            2.992784568756    -0.176762224354    -0.499846244763    12.000000000000
         H           -1.701722431244     0.133861775646    -1.488017244763     1.007825032230
         H            2.089606568756     0.854438775646     1.168548755237     1.007825032230
         H            2.457180568756    -0.845151224354     1.497721755237     1.007825032230
         H            0.404866568756    -1.459774224354     0.467045755237     1.007825032230
         H           -2.374385431244     0.369028775646     1.488249755237     1.007825032230
         H           -3.566871431244     0.319262775646     0.168153755237     1.007825032230
         H           -2.450216431244     1.696648775646     0.303521755237     1.007825032230
         H            2.998860568756    -1.172138224354    -0.952368244763     1.007825032230
         H            2.623997568756     0.542166775646    -1.234191244763     1.007825032230
         H            4.021265568756     0.089942775646    -0.237212244763     1.007825032230
         H           -2.463978431244    -1.821337224354    -0.369496244763     1.007825032230

  Basis Set: AUG-CC-PVTZ
    Blend: AUG-CC-PVTZ
  Basis Set: (AUG-CC-PVTZ AUX)
    Blend: AUG-CC-PVTZ-JKFIT
	 Reference Energy          =    -400.0816146204247730 [Eh]
	 Singles Energy            =      -0.0000000000000000 [Eh]
	 Same-Spin Energy          =      -0.4025140386271987 [Eh]
	 Opposite-Spin Energy      =      -1.3092709235349618 [Eh]
	 Correlation Energy        =      -1.7117849621621604 [Eh]
	 Total Energy              =    -401.7933995825869147 [Eh]

	 ================> DF-SCS-MP2 Energies <==================
	-----------------------------------------------------------
	 SCS Same-Spin Scale       =       0.3333333333333333 [-]
	 SCS Opposite-Spin Scale   =       1.2000000000000000 [-]
	 SCS Same-Spin Energy      =      -0.1341713462090662 [Eh]
	 SCS Opposite-Spin Energy  =      -1.5711251082419542 [Eh]
	 SCS Correlation Energy    =      -1.7052964544510203 [Eh]
	 SCS Total Energy          =    -401.7869110748757748 [Eh]
	-----------------------------------------------------------

  Dipole Moment: [D]
     X:    -1.3886      Y:    -2.8114      Z:     0.4442     Total:     3.1670

*** Psi4 exiting successfully. Buy a developer a beer!
