                               Psi4 1.4a3.dev225

  ==> Input File <==

--------------------------------------------------------------------------
#psi4
#
memory 32 gb

molecule  {
0 1
  O       -1.5707600    -1.5123310    -0.2332890
  O        0.1382410     1.6075510    -0.3059650
  N        0.6999210    -0.4896500     0.4239600
  C       -1.5456480    -0.0933390    -0.4361750
  C        2.1257638    -0.1278446     0.7375796
  C       -0.1470270     0.4197650    -0.1121660
  C       -2.5680410     0.6261290     0.4306590
  C        2.9727550    -0.1683320    -0.5071050
  H       -1.7217520     0.1422920    -1.4952760
  H        2.0695770     0.8628690     1.1612900
  H        2.4371510    -0.8367210     1.4904630
  H        0.3848370    -1.4513440     0.4597870
  H       -2.3944150     0.3774590     1.4809910
  H       -3.5869010     0.3276930     0.1608950
  H       -2.4702460     1.7050790     0.2962630
  H        2.9788310    -1.1637080    -0.9596270
  H        2.6039680     0.5505970    -1.2414500
  H        4.0012360     0.0983730    -0.2444710
  H       -2.4840080    -1.8129070    -0.3767550
units angstrom
no_reorient  #important for SAPT in psi4, default
symmetry c1  #important for SAPT in psi4, default
}

set PROPERTIES_ORIGIN ["COM"]
properties('MP2/aug-cc-pvtz', properties = ['dipole'])
--------------------------------------------------------------------------

    Molecular point group: c1
  Charge       = 0
  Multiplicity = 1
  Basis Set: AUG-CC-PVTZ
    Blend: AUG-CC-PVTZ
  Basis Set: (AUG-CC-PVTZ AUX)
    Blend: AUG-CC-PVTZ-JKFIT

    Orbital Energies [Eh]
    ---------------------

    Doubly Occupied:

       1A    -20.580173     2A    -20.508024     3A    -15.575647
       4A    -11.341517     5A    -11.300151     6A    -11.261818
       7A    -11.228343     8A    -11.213363     9A     -1.386672
      10A     -1.357193    11A     -1.214499    12A     -1.044880
      13A     -1.014452    14A     -0.899252    15A     -0.843649
      16A     -0.771614    17A     -0.715368    18A     -0.695289
      19A     -0.640882    20A     -0.627514    21A     -0.613022
      22A     -0.587244    23A     -0.582306    24A     -0.557621
      25A     -0.540652    26A     -0.523805    27A     -0.514659
      28A     -0.513001    29A     -0.496247    30A     -0.460571
      31A     -0.412901    32A     -0.384444

  @DF-RHF Final Energy:  -400.08581430931594

   => Energetics <=

    Nuclear Repulsion Energy =            399.2285966052783692
    One-Electron Energy =               -1337.8152769634655215
    Two-Electron Energy =                 538.5008660488712167
    Total Energy =                       -400.0858143093158787
  Basis Set: (AUG-CC-PVTZ AUX)
    Blend: AUG-CC-PVTZ-RI
    Molecular point group: c1

    Geometry (in Angstrom), charge = 0, multiplicity = 1:

       Center              X                  Y                   Z               Mass
    ------------   -----------------  -----------------  -----------------  -----------------
         O           -1.560289855262    -1.523718704887    -0.228187926723    15.994914619570
         O            0.148711144738     1.596163295113    -0.300863926723    15.994914619570
         N            0.710391144738    -0.501037704887     0.429061073277    14.003074004430
         C           -1.535177855262    -0.104726704887    -0.431073926723    12.000000000000
         C            2.136233944738    -0.139232304887     0.742680673277    12.000000000000
         C           -0.136556855262     0.408377295113    -0.107064926723    12.000000000000
         C           -2.557570855262     0.614741295113     0.435760073277    12.000000000000
         C            2.983225144738    -0.179719704887    -0.502003926723    12.000000000000
         H           -1.711281855262     0.130904295113    -1.490174926723     1.007825032230
         H            2.080047144738     0.851481295113     1.166391073277     1.007825032230
         H            2.447621144738    -0.848108704887     1.495564073277     1.007825032230
         H            0.395307144738    -1.462731704887     0.464888073277     1.007825032230
         H           -2.383944855262     0.366071295113     1.486092073277     1.007825032230
         H           -3.576430855262     0.316305295113     0.165996073277     1.007825032230
         H           -2.459775855262     1.693691295113     0.301364073277     1.007825032230
         H            2.989301144738    -1.175095704887    -0.954525926723     1.007825032230
         H            2.614438144738     0.539209295113    -1.236348926723     1.007825032230
         H            4.011706144738     0.086985295113    -0.239369926723     1.007825032230
         H           -2.473537855262    -1.824294704887    -0.371653926723     1.007825032230

  Basis Set: AUG-CC-PVTZ
    Blend: AUG-CC-PVTZ
  Basis Set: (AUG-CC-PVTZ AUX)
    Blend: AUG-CC-PVTZ-JKFIT
	 Reference Energy          =    -400.0858143093159356 [Eh]
	 Singles Energy            =      -0.0000000000000000 [Eh]
	 Same-Spin Energy          =      -0.4014839507358754 [Eh]
	 Opposite-Spin Energy      =      -1.3076102035742210 [Eh]
	 Correlation Energy        =      -1.7090941543100964 [Eh]
	 Total Energy              =    -401.7949084636260295 [Eh]

	 ================> DF-SCS-MP2 Energies <==================
	-----------------------------------------------------------
	 SCS Same-Spin Scale       =       0.3333333333333333 [-]
	 SCS Opposite-Spin Scale   =       1.2000000000000000 [-]
	 SCS Same-Spin Energy      =      -0.1338279835786251 [Eh]
	 SCS Opposite-Spin Energy  =      -1.5691322442890652 [Eh]
	 SCS Correlation Energy    =      -1.7029602278676903 [Eh]
	 SCS Total Energy          =    -401.7887745371835990 [Eh]
	-----------------------------------------------------------

  Dipole Moment: [D]
     X:    -0.9913      Y:    -2.7673      Z:     0.4928     Total:     2.9805

*** Psi4 exiting successfully. Buy a developer a beer!
