                               Psi4 1.3.2 release

  ==> Input File <==

--------------------------------------------------------------------------
#psi4
#
memory 32 gb

molecule  {
0 1
  O       -2.5211540    -0.5137840     0.0284240
  O       -0.0903380    -1.4616610     0.1717700
  N        0.9259230     0.4056680    -0.6455280
  C       -1.5147550     0.4028960    -0.3432490
  C        2.2711600    -0.1378510    -0.5222970
  C       -0.1583790    -0.2975740    -0.2472510
  C       -1.5844930     1.6236140     0.5658530
  C        2.8531060     0.0659690     0.8699860
  H       -1.6531357     0.6825887    -1.2951210
  H        2.2044940    -1.2028750    -0.7525030
  H        2.8934660     0.3357800    -1.2867330
  H        0.8101310     1.3771570    -0.9023240
  H       -1.3564630     1.3269670     1.5921410
  H       -2.5982940     2.0269070     0.5395510
  H       -0.8919110     2.4138320     0.2596650
  H        2.9042670     1.1289430     1.1200310
  H        2.2261210    -0.4398610     1.6074960
  H        3.8631580    -0.3501450     0.9292180
  H       -2.0326010    -1.3422410     0.2291570
units angstrom
no_reorient  #important for SAPT in psi4, default
symmetry c1  #important for SAPT in psi4, default
}

set PROPERTIES_ORIGIN ["COM"]
properties('MP2/aug-cc-pvtz', properties = ['dipole'])
--------------------------------------------------------------------------

    Molecular point group: c1
  Charge       = 0
  Multiplicity = 1
  Basis Set: AUG-CC-PVTZ
    Blend: AUG-CC-PVTZ
  Basis Set: (AUG-CC-PVTZ AUX)
    Blend: AUG-CC-PVTZ-JKFIT

    Orbital Energies [Eh]
    ---------------------

    Doubly Occupied:

       1A    -20.546626     2A    -20.532966     3A    -15.598990
       4A    -11.358373     5A    -11.285678     6A    -11.273824
       7A    -11.230520     8A    -11.224391     9A     -1.397982
      10A     -1.345835    11A     -1.246113    12A     -1.055778
      13A     -1.014239    14A     -0.904846    15A     -0.854635
      16A     -0.796167    17A     -0.748033    18A     -0.682410
      19A     -0.652985    20A     -0.642136    21A     -0.611390
      22A     -0.599345    23A     -0.575177    24A     -0.562928
      25A     -0.543823    26A     -0.537884    27A     -0.520994
      28A     -0.515072    29A     -0.502477    30A     -0.448637
      31A     -0.436286    32A     -0.403844

  @DF-RHF Final Energy:  -400.08263641456102

   => Energetics <=

    Nuclear Repulsion Energy =            401.0038775869783194
    One-Electron Energy =               -1340.8722599833504319
    Two-Electron Energy =                 539.7857459818110328
    Total Energy =                       -400.0826364145610796
  Basis Set: (AUG-CC-PVTZ AUX)
    Blend: AUG-CC-PVTZ-RI
    Molecular point group: c1

    Geometry (in Angstrom), charge = 0, multiplicity = 1:

       Center              X                  Y                   Z               Mass
    ------------   -----------------  -----------------  -----------------  -----------------
         O           -2.521272863949    -0.513543476412     0.027606097664    15.994914619570
         O           -0.090456863949    -1.461420476412     0.170952097664    15.994914619570
         N            0.925804136051     0.405908523588    -0.646345902336    14.003074004430
         C           -1.514873863949     0.403136523588    -0.344066902336    12.000000000000
         C            2.271041136051    -0.137610476412    -0.523114902336    12.000000000000
         C           -0.158497863949    -0.297333476412    -0.248068902336    12.000000000000
         C           -1.584611863949     1.623854523588     0.565035097664    12.000000000000
         C            2.852987136051     0.066209523588     0.869168097664    12.000000000000
         H           -1.653254563949     0.682829223588    -1.295938902336     1.007825032230
         H            2.204375136051    -1.202634476412    -0.753320902336     1.007825032230
         H            2.893347136051     0.336020523588    -1.287550902336     1.007825032230
         H            0.810012136051     1.377397523588    -0.903141902336     1.007825032230
         H           -1.356581863949     1.327207523588     1.591323097664     1.007825032230
         H           -2.598412863949     2.027147523588     0.538733097664     1.007825032230
         H           -0.892029863949     2.414072523588     0.258847097664     1.007825032230
         H            2.904148136051     1.129183523588     1.119213097664     1.007825032230
         H            2.226002136051    -0.439620476412     1.606678097664     1.007825032230
         H            3.863039136051    -0.349904476412     0.928400097664     1.007825032230
         H           -2.032719863949    -1.342000476412     0.228339097664     1.007825032230

  Basis Set: AUG-CC-PVTZ
    Blend: AUG-CC-PVTZ
  Basis Set: (AUG-CC-PVTZ AUX)
    Blend: AUG-CC-PVTZ-JKFIT
	 Reference Energy          =    -400.0826364145610228 [Eh]
	 Singles Energy            =      -0.0000000000000000 [Eh]
	 Same-Spin Energy          =      -0.4020062704333476 [Eh]
	 Opposite-Spin Energy      =      -1.3070196484450485 [Eh]
	 Correlation Energy        =      -1.7090259188783961 [Eh]
	 Total Energy              =    -401.7916623334394330 [Eh]

	 ================> DF-SCS-MP2 Energies <==================
	-----------------------------------------------------------
	 SCS Same-Spin Scale       =       0.3333333333333333 [-]
	 SCS Opposite-Spin Scale   =       1.2000000000000000 [-]
	 SCS Same-Spin Energy      =      -0.1340020901444492 [Eh]
	 SCS Opposite-Spin Energy  =      -1.5684235781340581 [Eh]
	 SCS Correlation Energy    =      -1.7024256682785073 [Eh]
	 SCS Total Energy          =    -401.7850620828395449 [Eh]
	-----------------------------------------------------------

  Dipole Moment: [D]
     X:     3.1171      Y:     3.2022      Z:    -1.0945     Total:     4.6009

*** Psi4 exiting successfully. Buy a developer a beer!
