                               Psi4 1.3.2 release

  ==> Input File <==

--------------------------------------------------------------------------
#psi4
#
memory 32 gb

molecule  {
0 1
  O       -2.5381389    -0.4963733     0.0245581
  O       -0.0903380    -1.4616610     0.1717700
  N        0.9259230     0.4056680    -0.6455280
  C       -1.5147550     0.4028960    -0.3432490
  C        2.2711600    -0.1378510    -0.5222970
  C       -0.1464530    -0.2750677    -0.2552455
  C       -1.5844930     1.6236140     0.5658530
  C        2.8531060     0.0659690     0.8699860
  H       -1.6669500     0.7105100    -1.3901450
  H        2.2044940    -1.2028750    -0.7525030
  H        2.8934660     0.3357800    -1.2867330
  H        0.8101310     1.3771570    -0.9023240
  H       -1.3564630     1.3269670     1.5921410
  H       -2.5982940     2.0269070     0.5395510
  H       -0.8919110     2.4138320     0.2596650
  H        2.9042670     1.1289430     1.1200310
  H        2.2261210    -0.4398610     1.6074960
  H        3.8631580    -0.3501450     0.9292180
  H       -2.0326010    -1.3422410     0.2291570
units angstrom
no_reorient  #important for SAPT in psi4, default
symmetry c1  #important for SAPT in psi4, default
}

set PROPERTIES_ORIGIN ["COM"]
properties('MP2/aug-cc-pvtz', properties = ['dipole'])
--------------------------------------------------------------------------

    Molecular point group: c1
  Charge       = 0
  Multiplicity = 1
  Basis Set: AUG-CC-PVTZ
    Blend: AUG-CC-PVTZ
  Basis Set: (AUG-CC-PVTZ AUX)
    Blend: AUG-CC-PVTZ-JKFIT

    Orbital Energies [Eh]
    ---------------------

    Doubly Occupied:

       1A    -20.550004     2A    -20.528384     3A    -15.604279
       4A    -11.359241     5A    -11.297869     6A    -11.276639
       7A    -11.230732     8A    -11.226211     9A     -1.387470
      10A     -1.340525    11A     -1.251577    12A     -1.054613
      13A     -1.014664    14A     -0.904679    15A     -0.850945
      16A     -0.799692    17A     -0.740563    18A     -0.676491
      19A     -0.649698    20A     -0.637580    21A     -0.612698
      22A     -0.598796    23A     -0.573696    24A     -0.562520
      25A     -0.545108    26A     -0.534778    27A     -0.518516
      28A     -0.511446    29A     -0.503099    30A     -0.443993
      31A     -0.433933    32A     -0.405272

  @DF-RHF Final Energy:  -400.08288309209956

   => Energetics <=

    Nuclear Repulsion Energy =            400.1210327035724958
    One-Electron Energy =               -1339.1564109179414572
    Two-Electron Energy =                 538.9524951222693971
    Total Energy =                       -400.0828830920995642
  Basis Set: (AUG-CC-PVTZ AUX)
    Blend: AUG-CC-PVTZ-RI
    Molecular point group: c1

    Geometry (in Angstrom), charge = 0, multiplicity = 1:

       Center              X                  Y                   Z               Mass
    ------------   -----------------  -----------------  -----------------  -----------------
         O           -2.537040786962    -0.501058494520     0.025905712852    15.994914619570
         O           -0.089239886962    -1.466346194520     0.173117612852    15.994914619570
         N            0.927021113038     0.400982805480    -0.644180387148    14.003074004430
         C           -1.513656886962     0.398210805480    -0.341901387148    12.000000000000
         C            2.272258113038    -0.142536194520    -0.520949387148    12.000000000000
         C           -0.145354886962    -0.279752894520    -0.253897887148    12.000000000000
         C           -1.583394886962     1.618928805480     0.567200612852    12.000000000000
         C            2.854204113038     0.061283805480     0.871333612852    12.000000000000
         H           -1.665851886962     0.705824805480    -1.388797387148     1.007825032230
         H            2.205592113038    -1.207560194520    -0.751155387148     1.007825032230
         H            2.894564113038     0.331094805480    -1.285385387148     1.007825032230
         H            0.811229113038     1.372471805480    -0.900976387148     1.007825032230
         H           -1.355364886962     1.322281805480     1.593488612852     1.007825032230
         H           -2.597195886962     2.022221805480     0.540898612852     1.007825032230
         H           -0.890812886962     2.409146805480     0.261012612852     1.007825032230
         H            2.905365113038     1.124257805480     1.121378612852     1.007825032230
         H            2.227219113038    -0.444546194520     1.608843612852     1.007825032230
         H            3.864256113038    -0.354830194520     0.930565612852     1.007825032230
         H           -2.031502886962    -1.346926194520     0.230504612852     1.007825032230

  Basis Set: AUG-CC-PVTZ
    Blend: AUG-CC-PVTZ
  Basis Set: (AUG-CC-PVTZ AUX)
    Blend: AUG-CC-PVTZ-JKFIT
	 Reference Energy          =    -400.0828830920995642 [Eh]
	 Singles Energy            =      -0.0000000000000000 [Eh]
	 Same-Spin Energy          =      -0.4029390670526541 [Eh]
	 Opposite-Spin Energy      =      -1.3092790734995599 [Eh]
	 Correlation Energy        =      -1.7122181405522139 [Eh]
	 Total Energy              =    -401.7951012326518025 [Eh]

	 ================> DF-SCS-MP2 Energies <==================
	-----------------------------------------------------------
	 SCS Same-Spin Scale       =       0.3333333333333333 [-]
	 SCS Opposite-Spin Scale   =       1.2000000000000000 [-]
	 SCS Same-Spin Energy      =      -0.1343130223508847 [Eh]
	 SCS Opposite-Spin Energy  =      -1.5711348881994718 [Eh]
	 SCS Correlation Energy    =      -1.7054479105503564 [Eh]
	 SCS Total Energy          =    -401.7883310026498975 [Eh]
	-----------------------------------------------------------

  Dipole Moment: [D]
     X:     3.2890      Y:     3.2832      Z:    -1.0986     Total:     4.7754

*** Psi4 exiting successfully. Buy a developer a beer!
