                               Psi4 1.3.2 release

  ==> Input File <==

--------------------------------------------------------------------------
#psi4
#
memory 32 gb

molecule  {
0 1
  O       -2.5211540    -0.5137840     0.0284240
  O       -0.0903380    -1.4616610     0.1717700
  N        0.9259230     0.4056680    -0.6455280
  C       -1.5147550     0.4028960    -0.3432490
  C        2.2711600    -0.1378510    -0.5222970
  C       -0.1847277    -0.2589128    -0.2535175
  C       -1.5844930     1.6236140     0.5658530
  C        2.8531060     0.0659690     0.8699860
  H       -1.6669500     0.7105100    -1.3901450
  H        2.2044940    -1.2028750    -0.7525030
  H        2.8934660     0.3357800    -1.2867330
  H        0.7756634     1.3742812    -0.8952346
  H       -1.3564630     1.3269670     1.5921410
  H       -2.5982940     2.0269070     0.5395510
  H       -0.8919110     2.4138320     0.2596650
  H        2.9042670     1.1289430     1.1200310
  H        2.2261210    -0.4398610     1.6074960
  H        3.8631580    -0.3501450     0.9292180
  H       -2.0326010    -1.3422410     0.2291570
units angstrom
no_reorient  #important for SAPT in psi4, default
symmetry c1  #important for SAPT in psi4, default
}

set PROPERTIES_ORIGIN ["COM"]
properties('MP2/aug-cc-pvtz', properties = ['dipole'])
--------------------------------------------------------------------------

    Molecular point group: c1
  Charge       = 0
  Multiplicity = 1
  Basis Set: AUG-CC-PVTZ
    Blend: AUG-CC-PVTZ
  Basis Set: (AUG-CC-PVTZ AUX)
    Blend: AUG-CC-PVTZ-JKFIT

    Orbital Energies [Eh]
    ---------------------

    Doubly Occupied:

       1A    -20.550089     2A    -20.527319     3A    -15.602041
       4A    -11.361551     5A    -11.300329     6A    -11.275837
       7A    -11.234472     8A    -11.224556     9A     -1.385571
      10A     -1.339995    11A     -1.241668    12A     -1.060156
      13A     -1.015763    14A     -0.909392    15A     -0.854728
      16A     -0.789164    17A     -0.747090    18A     -0.679105
      19A     -0.652909    20A     -0.635848    21A     -0.611144
      22A     -0.594171    23A     -0.574665    24A     -0.565629
      25A     -0.545037    26A     -0.536080    27A     -0.514212
      28A     -0.513398    29A     -0.500715    30A     -0.447395
      31A     -0.437996    32A     -0.400801

  @DF-RHF Final Energy:  -400.08056089242507

   => Energetics <=

    Nuclear Repulsion Energy =            400.3450992690209773
    One-Electron Energy =               -1339.5936653177186599
    Two-Electron Energy =                 539.1680051562726703
    Total Energy =                       -400.0805608924250691
  Basis Set: (AUG-CC-PVTZ AUX)
    Blend: AUG-CC-PVTZ-RI
    Molecular point group: c1

    Geometry (in Angstrom), charge = 0, multiplicity = 1:

       Center              X                  Y                   Z               Mass
    ------------   -----------------  -----------------  -----------------  -----------------
         O           -2.518156641790    -0.517721646461     0.029005329986    15.994914619570
         O           -0.087340641790    -1.465598646461     0.172351329986    15.994914619570
         N            0.928920358210     0.401730353539    -0.644946670014    14.003074004430
         C           -1.511757641790     0.398958353539    -0.342667670014    12.000000000000
         C            2.274157358210    -0.141788646461    -0.521715670014    12.000000000000
         C           -0.181730341790    -0.262850446461    -0.252936170014    12.000000000000
         C           -1.581495641790     1.619676353539     0.566434329986    12.000000000000
         C            2.856103358210     0.062031353539     0.870567329986    12.000000000000
         H           -1.663952641790     0.706572353539    -1.389563670014     1.007825032230
         H            2.207491358210    -1.206812646461    -0.751921670014     1.007825032230
         H            2.896463358210     0.331842353539    -1.286151670014     1.007825032230
         H            0.778660758210     1.370343553539    -0.894653270014     1.007825032230
         H           -1.353465641790     1.323029353539     1.592722329986     1.007825032230
         H           -2.595296641790     2.022969353539     0.540132329986     1.007825032230
         H           -0.888913641790     2.409894353539     0.260246329986     1.007825032230
         H            2.907264358210     1.125005353539     1.120612329986     1.007825032230
         H            2.229118358210    -0.443798646461     1.608077329986     1.007825032230
         H            3.866155358210    -0.354082646461     0.929799329986     1.007825032230
         H           -2.029603641790    -1.346178646461     0.229738329986     1.007825032230

  Basis Set: AUG-CC-PVTZ
    Blend: AUG-CC-PVTZ
  Basis Set: (AUG-CC-PVTZ AUX)
    Blend: AUG-CC-PVTZ-JKFIT
	 Reference Energy          =    -400.0805608924250691 [Eh]
	 Singles Energy            =      -0.0000000000000000 [Eh]
	 Same-Spin Energy          =      -0.4032346210693682 [Eh]
	 Opposite-Spin Energy      =      -1.3097626670092577 [Eh]
	 Correlation Energy        =      -1.7129972880786259 [Eh]
	 Total Energy              =    -401.7935581805036804 [Eh]

	 ================> DF-SCS-MP2 Energies <==================
	-----------------------------------------------------------
	 SCS Same-Spin Scale       =       0.3333333333333333 [-]
	 SCS Opposite-Spin Scale   =       1.2000000000000000 [-]
	 SCS Same-Spin Energy      =      -0.1344115403564561 [Eh]
	 SCS Opposite-Spin Energy  =      -1.5717152004111092 [Eh]
	 SCS Correlation Energy    =      -1.7061267407675653 [Eh]
	 SCS Total Energy          =    -401.7866876331926278 [Eh]
	-----------------------------------------------------------

  Dipole Moment: [D]
     X:     3.0296      Y:     3.3626      Z:    -1.0743     Total:     4.6518

*** Psi4 exiting successfully. Buy a developer a beer!
