                               Psi4 1.3.2 release

  ==> Input File <==

--------------------------------------------------------------------------
#psi4
#
memory 32 gb

molecule  {
0 1
  O       -2.5211540    -0.5137840     0.0284240
  O       -0.1010705    -1.4617657     0.1730824
  N        0.9259230     0.4056680    -0.6455280
  C       -1.5206935     0.3919183    -0.3385165
  C        2.2711600    -0.1378510    -0.5222970
  C       -0.1583790    -0.2975740    -0.2472510
  C       -1.5844930     1.6236140     0.5658530
  C        2.8531060     0.0659690     0.8699860
  H       -1.6669500     0.7105100    -1.3901450
  H        2.2044940    -1.2028750    -0.7525030
  H        2.8934660     0.3357800    -1.2867330
  H        0.8101310     1.3771570    -0.9023240
  H       -1.3564630     1.3269670     1.5921410
  H       -2.5982940     2.0269070     0.5395510
  H       -0.8919110     2.4138320     0.2596650
  H        2.9042670     1.1289430     1.1200310
  H        2.2261210    -0.4398610     1.6074960
  H        3.8631580    -0.3501450     0.9292180
  H       -2.0326010    -1.3422410     0.2291570
units angstrom
no_reorient  #important for SAPT in psi4, default
symmetry c1  #important for SAPT in psi4, default
}

set PROPERTIES_ORIGIN ["COM"]
properties('MP2/aug-cc-pvtz', properties = ['dipole'])
--------------------------------------------------------------------------

    Molecular point group: c1
  Charge       = 0
  Multiplicity = 1
  Basis Set: AUG-CC-PVTZ
    Blend: AUG-CC-PVTZ
  Basis Set: (AUG-CC-PVTZ AUX)
    Blend: AUG-CC-PVTZ-JKFIT

    Orbital Energies [Eh]
    ---------------------

    Doubly Occupied:

       1A    -20.549182     2A    -20.533430     3A    -15.599198
       4A    -11.358963     5A    -11.297885     6A    -11.274142
       7A    -11.230816     8A    -11.224582     9A     -1.399891
      10A     -1.350216    11A     -1.246427    12A     -1.051727
      13A     -1.012096    14A     -0.902470    15A     -0.849399
      16A     -0.794494    17A     -0.745786    18A     -0.677487
      19A     -0.649748    20A     -0.642162    21A     -0.611699
      22A     -0.599835    23A     -0.576440    24A     -0.562850
      25A     -0.545106    26A     -0.535118    27A     -0.521095
      28A     -0.515050    29A     -0.503033    30A     -0.444107
      31A     -0.435465    32A     -0.403734

  @DF-RHF Final Energy:  -400.08782417069580

   => Energetics <=

    Nuclear Repulsion Energy =            400.5277320609565663
    One-Electron Energy =               -1339.9438464672909959
    Two-Electron Energy =                 539.3282902356385193
    Total Energy =                       -400.0878241706958534
  Basis Set: (AUG-CC-PVTZ AUX)
    Blend: AUG-CC-PVTZ-RI
    Molecular point group: c1

    Geometry (in Angstrom), charge = 0, multiplicity = 1:

       Center              X                  Y                   Z               Mass
    ------------   -----------------  -----------------  -----------------  -----------------
         O           -2.519079047249    -0.512644362978     0.027759719093    15.994914619570
         O           -0.098995547249    -1.460626062978     0.172418119093    15.994914619570
         N            0.927997952751     0.406807637022    -0.646192280907    14.003074004430
         C           -1.518618547249     0.393057937022    -0.339180780907    12.000000000000
         C            2.273234952751    -0.136711362978    -0.522961280907    12.000000000000
         C           -0.156304047249    -0.296434362978    -0.247915280907    12.000000000000
         C           -1.582418047249     1.624753637022     0.565188719093    12.000000000000
         C            2.855180952751     0.067108637022     0.869321719093    12.000000000000
         H           -1.664875047249     0.711649637022    -1.390809280907     1.007825032230
         H            2.206568952751    -1.201735362978    -0.753167280907     1.007825032230
         H            2.895540952751     0.336919637022    -1.287397280907     1.007825032230
         H            0.812205952751     1.378296637022    -0.902988280907     1.007825032230
         H           -1.354388047249     1.328106637022     1.591476719093     1.007825032230
         H           -2.596219047249     2.028046637022     0.538886719093     1.007825032230
         H           -0.889836047249     2.414971637022     0.259000719093     1.007825032230
         H            2.906341952751     1.130082637022     1.119366719093     1.007825032230
         H            2.228195952751    -0.438721362978     1.606831719093     1.007825032230
         H            3.865232952751    -0.349005362978     0.928553719093     1.007825032230
         H           -2.030526047249    -1.341101362978     0.228492719093     1.007825032230

  Basis Set: AUG-CC-PVTZ
    Blend: AUG-CC-PVTZ
  Basis Set: (AUG-CC-PVTZ AUX)
    Blend: AUG-CC-PVTZ-JKFIT
	 Reference Energy          =    -400.0878241706957965 [Eh]
	 Singles Energy            =      -0.0000000000000000 [Eh]
	 Same-Spin Energy          =      -0.4020973776117033 [Eh]
	 Opposite-Spin Energy      =      -1.3074127521207837 [Eh]
	 Correlation Energy        =      -1.7095101297324868 [Eh]
	 Total Energy              =    -401.7973343004283038 [Eh]

	 ================> DF-SCS-MP2 Energies <==================
	-----------------------------------------------------------
	 SCS Same-Spin Scale       =       0.3333333333333333 [-]
	 SCS Opposite-Spin Scale   =       1.2000000000000000 [-]
	 SCS Same-Spin Energy      =      -0.1340324592039011 [Eh]
	 SCS Opposite-Spin Energy  =      -1.5688953025449404 [Eh]
	 SCS Correlation Energy    =      -1.7029277617488414 [Eh]
	 SCS Total Energy          =    -401.7907519324446639 [Eh]
	-----------------------------------------------------------

  Dipole Moment: [D]
     X:     3.1088      Y:     3.1376      Z:    -1.0384     Total:     4.5373

*** Psi4 exiting successfully. Buy a developer a beer!
