                               Psi4 1.3.2 release

  ==> Input File <==

--------------------------------------------------------------------------
#psi4
#
memory 32 gb

molecule  {
0 1
  O       -2.5211540    -0.5137840     0.0284240
  O       -0.0903380    -1.4616610     0.1717700
  N        0.9259230     0.4056680    -0.6455280
  C       -1.5147550     0.4028960    -0.3432490
  C        2.2512910    -0.1800947    -0.5021995
  C       -0.1297497    -0.3328040    -0.2343117
  C       -1.5844930     1.6236140     0.5658530
  C        2.8531060     0.0659690     0.8699860
  H       -1.6669500     0.7105100    -1.3901450
  H        2.2044940    -1.2028750    -0.7525030
  H        2.8934660     0.3357800    -1.2867330
  H        0.8101310     1.3771570    -0.9023240
  H       -1.3564630     1.3269670     1.5921410
  H       -2.5982940     2.0269070     0.5395510
  H       -0.8919110     2.4138320     0.2596650
  H        2.9042670     1.1289430     1.1200310
  H        2.2261210    -0.4398610     1.6074960
  H        3.8631580    -0.3501450     0.9292180
  H       -2.0326010    -1.3422410     0.2291570
units angstrom
no_reorient  #important for SAPT in psi4, default
symmetry c1  #important for SAPT in psi4, default
}

set PROPERTIES_ORIGIN ["COM"]
properties('MP2/aug-cc-pvtz', properties = ['dipole'])
--------------------------------------------------------------------------

    Molecular point group: c1
  Charge       = 0
  Multiplicity = 1
  Basis Set: AUG-CC-PVTZ
    Blend: AUG-CC-PVTZ
  Basis Set: (AUG-CC-PVTZ AUX)
    Blend: AUG-CC-PVTZ-JKFIT

    Orbital Energies [Eh]
    ---------------------

    Doubly Occupied:

       1A    -20.546889     2A    -20.539349     3A    -15.595963
       4A    -11.355719     5A    -11.295137     6A    -11.273304
       7A    -11.228653     8A    -11.224511     9A     -1.418511
      10A     -1.349269    11A     -1.249479    12A     -1.047369
      13A     -1.010892    14A     -0.896143    15A     -0.844711
      16A     -0.799314    17A     -0.740704    18A     -0.680168
      19A     -0.648890    20A     -0.646109    21A     -0.610965
      22A     -0.606313    23A     -0.575565    24A     -0.561789
      25A     -0.545458    26A     -0.534675    27A     -0.526802
      28A     -0.520332    29A     -0.501907    30A     -0.444277
      31A     -0.429049    32A     -0.405731

  @DF-RHF Final Energy:  -400.08453514044311

   => Energetics <=

    Nuclear Repulsion Energy =            400.9307766315144477
    One-Electron Energy =               -1340.7227279385581369
    Two-Electron Energy =                 539.7074161666006376
    Total Energy =                       -400.0845351404431085
  Basis Set: (AUG-CC-PVTZ AUX)
    Blend: AUG-CC-PVTZ-RI
    Molecular point group: c1

    Geometry (in Angstrom), charge = 0, multiplicity = 1:

       Center              X                  Y                   Z               Mass
    ------------   -----------------  -----------------  -----------------  -----------------
         O           -2.522051835578    -0.505843164829     0.025037967692    15.994914619570
         O           -0.091235835578    -1.453720164829     0.168383967692    15.994914619570
         N            0.925025164422     0.413608835171    -0.648914032308    14.003074004430
         C           -1.515652835578     0.410836835171    -0.346635032308    12.000000000000
         C            2.250393164422    -0.172153864829    -0.505585532308    12.000000000000
         C           -0.130647535578    -0.324863164829    -0.237697732308    12.000000000000
         C           -1.585390835578     1.631554835171     0.562466967692    12.000000000000
         C            2.852208164422     0.073909835171     0.866599967692    12.000000000000
         H           -1.667847835578     0.718450835171    -1.393531032308     1.007825032230
         H            2.203596164422    -1.194934164829    -0.755889032308     1.007825032230
         H            2.892568164422     0.343720835171    -1.290119032308     1.007825032230
         H            0.809233164422     1.385097835171    -0.905710032308     1.007825032230
         H           -1.357360835578     1.334907835171     1.588754967692     1.007825032230
         H           -2.599191835578     2.034847835171     0.536164967692     1.007825032230
         H           -0.892808835578     2.421772835171     0.256278967692     1.007825032230
         H            2.903369164422     1.136883835171     1.116644967692     1.007825032230
         H            2.225223164422    -0.431920164829     1.604109967692     1.007825032230
         H            3.862260164422    -0.342204164829     0.925831967692     1.007825032230
         H           -2.033498835578    -1.334300164829     0.225770967692     1.007825032230

  Basis Set: AUG-CC-PVTZ
    Blend: AUG-CC-PVTZ
  Basis Set: (AUG-CC-PVTZ AUX)
    Blend: AUG-CC-PVTZ-JKFIT
	 Reference Energy          =    -400.0845351404431085 [Eh]
	 Singles Energy            =      -0.0000000000000000 [Eh]
	 Same-Spin Energy          =      -0.4013033115652453 [Eh]
	 Opposite-Spin Energy      =      -1.3061032547244253 [Eh]
	 Correlation Energy        =      -1.7074065662896707 [Eh]
	 Total Energy              =    -401.7919417067327572 [Eh]

	 ================> DF-SCS-MP2 Energies <==================
	-----------------------------------------------------------
	 SCS Same-Spin Scale       =       0.3333333333333333 [-]
	 SCS Opposite-Spin Scale   =       1.2000000000000000 [-]
	 SCS Same-Spin Energy      =      -0.1337677705217484 [Eh]
	 SCS Opposite-Spin Energy  =      -1.5673239056693105 [Eh]
	 SCS Correlation Energy    =      -1.7010916761910588 [Eh]
	 SCS Total Energy          =    -401.7856268166341920 [Eh]
	-----------------------------------------------------------

  Dipole Moment: [D]
     X:     3.1482      Y:     2.9497      Z:    -0.9723     Total:     4.4223

*** Psi4 exiting successfully. Buy a developer a beer!
