                               Psi4 1.3.2 release

  ==> Input File <==

--------------------------------------------------------------------------
#psi4
#
memory 32 gb

molecule  {
0 1
  O       -2.5211540    -0.5137840     0.0284240
  O       -0.0903380    -1.4616610     0.1717700
  N        0.9259230     0.4056680    -0.6455280
  C       -1.5147550     0.4028960    -0.3432490
  C        2.2711600    -0.1378510    -0.5222970
  C       -0.1973965    -0.2392755    -0.2568304
  C       -1.5844930     1.6236140     0.5658530
  C        2.8531060     0.0659690     0.8699860
  H       -1.6669500     0.7105100    -1.3901450
  H        2.2044940    -1.2028750    -0.7525030
  H        2.8934660     0.3357800    -1.2867330
  H        0.7584957     1.3724005    -0.8915753
  H       -1.3564630     1.3269670     1.5921410
  H       -2.5982940     2.0269070     0.5395510
  H       -0.8919110     2.4138320     0.2596650
  H        2.9042670     1.1289430     1.1200310
  H        2.2261210    -0.4398610     1.6074960
  H        3.8631580    -0.3501450     0.9292180
  H       -2.0326010    -1.3422410     0.2291570
units angstrom
no_reorient  #important for SAPT in psi4, default
symmetry c1  #important for SAPT in psi4, default
}

set PROPERTIES_ORIGIN ["COM"]
properties('MP2/aug-cc-pvtz', properties = ['dipole'])
--------------------------------------------------------------------------

    Molecular point group: c1
  Charge       = 0
  Multiplicity = 1
  Basis Set: AUG-CC-PVTZ
    Blend: AUG-CC-PVTZ
  Basis Set: (AUG-CC-PVTZ AUX)
    Blend: AUG-CC-PVTZ-JKFIT

    Orbital Energies [Eh]
    ---------------------

    Doubly Occupied:

       1A    -20.550862     2A    -20.524186     3A    -15.603840
       4A    -11.362740     5A    -11.301116     6A    -11.276941
       7A    -11.236014     8A    -11.224699     9A     -1.381943
      10A     -1.335114    11A     -1.238803    12A     -1.064086
      13A     -1.017216    14A     -0.912752    15A     -0.857324
      16A     -0.786622    17A     -0.748528    18A     -0.680619
      19A     -0.654786    20A     -0.633449    21A     -0.611306
      22A     -0.591986    23A     -0.572909    24A     -0.566740
      25A     -0.545796    26A     -0.536510    27A     -0.513236
      28A     -0.511600    29A     -0.499330    30A     -0.447855
      31A     -0.437232    32A     -0.399221

  @DF-RHF Final Energy:  -400.07429331055602

   => Energetics <=

    Nuclear Repulsion Energy =            400.3112193028391630
    One-Electron Energy =               -1339.5203051230780602
    Two-Electron Energy =                 539.1347925096829385
    Total Energy =                       -400.0742933105559587
  Basis Set: (AUG-CC-PVTZ AUX)
    Blend: AUG-CC-PVTZ-RI
    Molecular point group: c1

    Geometry (in Angstrom), charge = 0, multiplicity = 1:

       Center              X                  Y                   Z               Mass
    ------------   -----------------  -----------------  -----------------  -----------------
         O           -2.516710373298    -0.519718180649     0.029313385850    15.994914619570
         O           -0.085894373298    -1.467595180649     0.172659385850    15.994914619570
         N            0.930366626702     0.399733819351    -0.644638614150    14.003074004430
         C           -1.510311373298     0.396961819351    -0.342359614150    12.000000000000
         C            2.275603626702    -0.143785180649    -0.521407614150    12.000000000000
         C           -0.192952873298    -0.245209680649    -0.255941014150    12.000000000000
         C           -1.580049373298     1.617679819351     0.566742385850    12.000000000000
         C            2.857549626702     0.060034819351     0.870875385850    12.000000000000
         H           -1.662506373298     0.704575819351    -1.389255614150     1.007825032230
         H            2.208937626702    -1.208809180649    -0.751613614150     1.007825032230
         H            2.897909626702     0.329845819351    -1.285843614150     1.007825032230
         H            0.762939326702     1.366466319351    -0.890685914150     1.007825032230
         H           -1.352019373298     1.321032819351     1.593030385850     1.007825032230
         H           -2.593850373298     2.020972819351     0.540440385850     1.007825032230
         H           -0.887467373298     2.407897819351     0.260554385850     1.007825032230
         H            2.908710626702     1.123008819351     1.120920385850     1.007825032230
         H            2.230564626702    -0.445795180649     1.608385385850     1.007825032230
         H            3.867601626702    -0.356079180649     0.930107385850     1.007825032230
         H           -2.028157373298    -1.348175180649     0.230046385850     1.007825032230

  Basis Set: AUG-CC-PVTZ
    Blend: AUG-CC-PVTZ
  Basis Set: (AUG-CC-PVTZ AUX)
    Blend: AUG-CC-PVTZ-JKFIT
	 Reference Energy          =    -400.0742933105560155 [Eh]
	 Singles Energy            =      -0.0000000000000000 [Eh]
	 Same-Spin Energy          =      -0.4038814427419607 [Eh]
	 Opposite-Spin Energy      =      -1.3109799348373263 [Eh]
	 Correlation Energy        =      -1.7148613775792869 [Eh]
	 Total Energy              =    -401.7891546881352838 [Eh]

	 ================> DF-SCS-MP2 Energies <==================
	-----------------------------------------------------------
	 SCS Same-Spin Scale       =       0.3333333333333333 [-]
	 SCS Opposite-Spin Scale   =       1.2000000000000000 [-]
	 SCS Same-Spin Energy      =      -0.1346271475806536 [Eh]
	 SCS Opposite-Spin Energy  =      -1.5731759218047916 [Eh]
	 SCS Correlation Energy    =      -1.7078030693854451 [Eh]
	 SCS Total Energy          =    -401.7820963799414358 [Eh]
	-----------------------------------------------------------

  Dipole Moment: [D]
     X:     3.0014      Y:     3.4533      Z:    -1.0887     Total:     4.7031

*** Psi4 exiting successfully. Buy a developer a beer!
