                               Psi4 1.3.2 release

  ==> Input File <==

--------------------------------------------------------------------------
#psi4
#
memory 32 gb

molecule  {
0 1
  O       -2.5211540    -0.5137840     0.0284240
  O       -0.0903380    -1.4616610     0.1717700
  N        0.9259230     0.4056680    -0.6455280
  C       -1.5274322     0.4340243    -0.3844641
  C        2.2711600    -0.1378510    -0.5222970
  C       -0.1583790    -0.2975740    -0.2472510
  C       -1.5844930     1.6236140     0.5658530
  C        2.8531060     0.0659690     0.8699860
  H       -1.6669500     0.7105100    -1.3901450
  H        2.2044940    -1.2028750    -0.7525030
  H        2.8934660     0.3357800    -1.2867330
  H        0.8101310     1.3771570    -0.9023240
  H       -1.3612674     1.3632071     1.6029753
  H       -2.5982940     2.0269070     0.5395510
  H       -0.8919110     2.4138320     0.2596650
  H        2.9042670     1.1289430     1.1200310
  H        2.2261210    -0.4398610     1.6074960
  H        3.8631580    -0.3501450     0.9292180
  H       -2.0326010    -1.3422410     0.2291570
units angstrom
no_reorient  #important for SAPT in psi4, default
symmetry c1  #important for SAPT in psi4, default
}

set PROPERTIES_ORIGIN ["COM"]
properties('MP2/aug-cc-pvtz', properties = ['dipole'])
--------------------------------------------------------------------------

    Molecular point group: c1
  Charge       = 0
  Multiplicity = 1
  Basis Set: AUG-CC-PVTZ
    Blend: AUG-CC-PVTZ
  Basis Set: (AUG-CC-PVTZ AUX)
    Blend: AUG-CC-PVTZ-JKFIT

    Orbital Energies [Eh]
    ---------------------

    Doubly Occupied:

       1A    -20.545117     2A    -20.533771     3A    -15.598440
       4A    -11.359887     5A    -11.298007     6A    -11.273343
       7A    -11.231878     8A    -11.224185     9A     -1.394933
      10A     -1.338142    11A     -1.245652    12A     -1.052370
      13A     -1.013247    14A     -0.901440    15A     -0.851047
      16A     -0.795323    17A     -0.739985    18A     -0.677655
      19A     -0.650820    20A     -0.640629    21A     -0.610209
      22A     -0.598899    23A     -0.576393    24A     -0.562869
      25A     -0.540877    26A     -0.536511    27A     -0.520860
      28A     -0.510966    29A     -0.501149    30A     -0.450521
      31A     -0.433024    32A     -0.403647

  @DF-RHF Final Energy:  -400.08409068422185

   => Energetics <=

    Nuclear Repulsion Energy =            399.6913574017502242
    One-Electron Energy =               -1338.3273052809263390
    Two-Electron Energy =                 538.5518571949543229
    Total Energy =                       -400.0840906842217919
  Basis Set: (AUG-CC-PVTZ AUX)
    Blend: AUG-CC-PVTZ-RI
    Molecular point group: c1

    Geometry (in Angstrom), charge = 0, multiplicity = 1:

       Center              X                  Y                   Z               Mass
    ------------   -----------------  -----------------  -----------------  -----------------
         O           -2.519813244178    -0.517286275249     0.032555147392    15.994914619570
         O           -0.088997244178    -1.465163275249     0.175901147392    15.994914619570
         N            0.927263755822     0.402165724751    -0.641396852608    14.003074004430
         C           -1.526091444178     0.430522024751    -0.380332952608    12.000000000000
         C            2.272500755822    -0.141353275249    -0.518165852608    12.000000000000
         C           -0.157038244178    -0.301076275249    -0.243119852608    12.000000000000
         C           -1.583152244178     1.620111724751     0.569984147392    12.000000000000
         C            2.854446755822     0.062466724751     0.874117147392    12.000000000000
         H           -1.665609244178     0.707007724751    -1.386013852608     1.007825032230
         H            2.205834755822    -1.206377275249    -0.748371852608     1.007825032230
         H            2.894806755822     0.332277724751    -1.282601852608     1.007825032230
         H            0.811471755822     1.373654724751    -0.898192852608     1.007825032230
         H           -1.359926644178     1.359704824751     1.607106447392     1.007825032230
         H           -2.596953244178     2.023404724751     0.543682147392     1.007825032230
         H           -0.890570244178     2.410329724751     0.263796147392     1.007825032230
         H            2.905607755822     1.125440724751     1.124162147392     1.007825032230
         H            2.227461755822    -0.443363275249     1.611627147392     1.007825032230
         H            3.864498755822    -0.353647275249     0.933349147392     1.007825032230
         H           -2.031260244178    -1.345743275249     0.233288147392     1.007825032230

  Basis Set: AUG-CC-PVTZ
    Blend: AUG-CC-PVTZ
  Basis Set: (AUG-CC-PVTZ AUX)
    Blend: AUG-CC-PVTZ-JKFIT
	 Reference Energy          =    -400.0840906842218487 [Eh]
	 Singles Energy            =      -0.0000000000000000 [Eh]
	 Same-Spin Energy          =      -0.4020333362313165 [Eh]
	 Opposite-Spin Energy      =      -1.3079752060461636 [Eh]
	 Correlation Energy        =      -1.7100085422774800 [Eh]
	 Total Energy              =    -401.7940992264993270 [Eh]

	 ================> DF-SCS-MP2 Energies <==================
	-----------------------------------------------------------
	 SCS Same-Spin Scale       =       0.3333333333333333 [-]
	 SCS Opposite-Spin Scale   =       1.2000000000000000 [-]
	 SCS Same-Spin Energy      =      -0.1340111120771055 [Eh]
	 SCS Opposite-Spin Energy  =      -1.5695702472553963 [Eh]
	 SCS Correlation Energy    =      -1.7035813593325018 [Eh]
	 SCS Total Energy          =    -401.7876720435543234 [Eh]
	-----------------------------------------------------------

  Dipole Moment: [D]
     X:     3.1459      Y:     3.2331      Z:    -1.0975     Total:     4.6426

*** Psi4 exiting successfully. Buy a developer a beer!
