                               Psi4 1.3.2 release

  ==> Input File <==

--------------------------------------------------------------------------
#psi4
#
memory 32 gb

molecule  {
0 1
  O       -2.5038625    -0.5309154     0.0321767
  O       -0.0903380    -1.4616610     0.1717700
  N        0.9259230     0.4056680    -0.6455280
  C       -1.5147550     0.4028960    -0.3432490
  C        2.2711600    -0.1378510    -0.5222970
  C       -0.1707181    -0.3198669    -0.2392857
  C       -1.5844930     1.6236140     0.5658530
  C        2.8531060     0.0659690     0.8699860
  H       -1.6669500     0.7105100    -1.3901450
  H        2.2044940    -1.2028750    -0.7525030
  H        2.8934660     0.3357800    -1.2867330
  H        0.8101310     1.3771570    -0.9023240
  H       -1.3564630     1.3269670     1.5921410
  H       -2.5982940     2.0269070     0.5395510
  H       -0.8919110     2.4138320     0.2596650
  H        2.9042670     1.1289430     1.1200310
  H        2.2261210    -0.4398610     1.6074960
  H        3.8631580    -0.3501450     0.9292180
  H       -2.0326010    -1.3422410     0.2291570
units angstrom
no_reorient  #important for SAPT in psi4, default
symmetry c1  #important for SAPT in psi4, default
}

set PROPERTIES_ORIGIN ["COM"]
properties('MP2/aug-cc-pvtz', properties = ['dipole'])
--------------------------------------------------------------------------

    Molecular point group: c1
  Charge       = 0
  Multiplicity = 1
  Basis Set: AUG-CC-PVTZ
    Blend: AUG-CC-PVTZ
  Basis Set: (AUG-CC-PVTZ AUX)
    Blend: AUG-CC-PVTZ-JKFIT

    Orbital Energies [Eh]
    ---------------------

    Doubly Occupied:

       1A    -20.546875     2A    -20.538483     3A    -15.592946
       4A    -11.358944     5A    -11.298754     6A    -11.270822
       7A    -11.232109     8A    -11.222492     9A     -1.411308
      10A     -1.353623    11A     -1.238862    12A     -1.051772
      13A     -1.010789    14A     -0.901658    15A     -0.847887
      16A     -0.789226    17A     -0.747882    18A     -0.679724
      19A     -0.647801    20A     -0.647375    21A     -0.610410
      22A     -0.599407    23A     -0.578019    24A     -0.563670
      25A     -0.543520    26A     -0.535267    27A     -0.524265
      28A     -0.518060    29A     -0.501607    30A     -0.448065
      31A     -0.437322    32A     -0.400927

  @DF-RHF Final Energy:  -400.08917833701724

   => Energetics <=

    Nuclear Repulsion Energy =            400.7887243018807908
    One-Electron Energy =               -1340.4560688174874485
    Two-Electron Energy =                 539.5781661785892993
    Total Energy =                       -400.0891783370173016
  Basis Set: (AUG-CC-PVTZ AUX)
    Blend: AUG-CC-PVTZ-RI
    Molecular point group: c1

    Geometry (in Angstrom), charge = 0, multiplicity = 1:

       Center              X                  Y                   Z               Mass
    ------------   -----------------  -----------------  -----------------  -----------------
         O           -2.504960057735    -0.526289885174     0.030847688403    15.994914619570
         O           -0.091435557735    -1.457035485174     0.170440988403    15.994914619570
         N            0.924825442265     0.410293514826    -0.646857011597    14.003074004430
         C           -1.515852557735     0.407521514826    -0.344578011597    12.000000000000
         C            2.270062442265    -0.133225485174    -0.523626011597    12.000000000000
         C           -0.171815657735    -0.315241385174    -0.240614711597    12.000000000000
         C           -1.585590557735     1.628239514826     0.564523988403    12.000000000000
         C            2.852008442265     0.070594514826     0.868656988403    12.000000000000
         H           -1.668047557735     0.715135514826    -1.391474011597     1.007825032230
         H            2.203396442265    -1.198249485174    -0.753832011597     1.007825032230
         H            2.892368442265     0.340405514826    -1.288062011597     1.007825032230
         H            0.809033442265     1.381782514826    -0.903653011597     1.007825032230
         H           -1.357560557735     1.331592514826     1.590811988403     1.007825032230
         H           -2.599391557735     2.031532514826     0.538221988403     1.007825032230
         H           -0.893008557735     2.418457514826     0.258335988403     1.007825032230
         H            2.903169442265     1.133568514826     1.118701988403     1.007825032230
         H            2.225023442265    -0.435235485174     1.606166988403     1.007825032230
         H            3.862060442265    -0.345519485174     0.927888988403     1.007825032230
         H           -2.033698557735    -1.337615485174     0.227827988403     1.007825032230

  Basis Set: AUG-CC-PVTZ
    Blend: AUG-CC-PVTZ
  Basis Set: (AUG-CC-PVTZ AUX)
    Blend: AUG-CC-PVTZ-JKFIT
	 Reference Energy          =    -400.0891783370172448 [Eh]
	 Singles Energy            =      -0.0000000000000000 [Eh]
	 Same-Spin Energy          =      -0.4013220869089714 [Eh]
	 Opposite-Spin Energy      =      -1.3060759658027685 [Eh]
	 Correlation Energy        =      -1.7073980527117398 [Eh]
	 Total Energy              =    -401.7965763897290117 [Eh]

	 ================> DF-SCS-MP2 Energies <==================
	-----------------------------------------------------------
	 SCS Same-Spin Scale       =       0.3333333333333333 [-]
	 SCS Opposite-Spin Scale   =       1.2000000000000000 [-]
	 SCS Same-Spin Energy      =      -0.1337740289696571 [Eh]
	 SCS Opposite-Spin Energy  =      -1.5672911589633223 [Eh]
	 SCS Correlation Energy    =      -1.7010651879329795 [Eh]
	 SCS Total Energy          =    -401.7902435249501991 [Eh]
	-----------------------------------------------------------

  Dipole Moment: [D]
     X:     2.8975      Y:     3.0641      Z:    -0.9885     Total:     4.3315

*** Psi4 exiting successfully. Buy a developer a beer!
