                               Psi4 1.3.2 release

  ==> Input File <==

--------------------------------------------------------------------------
#psi4
#
memory 32 gb

molecule  {
0 1
  O       -2.5211540    -0.5137840     0.0284240
  O       -0.0903380    -1.4616610     0.1717700
  N        0.9259230     0.4056680    -0.6455280
  C       -1.5147550     0.4028960    -0.3432490
  C        2.3635456    -0.1751777    -0.5138340
  C       -0.1583790    -0.2975740    -0.2472510
  C       -1.5844930     1.6236140     0.5658530
  C        2.8531060     0.0659690     0.8699860
  H       -1.6669500     0.7105100    -1.3901450
  H        2.2044940    -1.2028750    -0.7525030
  H        2.8934660     0.3357800    -1.2867330
  H        0.8101310     1.3771570    -0.9023240
  H       -1.3564630     1.3269670     1.5921410
  H       -2.5982940     2.0269070     0.5395510
  H       -0.8919110     2.4138320     0.2596650
  H        2.9042670     1.1289430     1.1200310
  H        2.2261210    -0.4398610     1.6074960
  H        3.8631580    -0.3501450     0.9292180
  H       -2.0326010    -1.3422410     0.2291570
units angstrom
no_reorient  #important for SAPT in psi4, default
symmetry c1  #important for SAPT in psi4, default
}

set PROPERTIES_ORIGIN ["COM"]
properties('MP2/aug-cc-pvtz', properties = ['dipole'])
--------------------------------------------------------------------------

    Molecular point group: c1
  Charge       = 0
  Multiplicity = 1
  Basis Set: AUG-CC-PVTZ
    Blend: AUG-CC-PVTZ
  Basis Set: (AUG-CC-PVTZ AUX)
    Blend: AUG-CC-PVTZ-JKFIT

    Orbital Energies [Eh]
    ---------------------

    Doubly Occupied:

       1A    -20.545834     2A    -20.528757     3A    -15.592362
       4A    -11.354553     5A    -11.294969     6A    -11.278944
       7A    -11.228943     8A    -11.227416     9A     -1.393356
      10A     -1.343042    11A     -1.225929    12A     -1.055581
      13A     -1.017687    14A     -0.896941    15A     -0.851555
      16A     -0.785226    17A     -0.740925    18A     -0.670806
      19A     -0.643342    20A     -0.636776    21A     -0.616871
      22A     -0.596839    23A     -0.573872    24A     -0.563179
      25A     -0.541094    26A     -0.536161    27A     -0.527084
      28A     -0.514399    29A     -0.504662    30A     -0.443404
      31A     -0.430647    32A     -0.402825

  @DF-RHF Final Energy:  -400.07978457338442

   => Energetics <=

    Nuclear Repulsion Energy =            399.0611273223943272
    One-Electron Energy =               -1337.1538637283522348
    Two-Electron Energy =                 538.0129518325735489
    Total Energy =                       -400.0797845733843587
  Basis Set: (AUG-CC-PVTZ AUX)
    Blend: AUG-CC-PVTZ-RI
    Molecular point group: c1

    Geometry (in Angstrom), charge = 0, multiplicity = 1:

       Center              X                  Y                   Z               Mass
    ------------   -----------------  -----------------  -----------------  -----------------
         O           -2.530623003622    -0.509958028196     0.027556657242    15.994914619570
         O           -0.099807003622    -1.457835028196     0.170902657242    15.994914619570
         N            0.916453996378     0.409493971804    -0.646395342758    14.003074004430
         C           -1.524224003622     0.406721971804    -0.344116342758    12.000000000000
         C            2.354076596378    -0.171351728196    -0.514701342758    12.000000000000
         C           -0.167848003622    -0.293748028196    -0.248118342758    12.000000000000
         C           -1.593962003622     1.627439971804     0.564985657242    12.000000000000
         C            2.843636996378     0.069794971804     0.869118657242    12.000000000000
         H           -1.676419003622     0.714335971804    -1.391012342758     1.007825032230
         H            2.195024996378    -1.199049028196    -0.753370342758     1.007825032230
         H            2.883996996378     0.339605971804    -1.287600342758     1.007825032230
         H            0.800661996378     1.380982971804    -0.903191342758     1.007825032230
         H           -1.365932003622     1.330792971804     1.591273657242     1.007825032230
         H           -2.607763003622     2.030732971804     0.538683657242     1.007825032230
         H           -0.901380003622     2.417657971804     0.258797657242     1.007825032230
         H            2.894797996378     1.132768971804     1.119163657242     1.007825032230
         H            2.216651996378    -0.436035028196     1.606628657242     1.007825032230
         H            3.853688996378    -0.346319028196     0.928350657242     1.007825032230
         H           -2.042070003622    -1.338415028196     0.228289657242     1.007825032230

  Basis Set: AUG-CC-PVTZ
    Blend: AUG-CC-PVTZ
  Basis Set: (AUG-CC-PVTZ AUX)
    Blend: AUG-CC-PVTZ-JKFIT
	 Reference Energy          =    -400.0797845733844156 [Eh]
	 Singles Energy            =      -0.0000000000000000 [Eh]
	 Same-Spin Energy          =      -0.4020491504612278 [Eh]
	 Opposite-Spin Energy      =      -1.3081773023021481 [Eh]
	 Correlation Energy        =      -1.7102264527633759 [Eh]
	 Total Energy              =    -401.7900110261477948 [Eh]

	 ================> DF-SCS-MP2 Energies <==================
	-----------------------------------------------------------
	 SCS Same-Spin Scale       =       0.3333333333333333 [-]
	 SCS Opposite-Spin Scale   =       1.2000000000000000 [-]
	 SCS Same-Spin Energy      =      -0.1340163834870759 [Eh]
	 SCS Opposite-Spin Energy  =      -1.5698127627625778 [Eh]
	 SCS Correlation Energy    =      -1.7038291462496538 [Eh]
	 SCS Total Energy          =    -401.7836137196340474 [Eh]
	-----------------------------------------------------------

  Dipole Moment: [D]
     X:     3.4407      Y:     3.1370      Z:    -0.9948     Total:     4.7612

*** Psi4 exiting successfully. Buy a developer a beer!
