                               Psi4 1.3.2 release

  ==> Input File <==

--------------------------------------------------------------------------
#psi4
#
memory 32 gb

molecule  {
0 1
  O       -2.5211540    -0.5137840     0.0284240
  O       -0.0903380    -1.4616610     0.1717700
  N        0.9259230     0.4056680    -0.6455280
  C       -1.5320215     0.4201094    -0.3467318
  C        2.2711600    -0.1378510    -0.5222970
  C       -0.1583790    -0.2975740    -0.2472510
  C       -1.5844930     1.6236140     0.5658530
  C        2.8531060     0.0659690     0.8699860
  H       -1.6669500     0.7105100    -1.3901450
  H        2.2044940    -1.2028750    -0.7525030
  H        2.8934660     0.3357800    -1.2867330
  H        0.8101310     1.3771570    -0.9023240
  H       -1.3564630     1.3269670     1.5921410
  H       -2.5982940     2.0269070     0.5395510
  H       -0.8919110     2.4138320     0.2596650
  H        2.9042670     1.1289430     1.1200310
  H        2.2261210    -0.4398610     1.6074960
  H        3.8631580    -0.3501450     0.9292180
  H       -2.0474681    -1.3499253     0.2328944
units angstrom
no_reorient  #important for SAPT in psi4, default
symmetry c1  #important for SAPT in psi4, default
}

set PROPERTIES_ORIGIN ["COM"]
properties('MP2/aug-cc-pvtz', properties = ['dipole'])
--------------------------------------------------------------------------

    Molecular point group: c1
  Charge       = 0
  Multiplicity = 1
  Basis Set: AUG-CC-PVTZ
    Blend: AUG-CC-PVTZ
  Basis Set: (AUG-CC-PVTZ AUX)
    Blend: AUG-CC-PVTZ-JKFIT

    Orbital Energies [Eh]
    ---------------------

    Doubly Occupied:

       1A    -20.547672     2A    -20.532728     3A    -15.598122
       4A    -11.358667     5A    -11.298543     6A    -11.273251
       7A    -11.230828     8A    -11.224055     9A     -1.396298
      10A     -1.345740    11A     -1.245021    12A     -1.052689
      13A     -1.014138    14A     -0.900480    15A     -0.848754
      16A     -0.794015    17A     -0.742299    18A     -0.677627
      19A     -0.650275    20A     -0.641480    21A     -0.610527
      22A     -0.598914    23A     -0.578714    24A     -0.563663
      25A     -0.542830    26A     -0.535588    27A     -0.520757
      28A     -0.512026    29A     -0.501814    30A     -0.448504
      31A     -0.432064    32A     -0.402970

  @DF-RHF Final Energy:  -400.08735305738855

   => Energetics <=

    Nuclear Repulsion Energy =            400.1114729317284855
    One-Electron Energy =               -1339.1555467746977683
    Two-Electron Energy =                 538.9567207855807283
    Total Energy =                       -400.0873530573885546
  Basis Set: (AUG-CC-PVTZ AUX)
    Blend: AUG-CC-PVTZ-RI
    Molecular point group: c1

    Geometry (in Angstrom), charge = 0, multiplicity = 1:

       Center              X                  Y                   Z               Mass
    ------------   -----------------  -----------------  -----------------  -----------------
         O           -2.519256243752    -0.515481964071     0.028748869170    15.994914619570
         O           -0.088440243752    -1.463358964071     0.172094869170    15.994914619570
         N            0.927820756248     0.403970035929    -0.645203130830    14.003074004430
         C           -1.530123743752     0.418411435929    -0.346406930830    12.000000000000
         C            2.273057756248    -0.139548964071    -0.521972130830    12.000000000000
         C           -0.156481243752    -0.299271964071    -0.246926130830    12.000000000000
         C           -1.582595243752     1.621916035929     0.566177869170    12.000000000000
         C            2.855003756248     0.064271035929     0.870310869170    12.000000000000
         H           -1.665052243752     0.708812035929    -1.389820130830     1.007825032230
         H            2.206391756248    -1.204572964071    -0.752178130830     1.007825032230
         H            2.895363756248     0.334082035929    -1.286408130830     1.007825032230
         H            0.812028756248     1.375459035929    -0.901999130830     1.007825032230
         H           -1.354565243752     1.325269035929     1.592465869170     1.007825032230
         H           -2.596396243752     2.025209035929     0.539875869170     1.007825032230
         H           -0.890013243752     2.412134035929     0.259989869170     1.007825032230
         H            2.906164756248     1.127245035929     1.120355869170     1.007825032230
         H            2.228018756248    -0.441558964071     1.607820869170     1.007825032230
         H            3.865055756248    -0.351842964071     0.929542869170     1.007825032230
         H           -2.045570343752    -1.351623264071     0.233219269170     1.007825032230

  Basis Set: AUG-CC-PVTZ
    Blend: AUG-CC-PVTZ
  Basis Set: (AUG-CC-PVTZ AUX)
    Blend: AUG-CC-PVTZ-JKFIT
	 Reference Energy          =    -400.0873530573885546 [Eh]
	 Singles Energy            =      -0.0000000000000000 [Eh]
	 Same-Spin Energy          =      -0.4020232969432778 [Eh]
	 Opposite-Spin Energy      =      -1.3074851439616877 [Eh]
	 Correlation Energy        =      -1.7095084409049655 [Eh]
	 Total Energy              =    -401.7968614982935378 [Eh]

	 ================> DF-SCS-MP2 Energies <==================
	-----------------------------------------------------------
	 SCS Same-Spin Scale       =       0.3333333333333333 [-]
	 SCS Opposite-Spin Scale   =       1.2000000000000000 [-]
	 SCS Same-Spin Energy      =      -0.1340077656477592 [Eh]
	 SCS Opposite-Spin Energy  =      -1.5689821727540252 [Eh]
	 SCS Correlation Energy    =      -1.7029899384017844 [Eh]
	 SCS Total Energy          =    -401.7903429957903541 [Eh]
	-----------------------------------------------------------

  Dipole Moment: [D]
     X:     3.0724      Y:     3.1764      Z:    -1.0403     Total:     4.5400

*** Psi4 exiting successfully. Buy a developer a beer!
