                               Psi4 1.3.2 release

  ==> Input File <==

--------------------------------------------------------------------------
#psi4
#
memory 32 gb

molecule  {
0 1
  O       -2.5211540    -0.5137840     0.0284240
  O       -0.0796226    -1.4615028     0.1703299
  N        0.9327904     0.3964065    -0.6430101
  C       -1.5147550     0.4028960    -0.3432490
  C        2.2711600    -0.1378510    -0.5222970
  C       -0.1583790    -0.2975740    -0.2472510
  C       -1.5844930     1.6236140     0.5658530
  C        2.8531060     0.0659690     0.8699860
  H       -1.6669500     0.7105100    -1.3901450
  H        2.2044940    -1.2028750    -0.7525030
  H        2.8934660     0.3357800    -1.2867330
  H        0.8101310     1.3771570    -0.9023240
  H       -1.3564630     1.3269670     1.5921410
  H       -2.5982940     2.0269070     0.5395510
  H       -0.8919110     2.4138320     0.2596650
  H        2.9042670     1.1289430     1.1200310
  H        2.2261210    -0.4398610     1.6074960
  H        3.8631580    -0.3501450     0.9292180
  H       -2.0326010    -1.3422410     0.2291570
units angstrom
no_reorient  #important for SAPT in psi4, default
symmetry c1  #important for SAPT in psi4, default
}

set PROPERTIES_ORIGIN ["COM"]
properties('MP2/aug-cc-pvtz', properties = ['dipole'])
--------------------------------------------------------------------------

    Molecular point group: c1
  Charge       = 0
  Multiplicity = 1
  Basis Set: AUG-CC-PVTZ
    Blend: AUG-CC-PVTZ
  Basis Set: (AUG-CC-PVTZ AUX)
    Blend: AUG-CC-PVTZ-JKFIT

    Orbital Energies [Eh]
    ---------------------

    Doubly Occupied:

       1A    -20.549611     2A    -20.532783     3A    -15.598678
       4A    -11.359014     5A    -11.299457     6A    -11.272446
       7A    -11.231966     8A    -11.223659     9A     -1.398543
      10A     -1.347844    11A     -1.245616    12A     -1.053439
      13A     -1.012671    14A     -0.903715    15A     -0.849838
      16A     -0.791073    17A     -0.744866    18A     -0.677809
      19A     -0.650636    20A     -0.642138    21A     -0.611294
      22A     -0.597836    23A     -0.576393    24A     -0.563900
      25A     -0.544033    26A     -0.535220    27A     -0.520661
      28A     -0.515689    29A     -0.501885    30A     -0.446787
      31A     -0.436505    32A     -0.402083

  @DF-RHF Final Energy:  -400.08726294352152

   => Energetics <=

    Nuclear Repulsion Energy =            400.5283544596514389
    One-Electron Energy =               -1339.9550599159042577
    Two-Electron Energy =                 539.3394425127313525
    Total Energy =                       -400.0872629435215231
  Basis Set: (AUG-CC-PVTZ AUX)
    Blend: AUG-CC-PVTZ-RI
    Molecular point group: c1

    Geometry (in Angstrom), charge = 0, multiplicity = 1:

       Center              X                  Y                   Z               Mass
    ------------   -----------------  -----------------  -----------------  -----------------
         O           -2.523439215451    -0.512697728605     0.028319663015    15.994914619570
         O           -0.081907815451    -1.460416528605     0.170225563015    15.994914619570
         N            0.930505184549     0.397492771395    -0.643114436985    14.003074004430
         C           -1.517040215451     0.403982271395    -0.343353336985    12.000000000000
         C            2.268874784549    -0.136764728605    -0.522401336985    12.000000000000
         C           -0.160664215451    -0.296487728605    -0.247355336985    12.000000000000
         C           -1.586778215451     1.624700271395     0.565748663015    12.000000000000
         C            2.850820784549     0.067055271395     0.869881663015    12.000000000000
         H           -1.669235215451     0.711596271395    -1.390249336985     1.007825032230
         H            2.202208784549    -1.201788728605    -0.752607336985     1.007825032230
         H            2.891180784549     0.336866271395    -1.286837336985     1.007825032230
         H            0.807845784549     1.378243271395    -0.902428336985     1.007825032230
         H           -1.358748215451     1.328053271395     1.592036663015     1.007825032230
         H           -2.600579215451     2.027993271395     0.539446663015     1.007825032230
         H           -0.894196215451     2.414918271395     0.259560663015     1.007825032230
         H            2.901981784549     1.130029271395     1.119926663015     1.007825032230
         H            2.223835784549    -0.438774728605     1.607391663015     1.007825032230
         H            3.860872784549    -0.349058728605     0.929113663015     1.007825032230
         H           -2.034886215451    -1.341154728605     0.229052663015     1.007825032230

  Basis Set: AUG-CC-PVTZ
    Blend: AUG-CC-PVTZ
  Basis Set: (AUG-CC-PVTZ AUX)
    Blend: AUG-CC-PVTZ-JKFIT
	 Reference Energy          =    -400.0872629435215231 [Eh]
	 Singles Energy            =      -0.0000000000000000 [Eh]
	 Same-Spin Energy          =      -0.4022296632848638 [Eh]
	 Opposite-Spin Energy      =      -1.3077831757644824 [Eh]
	 Correlation Energy        =      -1.7100128390493463 [Eh]
	 Total Energy              =    -401.7972757825708641 [Eh]

	 ================> DF-SCS-MP2 Energies <==================
	-----------------------------------------------------------
	 SCS Same-Spin Scale       =       0.3333333333333333 [-]
	 SCS Opposite-Spin Scale   =       1.2000000000000000 [-]
	 SCS Same-Spin Energy      =      -0.1340765544282879 [Eh]
	 SCS Opposite-Spin Energy  =      -1.5693398109173788 [Eh]
	 SCS Correlation Energy    =      -1.7034163653456669 [Eh]
	 SCS Total Energy          =    -401.7906793088671975 [Eh]
	-----------------------------------------------------------

  Dipole Moment: [D]
     X:     3.0308      Y:     3.1908      Z:    -1.0470     Total:     4.5236

*** Psi4 exiting successfully. Buy a developer a beer!
