                               Psi4 1.4a3.dev225

  ==> Input File <==

--------------------------------------------------------------------------
#psi4
#
memory 32 gb

molecule  {
0 1
  O       -1.5707600    -1.5123310    -0.2332890
  O        0.1382410     1.6075510    -0.3059650
  N        0.6999210    -0.4896500     0.4239600
  C       -1.5447722    -0.0438500    -0.4432509
  C        2.0783650    -0.1398720     0.7271540
  C       -0.1470270     0.4197650    -0.1121660
  C       -2.5680410     0.6261290     0.4306590
  C        2.9727550    -0.1683320    -0.5071050
  H       -1.7217520     0.1422920    -1.4952760
  H        2.0695770     0.8628690     1.1612900
  H        2.4371510    -0.8367210     1.4904630
  H        0.3848370    -1.4513440     0.4597870
  H       -2.3944150     0.3774590     1.4809910
  H       -3.5869010     0.3276930     0.1608950
  H       -2.4702460     1.7050790     0.2962630
  H        2.9788310    -1.1637080    -0.9596270
  H        2.6039680     0.5505970    -1.2414500
  H        4.0012360     0.0983730    -0.2444710
  H       -2.4840080    -1.8129070    -0.3767550
units angstrom
no_reorient  #important for SAPT in psi4, default
symmetry c1  #important for SAPT in psi4, default
}

set PROPERTIES_ORIGIN ["COM"]
properties('MP2/aug-cc-pvtz', properties = ['dipole'])
--------------------------------------------------------------------------

    Molecular point group: c1
  Charge       = 0
  Multiplicity = 1
  Basis Set: AUG-CC-PVTZ
    Blend: AUG-CC-PVTZ
  Basis Set: (AUG-CC-PVTZ AUX)
    Blend: AUG-CC-PVTZ-JKFIT

    Orbital Energies [Eh]
    ---------------------

    Doubly Occupied:

       1A    -20.574998     2A    -20.510957     3A    -15.579152
       4A    -11.344545     5A    -11.302312     6A    -11.260490
       7A    -11.230646     8A    -11.212338     9A     -1.377859
      10A     -1.353292    11A     -1.225548    12A     -1.051131
      13A     -1.011642    14A     -0.903862    15A     -0.844409
      16A     -0.776169    17A     -0.716962    18A     -0.688125
      19A     -0.639467    20A     -0.633380    21A     -0.610036
      22A     -0.588855    23A     -0.583059    24A     -0.559689
      25A     -0.540773    26A     -0.522038    27A     -0.518132
      28A     -0.508400    29A     -0.490396    30A     -0.466646
      31A     -0.418442    32A     -0.384744

  @DF-RHF Final Energy:  -400.08499386775253

   => Energetics <=

    Nuclear Repulsion Energy =            399.7691441737592868
    One-Electron Energy =               -1338.8512878045969501
    Two-Electron Energy =                 538.9971497630850763
    Total Energy =                       -400.0849938677525870
  Basis Set: (AUG-CC-PVTZ AUX)
    Blend: AUG-CC-PVTZ-RI
    Molecular point group: c1

    Geometry (in Angstrom), charge = 0, multiplicity = 1:

       Center              X                  Y                   Z               Mass
    ------------   -----------------  -----------------  -----------------  -----------------
         O           -1.555521484315    -1.527558328408    -0.226394111962    15.994914619570
         O            0.153479515685     1.592323671592    -0.299070111962    15.994914619570
         N            0.715159515685    -0.504877328408     0.430854888038    14.003074004430
         C           -1.529533684315    -0.059077328408    -0.436356011962    12.000000000000
         C            2.093603515685    -0.155099328408     0.734048888038    12.000000000000
         C           -0.131788484315     0.404537671592    -0.105271111962    12.000000000000
         C           -2.552802484315     0.610901671592     0.437553888038    12.000000000000
         C            2.987993515685    -0.183559328408    -0.500210111962    12.000000000000
         H           -1.706513484315     0.127064671592    -1.488381111962     1.007825032230
         H            2.084815515685     0.847641671592     1.168184888038     1.007825032230
         H            2.452389515685    -0.851948328408     1.497357888038     1.007825032230
         H            0.400075515685    -1.466571328408     0.466681888038     1.007825032230
         H           -2.379176484315     0.362231671592     1.487885888038     1.007825032230
         H           -3.571662484315     0.312465671592     0.167789888038     1.007825032230
         H           -2.455007484315     1.689851671592     0.303157888038     1.007825032230
         H            2.994069515685    -1.178935328408    -0.952732111962     1.007825032230
         H            2.619206515685     0.535369671592    -1.234555111962     1.007825032230
         H            4.016474515685     0.083145671592    -0.237576111962     1.007825032230
         H           -2.468769484315    -1.828134328408    -0.369860111962     1.007825032230

  Basis Set: AUG-CC-PVTZ
    Blend: AUG-CC-PVTZ
  Basis Set: (AUG-CC-PVTZ AUX)
    Blend: AUG-CC-PVTZ-JKFIT
	 Reference Energy          =    -400.0849938677525302 [Eh]
	 Singles Energy            =      -0.0000000000000000 [Eh]
	 Same-Spin Energy          =      -0.4017620847684020 [Eh]
	 Opposite-Spin Energy      =      -1.3082993659877893 [Eh]
	 Correlation Energy        =      -1.7100614507561913 [Eh]
	 Total Energy              =    -401.7950553185087301 [Eh]

	 ================> DF-SCS-MP2 Energies <==================
	-----------------------------------------------------------
	 SCS Same-Spin Scale       =       0.3333333333333333 [-]
	 SCS Opposite-Spin Scale   =       1.2000000000000000 [-]
	 SCS Same-Spin Energy      =      -0.1339206949228006 [Eh]
	 SCS Opposite-Spin Energy  =      -1.5699592391853472 [Eh]
	 SCS Correlation Energy    =      -1.7038799341081479 [Eh]
	 SCS Total Energy          =    -401.7888738018606887 [Eh]
	-----------------------------------------------------------

  Dipole Moment: [D]
     X:    -1.1479      Y:    -2.5821      Z:     0.4751     Total:     2.8654

*** Psi4 exiting successfully. Buy a developer a beer!
