                               Psi4 1.3.2 release

  ==> Input File <==

--------------------------------------------------------------------------
#psi4
#
memory 32 gb

molecule  {
0 1
  O       -2.5211540    -0.5137840     0.0284240
  O       -0.0903380    -1.4616610     0.1717700
  N        0.9259230     0.4056680    -0.6455280
  C       -1.5147550     0.4028960    -0.3432490
  C        2.2711600    -0.1378510    -0.5222970
  C       -0.1583790    -0.2975740    -0.2472510
  C       -1.5844930     1.6236140     0.5658530
  C        2.8531060     0.0659690     0.8699860
  H       -1.6945787     0.7663526    -1.5801930
  H        2.2044940    -1.2028750    -0.7525030
  H        2.8934660     0.3357800    -1.2867330
  H        0.8101310     1.3771570    -0.9023240
  H       -1.3564630     1.3269670     1.5921410
  H       -2.5982940     2.0269070     0.5395510
  H       -0.8919110     2.4138320     0.2596650
  H        2.9042670     1.1289430     1.1200310
  H        2.2261210    -0.4398610     1.6074960
  H        3.8631580    -0.3501450     0.9292180
  H       -2.0326010    -1.3422410     0.2291570
units angstrom
no_reorient  #important for SAPT in psi4, default
symmetry c1  #important for SAPT in psi4, default
}

set PROPERTIES_ORIGIN ["COM"]
properties('MP2/aug-cc-pvtz', properties = ['dipole'])
--------------------------------------------------------------------------

    Molecular point group: c1
  Charge       = 0
  Multiplicity = 1
  Basis Set: AUG-CC-PVTZ
    Blend: AUG-CC-PVTZ
  Basis Set: (AUG-CC-PVTZ AUX)
    Blend: AUG-CC-PVTZ-JKFIT

    Orbital Energies [Eh]
    ---------------------

    Doubly Occupied:

       1A    -20.553798     2A    -20.535125     3A    -15.598506
       4A    -11.361718     5A    -11.321172     6A    -11.273799
       7A    -11.234067     8A    -11.224506     9A     -1.400319
      10A     -1.349907    11A     -1.246013    12A     -1.050724
      13A     -1.012032    14A     -0.901928    15A     -0.844164
      16A     -0.792343    17A     -0.740915    18A     -0.671018
      19A     -0.645217    20A     -0.636908    21A     -0.610792
      22A     -0.599820    23A     -0.577809    24A     -0.564777
      25A     -0.545125    26A     -0.530251    27A     -0.521576
      28A     -0.514256    29A     -0.503026    30A     -0.442630
      31A     -0.431882    32A     -0.402429

  @DF-RHF Final Energy:  -400.06776818252376

   => Energetics <=

    Nuclear Repulsion Energy =            399.4685642856666732
    One-Electron Energy =               -1337.7955578249129758
    Two-Electron Energy =                 538.2592253567225953
    Total Energy =                       -400.0677681825237642
  Basis Set: (AUG-CC-PVTZ AUX)
    Blend: AUG-CC-PVTZ-RI
    Molecular point group: c1

    Geometry (in Angstrom), charge = 0, multiplicity = 1:

       Center              X                  Y                   Z               Mass
    ------------   -----------------  -----------------  -----------------  -----------------
         O           -2.520916119354    -0.514264522634     0.030060019803    15.994914619570
         O           -0.090100119354    -1.462141522634     0.173406019803    15.994914619570
         N            0.926160880646     0.405187477366    -0.643891980197    14.003074004430
         C           -1.514517119354     0.402415477366    -0.341612980197    12.000000000000
         C            2.271397880646    -0.138331522634    -0.520660980197    12.000000000000
         C           -0.158141119354    -0.298054522634    -0.245614980197    12.000000000000
         C           -1.584255119354     1.623133477366     0.567489019803    12.000000000000
         C            2.853343880646     0.065488477366     0.871622019803    12.000000000000
         H           -1.694340819354     0.765872077366    -1.578556980197     1.007825032230
         H            2.204731880646    -1.203355522634    -0.750866980197     1.007825032230
         H            2.893703880646     0.335299477366    -1.285096980197     1.007825032230
         H            0.810368880646     1.376676477366    -0.900687980197     1.007825032230
         H           -1.356225119354     1.326486477366     1.593777019803     1.007825032230
         H           -2.598056119354     2.026426477366     0.541187019803     1.007825032230
         H           -0.891673119354     2.413351477366     0.261301019803     1.007825032230
         H            2.904504880646     1.128462477366     1.121667019803     1.007825032230
         H            2.226358880646    -0.440341522634     1.609132019803     1.007825032230
         H            3.863395880646    -0.350625522634     0.930854019803     1.007825032230
         H           -2.032363119354    -1.342721522634     0.230793019803     1.007825032230

  Basis Set: AUG-CC-PVTZ
    Blend: AUG-CC-PVTZ
  Basis Set: (AUG-CC-PVTZ AUX)
    Blend: AUG-CC-PVTZ-JKFIT
	 Reference Energy          =    -400.0677681825237642 [Eh]
	 Singles Energy            =      -0.0000000000000000 [Eh]
	 Same-Spin Energy          =      -0.4024897098367474 [Eh]
	 Opposite-Spin Energy      =      -1.3096709449253803 [Eh]
	 Correlation Energy        =      -1.7121606547621275 [Eh]
	 Total Energy              =    -401.7799288372858655 [Eh]

	 ================> DF-SCS-MP2 Energies <==================
	-----------------------------------------------------------
	 SCS Same-Spin Scale       =       0.3333333333333333 [-]
	 SCS Opposite-Spin Scale   =       1.2000000000000000 [-]
	 SCS Same-Spin Energy      =      -0.1341632366122491 [Eh]
	 SCS Opposite-Spin Energy  =      -1.5716051339104562 [Eh]
	 SCS Correlation Energy    =      -1.7057683705227054 [Eh]
	 SCS Total Energy          =    -401.7735365530464833 [Eh]
	-----------------------------------------------------------

  Dipole Moment: [D]
     X:     3.0727      Y:     3.0941      Z:    -0.8708     Total:     4.4467

*** Psi4 exiting successfully. Buy a developer a beer!
