                               Psi4 1.4a3.dev225

  ==> Input File <==

--------------------------------------------------------------------------
#psi4
#
memory 32 gb

molecule  {
0 1
  O       -1.5707600    -1.5123310    -0.2332890
  O        0.1382410     1.6075510    -0.3059650
  N        0.6999210    -0.4896500     0.4239600
  C       -1.5456480    -0.0933390    -0.4361750
  C        2.0783650    -0.1398720     0.7271540
  C       -0.1470270     0.4197650    -0.1121660
  C       -2.6016438     0.6497756     0.4591491
  C        2.9727550    -0.1683320    -0.5071050
  H       -1.7217520     0.1422920    -1.4952760
  H        2.0695770     0.8628690     1.1612900
  H        2.4371510    -0.8367210     1.4904630
  H        0.3848370    -1.4513440     0.4597870
  H       -2.3944150     0.3774590     1.4809910
  H       -3.5869010     0.3276930     0.1608950
  H       -2.4702460     1.7050790     0.2962630
  H        2.9788310    -1.1637080    -0.9596270
  H        2.6039680     0.5505970    -1.2414500
  H        4.0012360     0.0983730    -0.2444710
  H       -2.4840080    -1.8129070    -0.3767550
units angstrom
no_reorient  #important for SAPT in psi4, default
symmetry c1  #important for SAPT in psi4, default
}

set PROPERTIES_ORIGIN ["COM"]
properties('MP2/aug-cc-pvtz', properties = ['dipole'])
--------------------------------------------------------------------------

    Molecular point group: c1
  Charge       = 0
  Multiplicity = 1
  Basis Set: AUG-CC-PVTZ
    Blend: AUG-CC-PVTZ
  Basis Set: (AUG-CC-PVTZ AUX)
    Blend: AUG-CC-PVTZ-JKFIT

    Orbital Energies [Eh]
    ---------------------

    Doubly Occupied:

       1A    -20.581855     2A    -20.510071     3A    -15.577956
       4A    -11.343440     5A    -11.303266     6A    -11.259718
       7A    -11.228474     8A    -11.211886     9A     -1.387765
      10A     -1.359498    11A     -1.224938    12A     -1.039814
      13A     -1.007925    14A     -0.904487    15A     -0.844044
      16A     -0.775770    17A     -0.715807    18A     -0.696085
      19A     -0.638185    20A     -0.633408    21A     -0.610134
      22A     -0.588565    23A     -0.584058    24A     -0.561414
      25A     -0.545227    26A     -0.526157    27A     -0.520140
      28A     -0.509859    29A     -0.490228    30A     -0.454821
      31A     -0.415201    32A     -0.384180

  @DF-RHF Final Energy:  -400.08624068120162

   => Energetics <=

    Nuclear Repulsion Energy =            399.0920411765498557
    One-Electron Energy =               -1337.4878136795848604
    Two-Electron Energy =                 538.3095318218333887
    Total Energy =                       -400.0862406812016161
  Basis Set: (AUG-CC-PVTZ AUX)
    Blend: AUG-CC-PVTZ-RI
    Molecular point group: c1

    Geometry (in Angstrom), charge = 0, multiplicity = 1:

       Center              X                  Y                   Z               Mass
    ------------   -----------------  -----------------  -----------------  -----------------
         O           -1.551987603127    -1.524909613808    -0.230039446121    15.994914619570
         O            0.157013396873     1.594972386192    -0.302715446121    15.994914619570
         N            0.718693396873    -0.502228613808     0.427209553879    14.003074004430
         C           -1.526875603127    -0.105917613808    -0.432925446121    12.000000000000
         C            2.097137396873    -0.152450613808     0.730403553879    12.000000000000
         C           -0.128254603127     0.407186386192    -0.108916446121    12.000000000000
         C           -2.582871403127     0.637196986192     0.462398653879    12.000000000000
         C            2.991527396873    -0.180910613808    -0.503855446121    12.000000000000
         H           -1.702979603127     0.129713386192    -1.492026446121     1.007825032230
         H            2.088349396873     0.850290386192     1.164539553879     1.007825032230
         H            2.455923396873    -0.849299613808     1.493712553879     1.007825032230
         H            0.403609396873    -1.463922613808     0.463036553879     1.007825032230
         H           -2.375642603127     0.364880386192     1.484240553879     1.007825032230
         H           -3.568128603127     0.315114386192     0.164144553879     1.007825032230
         H           -2.451473603127     1.692500386192     0.299512553879     1.007825032230
         H            2.997603396873    -1.176286613808    -0.956377446121     1.007825032230
         H            2.622740396873     0.538018386192    -1.238200446121     1.007825032230
         H            4.020008396873     0.085794386192    -0.241221446121     1.007825032230
         H           -2.465235603127    -1.825485613808    -0.373505446121     1.007825032230

  Basis Set: AUG-CC-PVTZ
    Blend: AUG-CC-PVTZ
  Basis Set: (AUG-CC-PVTZ AUX)
    Blend: AUG-CC-PVTZ-JKFIT
	 Reference Energy          =    -400.0862406812016161 [Eh]
	 Singles Energy            =      -0.0000000000000000 [Eh]
	 Same-Spin Energy          =      -0.4013466478657309 [Eh]
	 Opposite-Spin Energy      =      -1.3073273402521663 [Eh]
	 Correlation Energy        =      -1.7086739881178974 [Eh]
	 Total Energy              =    -401.7949146693194962 [Eh]

	 ================> DF-SCS-MP2 Energies <==================
	-----------------------------------------------------------
	 SCS Same-Spin Scale       =       0.3333333333333333 [-]
	 SCS Opposite-Spin Scale   =       1.2000000000000000 [-]
	 SCS Same-Spin Energy      =      -0.1337822159552436 [Eh]
	 SCS Opposite-Spin Energy  =      -1.5687928083025995 [Eh]
	 SCS Correlation Energy    =      -1.7025750242578430 [Eh]
	 SCS Total Energy          =    -401.7888157054594558 [Eh]
	-----------------------------------------------------------

  Dipole Moment: [D]
     X:    -1.1679      Y:    -2.7931      Z:     0.4649     Total:     3.0629

*** Psi4 exiting successfully. Buy a developer a beer!
