                               Psi4 1.4a3.dev225

  ==> Input File <==

--------------------------------------------------------------------------
#psi4
#
memory 32 gb

molecule  {
0 1
  O       -1.5707600    -1.5123310    -0.2332890
  O        0.1382410     1.6075510    -0.3059650
  N        0.6999210    -0.4896500     0.4239600
  C       -1.5456480    -0.0933390    -0.4361750
  C        2.0783650    -0.1398720     0.7271540
  C       -0.1470270     0.4197650    -0.1121660
  C       -2.5680410     0.6261290     0.4306590
  C        2.9727550    -0.1683320    -0.5071050
  H       -1.7217520     0.1422920    -1.4952760
  H        2.0695770     0.8628690     1.1612900
  H        2.4371510    -0.8367210     1.4904630
  H        0.3910601    -1.4323500     0.4590794
  H       -2.3944150     0.3774590     1.4809910
  H       -3.5869010     0.3276930     0.1608950
  H       -2.4702460     1.7050790     0.2962630
  H        2.9788310    -1.1637080    -0.9596270
  H        2.6039680     0.5505970    -1.2414500
  H        4.0012360     0.0983730    -0.2444710
  H       -2.4840080    -1.8129070    -0.3767550
units angstrom
no_reorient  #important for SAPT in psi4, default
symmetry c1  #important for SAPT in psi4, default
}

set PROPERTIES_ORIGIN ["COM"]
properties('MP2/aug-cc-pvtz', properties = ['dipole'])
--------------------------------------------------------------------------

    Molecular point group: c1
  Charge       = 0
  Multiplicity = 1
  Basis Set: AUG-CC-PVTZ
    Blend: AUG-CC-PVTZ
  Basis Set: (AUG-CC-PVTZ AUX)
    Blend: AUG-CC-PVTZ-JKFIT

    Orbital Energies [Eh]
    ---------------------

    Doubly Occupied:

       1A    -20.581432     2A    -20.510639     3A    -15.576672
       4A    -11.343926     5A    -11.301708     6A    -11.260018
       7A    -11.229499     8A    -11.212151     9A     -1.388566
      10A     -1.360058    11A     -1.227610    12A     -1.045564
      13A     -1.010458    14A     -0.902445    15A     -0.843611
      16A     -0.780672    17A     -0.717444    18A     -0.697425
      19A     -0.642533    20A     -0.634366    21A     -0.610224
      22A     -0.588795    23A     -0.583726    24A     -0.558833
      25A     -0.539986    26A     -0.525519    27A     -0.520140
      28A     -0.508887    29A     -0.490916    30A     -0.461162
      31A     -0.415801    32A     -0.384840

  @DF-RHF Final Energy:  -400.08842527346758

   => Energetics <=

    Nuclear Repulsion Energy =            400.0578154110557421
    One-Electron Energy =               -1339.3812336457835954
    Two-Electron Energy =                 539.2349929612602182
    Total Energy =                       -400.0884252734675783
  Basis Set: (AUG-CC-PVTZ AUX)
    Blend: AUG-CC-PVTZ-RI
    Molecular point group: c1

    Geometry (in Angstrom), charge = 0, multiplicity = 1:

       Center              X                  Y                   Z               Mass
    ------------   -----------------  -----------------  -----------------  -----------------
         O           -1.555485288202    -1.522649459384    -0.227113264658    15.994914619570
         O            0.153515711798     1.597232540616    -0.299789264658    15.994914619570
         N            0.715195711798    -0.499968459384     0.430135735342    14.003074004430
         C           -1.530373288202    -0.103657459384    -0.429999264658    12.000000000000
         C            2.093639711798    -0.150190459384     0.733329735342    12.000000000000
         C           -0.131752288202     0.409446540616    -0.105990264658    12.000000000000
         C           -2.552766288202     0.615810540616     0.436834735342    12.000000000000
         C            2.988029711798    -0.178650459384    -0.500929264658    12.000000000000
         H           -1.706477288202     0.131973540616    -1.489100264658     1.007825032230
         H            2.084851711798     0.852550540616     1.167465735342     1.007825032230
         H            2.452425711798    -0.847039459384     1.496638735342     1.007825032230
         H            0.406334811798    -1.442668459384     0.465255135342     1.007825032230
         H           -2.379140288202     0.367140540616     1.487166735342     1.007825032230
         H           -3.571626288202     0.317374540616     0.167070735342     1.007825032230
         H           -2.454971288202     1.694760540616     0.302438735342     1.007825032230
         H            2.994105711798    -1.174026459384    -0.953451264658     1.007825032230
         H            2.619242711798     0.540278540616    -1.235274264658     1.007825032230
         H            4.016510711798     0.088054540616    -0.238295264658     1.007825032230
         H           -2.468733288202    -1.823225459384    -0.370579264658     1.007825032230

  Basis Set: AUG-CC-PVTZ
    Blend: AUG-CC-PVTZ
  Basis Set: (AUG-CC-PVTZ AUX)
    Blend: AUG-CC-PVTZ-JKFIT
	 Reference Energy          =    -400.0884252734675783 [Eh]
	 Singles Energy            =      -0.0000000000000000 [Eh]
	 Same-Spin Energy          =      -0.4013993889885905 [Eh]
	 Opposite-Spin Energy      =      -1.3070576235675013 [Eh]
	 Correlation Energy        =      -1.7084570125560918 [Eh]
	 Total Energy              =    -401.7968822860236742 [Eh]

	 ================> DF-SCS-MP2 Energies <==================
	-----------------------------------------------------------
	 SCS Same-Spin Scale       =       0.3333333333333333 [-]
	 SCS Opposite-Spin Scale   =       1.2000000000000000 [-]
	 SCS Same-Spin Energy      =      -0.1337997963295302 [Eh]
	 SCS Opposite-Spin Energy  =      -1.5684691482810016 [Eh]
	 SCS Correlation Energy    =      -1.7022689446105317 [Eh]
	 SCS Total Energy          =    -401.7906942180781016 [Eh]
	-----------------------------------------------------------

  Dipole Moment: [D]
     X:    -1.1548      Y:    -2.7381      Z:     0.4752     Total:     3.0095

*** Psi4 exiting successfully. Buy a developer a beer!
