                               Psi4 1.4a3.dev225

  ==> Input File <==

--------------------------------------------------------------------------
#psi4
#
memory 32 gb

molecule  {
0 1
  O       -1.5707600    -1.5123310    -0.2332890
  O        0.1382410     1.6075510    -0.3059650
  N        0.6999210    -0.4896500     0.4239600
  C       -1.5456480    -0.0933390    -0.4361750
  C        2.0783650    -0.1398720     0.7271540
  C       -0.1470270     0.4197650    -0.1121660
  C       -2.5680410     0.6261290     0.4306590
  C        2.9727550    -0.1683320    -0.5071050
  H       -1.7297626     0.1530103    -1.5434522
  H        2.0695770     0.8628690     1.1612900
  H        2.4371510    -0.8367210     1.4904630
  H        0.3848370    -1.4513440     0.4597870
  H       -2.3944150     0.3774590     1.4809910
  H       -3.5869010     0.3276930     0.1608950
  H       -2.4702460     1.7050790     0.2962630
  H        2.9788310    -1.1637080    -0.9596270
  H        2.6039680     0.5505970    -1.2414500
  H        4.0012360     0.0983730    -0.2444710
  H       -2.4840080    -1.8129070    -0.3767550
units angstrom
no_reorient  #important for SAPT in psi4, default
symmetry c1  #important for SAPT in psi4, default
}

set PROPERTIES_ORIGIN ["COM"]
properties('MP2/aug-cc-pvtz', properties = ['dipole'])
--------------------------------------------------------------------------

    Molecular point group: c1
  Charge       = 0
  Multiplicity = 1
  Basis Set: AUG-CC-PVTZ
    Blend: AUG-CC-PVTZ
  Basis Set: (AUG-CC-PVTZ AUX)
    Blend: AUG-CC-PVTZ-JKFIT

    Orbital Energies [Eh]
    ---------------------

    Doubly Occupied:

       1A    -20.582433     2A    -20.510383     3A    -15.578456
       4A    -11.344159     5A    -11.307485     6A    -11.259979
       7A    -11.229945     8A    -11.212055     9A     -1.388866
      10A     -1.360005    11A     -1.225362    12A     -1.044238
      13A     -1.009704    14A     -0.901571    15A     -0.841477
      16A     -0.775903    17A     -0.712280    18A     -0.697595
      19A     -0.641765    20A     -0.633215    21A     -0.610242
      22A     -0.588449    23A     -0.582831    24A     -0.559075
      25A     -0.539826    26A     -0.524548    27A     -0.519122
      28A     -0.508845    29A     -0.490688    30A     -0.458105
      31A     -0.415698    32A     -0.384404

  @DF-RHF Final Energy:  -400.08560617453867

   => Energetics <=

    Nuclear Repulsion Energy =            399.6845968196925014
    One-Electron Energy =               -1338.6629874031741565
    Two-Electron Energy =                 538.8927844089430437
    Total Energy =                       -400.0856061745386114
  Basis Set: (AUG-CC-PVTZ AUX)
    Blend: AUG-CC-PVTZ-RI
    Molecular point group: c1

    Geometry (in Angstrom), charge = 0, multiplicity = 1:

       Center              X                  Y                   Z               Mass
    ------------   -----------------  -----------------  -----------------  -----------------
         O           -1.555362763395    -1.522578221510    -0.226704651225    15.994914619570
         O            0.153638236605     1.597303778490    -0.299380651225    15.994914619570
         N            0.715318236605    -0.499897221510     0.430544348775    14.003074004430
         C           -1.530250763395    -0.103586221510    -0.429590651225    12.000000000000
         C            2.093762236605    -0.150119221510     0.733738348775    12.000000000000
         C           -0.131629763395     0.409517778490    -0.105581651225    12.000000000000
         C           -2.552643763395     0.615881778490     0.437243348775    12.000000000000
         C            2.988152236605    -0.178579221510    -0.500520651225    12.000000000000
         H           -1.714365363395     0.142763078490    -1.536867851225     1.007825032230
         H            2.084974236605     0.852621778490     1.167874348775     1.007825032230
         H            2.452548236605    -0.846968221510     1.497047348775     1.007825032230
         H            0.400234236605    -1.461591221510     0.466371348775     1.007825032230
         H           -2.379017763395     0.367211778490     1.487575348775     1.007825032230
         H           -3.571503763395     0.317445778490     0.167479348775     1.007825032230
         H           -2.454848763395     1.694831778490     0.302847348775     1.007825032230
         H            2.994228236605    -1.173955221510    -0.953042651225     1.007825032230
         H            2.619365236605     0.540349778490    -1.234865651225     1.007825032230
         H            4.016633236605     0.088125778490    -0.237886651225     1.007825032230
         H           -2.468610763395    -1.823154221510    -0.370170651225     1.007825032230

  Basis Set: AUG-CC-PVTZ
    Blend: AUG-CC-PVTZ
  Basis Set: (AUG-CC-PVTZ AUX)
    Blend: AUG-CC-PVTZ-JKFIT
	 Reference Energy          =    -400.0856061745386683 [Eh]
	 Singles Energy            =      -0.0000000000000000 [Eh]
	 Same-Spin Energy          =      -0.4016807096276843 [Eh]
	 Opposite-Spin Energy      =      -1.3078760135908192 [Eh]
	 Correlation Energy        =      -1.7095567232185034 [Eh]
	 Total Energy              =    -401.7951628977571659 [Eh]

	 ================> DF-SCS-MP2 Energies <==================
	-----------------------------------------------------------
	 SCS Same-Spin Scale       =       0.3333333333333333 [-]
	 SCS Opposite-Spin Scale   =       1.2000000000000000 [-]
	 SCS Same-Spin Energy      =      -0.1338935698758947 [Eh]
	 SCS Opposite-Spin Energy  =      -1.5694512163089829 [Eh]
	 SCS Correlation Energy    =      -1.7033447861848776 [Eh]
	 SCS Total Energy          =    -401.7889509607235254 [Eh]
	-----------------------------------------------------------

  Dipole Moment: [D]
     X:    -1.1605      Y:    -2.7735      Z:     0.5034     Total:     3.0483

*** Psi4 exiting successfully. Buy a developer a beer!
