                               Psi4 1.3.2 release

  ==> Input File <==

--------------------------------------------------------------------------
#psi4
#
memory 32 gb

molecule  {
0 1
  O       -2.5174414    -0.5214004     0.0194881
  O       -0.0903380    -1.4616610     0.1717700
  N        0.9259230     0.4056680    -0.6455280
  C       -1.5147550     0.4028960    -0.3432490
  C        2.2711600    -0.1378510    -0.5222970
  C       -0.1583790    -0.2975740    -0.2472510
  C       -1.5742293     1.6289872     0.5593281
  C        2.8531060     0.0659690     0.8699860
  H       -1.6669500     0.7105100    -1.3901450
  H        2.2044940    -1.2028750    -0.7525030
  H        2.8934660     0.3357800    -1.2867330
  H        0.8101310     1.3771570    -0.9023240
  H       -1.3564630     1.3269670     1.5921410
  H       -2.5982940     2.0269070     0.5395510
  H       -0.8919110     2.4138320     0.2596650
  H        2.9042670     1.1289430     1.1200310
  H        2.2261210    -0.4398610     1.6074960
  H        3.8631580    -0.3501450     0.9292180
  H       -2.0326010    -1.3422410     0.2291570
units angstrom
no_reorient  #important for SAPT in psi4, default
symmetry c1  #important for SAPT in psi4, default
}

set PROPERTIES_ORIGIN ["COM"]
properties('MP2/aug-cc-pvtz', properties = ['dipole'])
--------------------------------------------------------------------------

    Molecular point group: c1
  Charge       = 0
  Multiplicity = 1
  Basis Set: AUG-CC-PVTZ
    Blend: AUG-CC-PVTZ
  Basis Set: (AUG-CC-PVTZ AUX)
    Blend: AUG-CC-PVTZ-JKFIT

    Orbital Energies [Eh]
    ---------------------

    Doubly Occupied:

       1A    -20.548250     2A    -20.533090     3A    -15.598513
       4A    -11.358830     5A    -11.298480     6A    -11.273626
       7A    -11.231821     8A    -11.224279     9A     -1.398571
      10A     -1.347447    11A     -1.245776    12A     -1.053439
      13A     -1.013142    14A     -0.902848    15A     -0.849670
      16A     -0.794192    17A     -0.744991    18A     -0.677444
      19A     -0.649394    20A     -0.642130    21A     -0.611192
      22A     -0.599660    23A     -0.576870    24A     -0.562851
      25A     -0.544561    26A     -0.535269    27A     -0.520702
      28A     -0.514807    29A     -0.502444    30A     -0.446367
      31A     -0.435616    32A     -0.403297

  @DF-RHF Final Energy:  -400.08796312164765

   => Energetics <=

    Nuclear Repulsion Energy =            400.5115741258841240
    One-Electron Energy =               -1339.9199377658649155
    Two-Electron Energy =                 539.3204005183330310
    Total Energy =                       -400.0879631216477037
  Basis Set: (AUG-CC-PVTZ AUX)
    Blend: AUG-CC-PVTZ-RI
    Molecular point group: c1

    Geometry (in Angstrom), charge = 0, multiplicity = 1:

       Center              X                  Y                   Z               Mass
    ------------   -----------------  -----------------  -----------------  -----------------
         O           -2.519000528672    -0.520910425289     0.021377731734    15.994914619570
         O           -0.091897128672    -1.461171025289     0.173659631734    15.994914619570
         N            0.924363871328     0.406157974711    -0.643638368266    14.003074004430
         C           -1.516314128672     0.403385974711    -0.341359368266    12.000000000000
         C            2.269600871328    -0.137361025289    -0.520407368266    12.000000000000
         C           -0.159938128672    -0.297084025289    -0.245361368266    12.000000000000
         C           -1.575788428672     1.629477174711     0.561217731734    12.000000000000
         C            2.851546871328     0.066458974711     0.871875631734    12.000000000000
         H           -1.668509128672     0.710999974711    -1.388255368266     1.007825032230
         H            2.202934871328    -1.202385025289    -0.750613368266     1.007825032230
         H            2.891906871328     0.336269974711    -1.284843368266     1.007825032230
         H            0.808571871328     1.377646974711    -0.900434368266     1.007825032230
         H           -1.358022128672     1.327456974711     1.594030631734     1.007825032230
         H           -2.599853128672     2.027396974711     0.541440631734     1.007825032230
         H           -0.893470128672     2.414321974711     0.261554631734     1.007825032230
         H            2.902707871328     1.129432974711     1.121920631734     1.007825032230
         H            2.224561871328    -0.439371025289     1.609385631734     1.007825032230
         H            3.861598871328    -0.349655025289     0.931107631734     1.007825032230
         H           -2.034160128672    -1.341751025289     0.231046631734     1.007825032230

  Basis Set: AUG-CC-PVTZ
    Blend: AUG-CC-PVTZ
  Basis Set: (AUG-CC-PVTZ AUX)
    Blend: AUG-CC-PVTZ-JKFIT
	 Reference Energy          =    -400.0879631216476469 [Eh]
	 Singles Energy            =      -0.0000000000000000 [Eh]
	 Same-Spin Energy          =      -0.4020252273103099 [Eh]
	 Opposite-Spin Energy      =      -1.3074269064400974 [Eh]
	 Correlation Energy        =      -1.7094521337504074 [Eh]
	 Total Energy              =    -401.7974152553980502 [Eh]

	 ================> DF-SCS-MP2 Energies <==================
	-----------------------------------------------------------
	 SCS Same-Spin Scale       =       0.3333333333333333 [-]
	 SCS Opposite-Spin Scale   =       1.2000000000000000 [-]
	 SCS Same-Spin Energy      =      -0.1340084091034366 [Eh]
	 SCS Opposite-Spin Energy  =      -1.5689122877281168 [Eh]
	 SCS Correlation Energy    =      -1.7029206968315533 [Eh]
	 SCS Total Energy          =    -401.7908838184791875 [Eh]
	-----------------------------------------------------------

  Dipole Moment: [D]
     X:     3.0876      Y:     3.1977      Z:    -1.0278     Total:     4.5623

*** Psi4 exiting successfully. Buy a developer a beer!
