                               Psi4 1.3.2 release

  ==> Input File <==

--------------------------------------------------------------------------
#psi4
#
memory 32 gb

molecule  {
0 1
  O       -2.5211540    -0.5137840     0.0284240
  O       -0.0903380    -1.4616610     0.1717700
  N        0.9189603     0.4148383    -0.6481170
  C       -1.5087267     0.4137790    -0.3480855
  C        2.2711600    -0.1378510    -0.5222970
  C       -0.1583790    -0.2975740    -0.2472510
  C       -1.5844930     1.6236140     0.5658530
  C        2.8531060     0.0659690     0.8699860
  H       -1.6669500     0.7105100    -1.3901450
  H        2.2044940    -1.2028750    -0.7525030
  H        2.8934660     0.3357800    -1.2867330
  H        0.8101310     1.3771570    -0.9023240
  H       -1.3564630     1.3269670     1.5921410
  H       -2.5982940     2.0269070     0.5395510
  H       -0.8919110     2.4138320     0.2596650
  H        2.9042670     1.1289430     1.1200310
  H        2.2261210    -0.4398610     1.6074960
  H        3.8631580    -0.3501450     0.9292180
  H       -2.0326010    -1.3422410     0.2291570
units angstrom
no_reorient  #important for SAPT in psi4, default
symmetry c1  #important for SAPT in psi4, default
}

set PROPERTIES_ORIGIN ["COM"]
properties('MP2/aug-cc-pvtz', properties = ['dipole'])
--------------------------------------------------------------------------

    Molecular point group: c1
  Charge       = 0
  Multiplicity = 1
  Basis Set: AUG-CC-PVTZ
    Blend: AUG-CC-PVTZ
  Basis Set: (AUG-CC-PVTZ AUX)
    Blend: AUG-CC-PVTZ-JKFIT

    Orbital Energies [Eh]
    ---------------------

    Doubly Occupied:

       1A    -20.546717     2A    -20.534185     3A    -15.598197
       4A    -11.359656     5A    -11.297371     6A    -11.274633
       7A    -11.231438     8A    -11.224824     9A     -1.397176
      10A     -1.342078    11A     -1.245834    12A     -1.053688
      13A     -1.013841    14A     -0.902906    15A     -0.849179
      16A     -0.797354    17A     -0.742023    18A     -0.676411
      19A     -0.647463    20A     -0.642318    21A     -0.610816
      22A     -0.600342    23A     -0.574698    24A     -0.563256
      25A     -0.542810    26A     -0.534449    27A     -0.521275
      28A     -0.514323    29A     -0.502703    30A     -0.447134
      31A     -0.436353    32A     -0.404553

  @DF-RHF Final Energy:  -400.08733548214377

   => Energetics <=

    Nuclear Repulsion Energy =            400.2706367961300202
    One-Electron Energy =               -1339.4559365185973547
    Two-Electron Energy =                 539.0979642403235630
    Total Energy =                       -400.0873354821437715
  Basis Set: (AUG-CC-PVTZ AUX)
    Blend: AUG-CC-PVTZ-RI
    Molecular point group: c1

    Geometry (in Angstrom), charge = 0, multiplicity = 1:

       Center              X                  Y                   Z               Mass
    ------------   -----------------  -----------------  -----------------  -----------------
         O           -2.520939055086    -0.515996078732     0.029229442237    15.994914619570
         O           -0.090123055086    -1.463873078732     0.172575442237    15.994914619570
         N            0.919175244914     0.412626221268    -0.647311557763    14.003074004430
         C           -1.508511755086     0.411566921268    -0.347280057763    12.000000000000
         C            2.271374944914    -0.140063078732    -0.521491557763    12.000000000000
         C           -0.158164055086    -0.299786078732    -0.246445557763    12.000000000000
         C           -1.584278055086     1.621401921268     0.566658442237    12.000000000000
         C            2.853320944914     0.063756921268     0.870791442237    12.000000000000
         H           -1.666735055086     0.708297921268    -1.389339557763     1.007825032230
         H            2.204708944914    -1.205087078732    -0.751697557763     1.007825032230
         H            2.893680944914     0.333567921268    -1.285927557763     1.007825032230
         H            0.810345944914     1.374944921268    -0.901518557763     1.007825032230
         H           -1.356248055086     1.324754921268     1.592946442237     1.007825032230
         H           -2.598079055086     2.024694921268     0.540356442237     1.007825032230
         H           -0.891696055086     2.411619921268     0.260470442237     1.007825032230
         H            2.904481944914     1.126730921268     1.120836442237     1.007825032230
         H            2.226335944914    -0.442073078732     1.608301442237     1.007825032230
         H            3.863372944914    -0.352357078732     0.930023442237     1.007825032230
         H           -2.032386055086    -1.344453078732     0.229962442237     1.007825032230

  Basis Set: AUG-CC-PVTZ
    Blend: AUG-CC-PVTZ
  Basis Set: (AUG-CC-PVTZ AUX)
    Blend: AUG-CC-PVTZ-JKFIT
	 Reference Energy          =    -400.0873354821437715 [Eh]
	 Singles Energy            =      -0.0000000000000000 [Eh]
	 Same-Spin Energy          =      -0.4020532543603600 [Eh]
	 Opposite-Spin Energy      =      -1.3077918052398565 [Eh]
	 Correlation Energy        =      -1.7098450596002164 [Eh]
	 Total Energy              =    -401.7971805417440123 [Eh]

	 ================> DF-SCS-MP2 Energies <==================
	-----------------------------------------------------------
	 SCS Same-Spin Scale       =       0.3333333333333333 [-]
	 SCS Opposite-Spin Scale   =       1.2000000000000000 [-]
	 SCS Same-Spin Energy      =      -0.1340177514534533 [Eh]
	 SCS Opposite-Spin Energy  =      -1.5693501662878278 [Eh]
	 SCS Correlation Energy    =      -1.7033679177412810 [Eh]
	 SCS Total Energy          =    -401.7907033998850466 [Eh]
	-----------------------------------------------------------

  Dipole Moment: [D]
     X:     3.1496      Y:     3.1934      Z:    -1.0468     Total:     4.6058

*** Psi4 exiting successfully. Buy a developer a beer!
