                               Psi4 1.3.2 release

  ==> Input File <==

--------------------------------------------------------------------------
#psi4
#
memory 32 gb

molecule  {
0 1
  O       -2.5211540    -0.5137840     0.0284240
  O       -0.0903380    -1.4616610     0.1717700
  N        0.9259230     0.4056680    -0.6455280
  C       -1.5147550     0.4028960    -0.3432490
  C        2.2663455    -0.1484760    -0.5172576
  C       -0.1513442    -0.3064635    -0.2439701
  C       -1.5844930     1.6236140     0.5658530
  C        2.8531060     0.0659690     0.8699860
  H       -1.6669500     0.7105100    -1.3901450
  H        2.2044940    -1.2028750    -0.7525030
  H        2.8934660     0.3357800    -1.2867330
  H        0.8101310     1.3771570    -0.9023240
  H       -1.3564630     1.3269670     1.5921410
  H       -2.5982940     2.0269070     0.5395510
  H       -0.8919110     2.4138320     0.2596650
  H        2.9042670     1.1289430     1.1200310
  H        2.2261210    -0.4398610     1.6074960
  H        3.8631580    -0.3501450     0.9292180
  H       -2.0326010    -1.3422410     0.2291570
units angstrom
no_reorient  #important for SAPT in psi4, default
symmetry c1  #important for SAPT in psi4, default
}

set PROPERTIES_ORIGIN ["COM"]
properties('MP2/aug-cc-pvtz', properties = ['dipole'])
--------------------------------------------------------------------------

    Molecular point group: c1
  Charge       = 0
  Multiplicity = 1
  Basis Set: AUG-CC-PVTZ
    Blend: AUG-CC-PVTZ
  Basis Set: (AUG-CC-PVTZ AUX)
    Blend: AUG-CC-PVTZ-JKFIT

    Orbital Energies [Eh]
    ---------------------

    Doubly Occupied:

       1A    -20.548104     2A    -20.534909     3A    -15.597921
       4A    -11.358265     5A    -11.297538     6A    -11.273528
       7A    -11.230723     8A    -11.224324     9A     -1.402882
      10A     -1.347719    11A     -1.246860    12A     -1.051444
      13A     -1.012406    14A     -0.901242    15A     -0.848092
      16A     -0.795574    17A     -0.743240    18A     -0.677536
      19A     -0.648212    20A     -0.643837    21A     -0.611153
      22A     -0.601376    23A     -0.575765    24A     -0.562947
      25A     -0.544095    26A     -0.534834    27A     -0.521752
      28A     -0.516235    29A     -0.503440    30A     -0.445670
      31A     -0.434817    32A     -0.404144

  @DF-RHF Final Energy:  -400.08825614703738

   => Energetics <=

    Nuclear Repulsion Energy =            400.5589965660962548
    One-Electron Energy =               -1340.0133324648406870
    Two-Electron Energy =                 539.3660797517069341
    Total Energy =                       -400.0882561470374412
  Basis Set: (AUG-CC-PVTZ AUX)
    Blend: AUG-CC-PVTZ-RI
    Molecular point group: c1

    Geometry (in Angstrom), charge = 0, multiplicity = 1:

       Center              X                  Y                   Z               Mass
    ------------   -----------------  -----------------  -----------------  -----------------
         O           -2.521381518831    -0.511783688127     0.027571283267    15.994914619570
         O           -0.090565518831    -1.459660688127     0.170917283267    15.994914619570
         N            0.925695481169     0.407668311873    -0.646380716733    14.003074004430
         C           -1.514982518831     0.404896311873    -0.344101716733    12.000000000000
         C            2.266117981169    -0.146475688127    -0.518110316733    12.000000000000
         C           -0.151571718831    -0.304463188127    -0.244822816733    12.000000000000
         C           -1.584720518831     1.625614311873     0.565000283267    12.000000000000
         C            2.852878481169     0.067969311873     0.869133283267    12.000000000000
         H           -1.667177518831     0.712510311873    -1.390997716733     1.007825032230
         H            2.204266481169    -1.200874688127    -0.753355716733     1.007825032230
         H            2.893238481169     0.337780311873    -1.287585716733     1.007825032230
         H            0.809903481169     1.379157311873    -0.903176716733     1.007825032230
         H           -1.356690518831     1.328967311873     1.591288283267     1.007825032230
         H           -2.598521518831     2.028907311873     0.538698283267     1.007825032230
         H           -0.892138518831     2.415832311873     0.258812283267     1.007825032230
         H            2.904039481169     1.130943311873     1.119178283267     1.007825032230
         H            2.225893481169    -0.437860688127     1.606643283267     1.007825032230
         H            3.862930481169    -0.348144688127     0.928365283267     1.007825032230
         H           -2.032828518831    -1.340240688127     0.228304283267     1.007825032230

  Basis Set: AUG-CC-PVTZ
    Blend: AUG-CC-PVTZ
  Basis Set: (AUG-CC-PVTZ AUX)
    Blend: AUG-CC-PVTZ-JKFIT
	 Reference Energy          =    -400.0882561470373844 [Eh]
	 Singles Energy            =      -0.0000000000000000 [Eh]
	 Same-Spin Energy          =      -0.4018787847871524 [Eh]
	 Opposite-Spin Energy      =      -1.3071792376563169 [Eh]
	 Correlation Energy        =      -1.7090580224434695 [Eh]
	 Total Energy              =    -401.7973141694808419 [Eh]

	 ================> DF-SCS-MP2 Energies <==================
	-----------------------------------------------------------
	 SCS Same-Spin Scale       =       0.3333333333333333 [-]
	 SCS Opposite-Spin Scale   =       1.2000000000000000 [-]
	 SCS Same-Spin Energy      =      -0.1339595949290508 [Eh]
	 SCS Opposite-Spin Energy  =      -1.5686150851875802 [Eh]
	 SCS Correlation Energy    =      -1.7025746801166310 [Eh]
	 SCS Total Energy          =    -401.7908308271540250 [Eh]
	-----------------------------------------------------------

  Dipole Moment: [D]
     X:     3.1082      Y:     3.1192      Z:    -1.0273     Total:     4.5217

*** Psi4 exiting successfully. Buy a developer a beer!
