                               Psi4 1.3.2 release

  ==> Input File <==

--------------------------------------------------------------------------
#psi4
#
memory 32 gb

molecule  {
0 1
  O       -2.5211540    -0.5137840     0.0284240
  O       -0.0903380    -1.4616610     0.1717700
  N        0.9259230     0.4056680    -0.6455280
  C       -1.5147550     0.4028960    -0.3432490
  C        2.2978834    -0.0732602    -0.5527170
  C       -0.1988354    -0.2431362    -0.2675646
  C       -1.5844930     1.6236140     0.5658530
  C        2.8531060     0.0659690     0.8699860
  H       -1.6669500     0.7105100    -1.3901450
  H        2.2044940    -1.2028750    -0.7525030
  H        2.8934660     0.3357800    -1.2867330
  H        0.8101310     1.3771570    -0.9023240
  H       -1.3564630     1.3269670     1.5921410
  H       -2.5982940     2.0269070     0.5395510
  H       -0.8919110     2.4138320     0.2596650
  H        2.9042670     1.1289430     1.1200310
  H        2.2261210    -0.4398610     1.6074960
  H        3.8631580    -0.3501450     0.9292180
  H       -2.0326010    -1.3422410     0.2291570
units angstrom
no_reorient  #important for SAPT in psi4, default
symmetry c1  #important for SAPT in psi4, default
}

set PROPERTIES_ORIGIN ["COM"]
properties('MP2/aug-cc-pvtz', properties = ['dipole'])
--------------------------------------------------------------------------

    Molecular point group: c1
  Charge       = 0
  Multiplicity = 1
  Basis Set: AUG-CC-PVTZ
    Blend: AUG-CC-PVTZ
  Basis Set: (AUG-CC-PVTZ AUX)
    Blend: AUG-CC-PVTZ-JKFIT

    Orbital Energies [Eh]
    ---------------------

    Doubly Occupied:

       1A    -20.550861     2A    -20.524908     3A    -15.604365
       4A    -11.365188     5A    -11.301215     6A    -11.276265
       7A    -11.235527     8A    -11.225401     9A     -1.381854
      10A     -1.334793    11A     -1.238910    12A     -1.063340
      13A     -1.015667    14A     -0.913969    15A     -0.859469
      16A     -0.787025    17A     -0.749990    18A     -0.680779
      19A     -0.659823    20A     -0.631915    21A     -0.609756
      22A     -0.587964    23A     -0.573445    24A     -0.565750
      25A     -0.545552    26A     -0.537476    27A     -0.521657
      28A     -0.511006    29A     -0.486992    30A     -0.447708
      31A     -0.437714    32A     -0.398156

  @DF-RHF Final Energy:  -400.06713093376902

   => Energetics <=

    Nuclear Repulsion Energy =            399.7817556163876702
    One-Electron Energy =               -1338.4488934793910175
    Two-Electron Energy =                 538.6000069292342687
    Total Energy =                       -400.0671309337690218
  Basis Set: (AUG-CC-PVTZ AUX)
    Blend: AUG-CC-PVTZ-RI
    Molecular point group: c1

    Geometry (in Angstrom), charge = 0, multiplicity = 1:

       Center              X                  Y                   Z               Mass
    ------------   -----------------  -----------------  -----------------  -----------------
         O           -2.519746386698    -0.525983651433     0.033624007748    15.994914619570
         O           -0.088930386698    -1.473860651433     0.176970007748    15.994914619570
         N            0.927330613302     0.393468348567    -0.640327992252    14.003074004430
         C           -1.513347386698     0.390696348567    -0.338048992252    12.000000000000
         C            2.299291013302    -0.085459851433    -0.547516992252    12.000000000000
         C           -0.197427786698    -0.255335851433    -0.262364592252    12.000000000000
         C           -1.583085386698     1.611414348567     0.571053007748    12.000000000000
         C            2.854513613302     0.053769348567     0.875186007748    12.000000000000
         H           -1.665542386698     0.698310348567    -1.384944992252     1.007825032230
         H            2.205901613302    -1.215074651433    -0.747302992252     1.007825032230
         H            2.894873613302     0.323580348567    -1.281532992252     1.007825032230
         H            0.811538613302     1.364957348567    -0.897123992252     1.007825032230
         H           -1.355055386698     1.314767348567     1.597341007748     1.007825032230
         H           -2.596886386698     2.014707348567     0.544751007748     1.007825032230
         H           -0.890503386698     2.401632348567     0.264865007748     1.007825032230
         H            2.905674613302     1.116743348567     1.125231007748     1.007825032230
         H            2.227528613302    -0.452060651433     1.612696007748     1.007825032230
         H            3.864565613302    -0.362344651433     0.934418007748     1.007825032230
         H           -2.031193386698    -1.354440651433     0.234357007748     1.007825032230

  Basis Set: AUG-CC-PVTZ
    Blend: AUG-CC-PVTZ
  Basis Set: (AUG-CC-PVTZ AUX)
    Blend: AUG-CC-PVTZ-JKFIT
	 Reference Energy          =    -400.0671309337690218 [Eh]
	 Singles Energy            =      -0.0000000000000000 [Eh]
	 Same-Spin Energy          =      -0.4040049968252281 [Eh]
	 Opposite-Spin Energy      =      -1.3114523654975478 [Eh]
	 Correlation Energy        =      -1.7154573623227760 [Eh]
	 Total Energy              =    -401.7825882960917738 [Eh]

	 ================> DF-SCS-MP2 Energies <==================
	-----------------------------------------------------------
	 SCS Same-Spin Scale       =       0.3333333333333333 [-]
	 SCS Opposite-Spin Scale   =       1.2000000000000000 [-]
	 SCS Same-Spin Energy      =      -0.1346683322750760 [Eh]
	 SCS Opposite-Spin Energy  =      -1.5737428385970573 [Eh]
	 SCS Correlation Energy    =      -1.7084111708721332 [Eh]
	 SCS Total Energy          =    -401.7755421046411470 [Eh]
	-----------------------------------------------------------

  Dipole Moment: [D]
     X:     3.0352      Y:     3.4951      Z:    -1.1342     Total:     4.7660

*** Psi4 exiting successfully. Buy a developer a beer!
