                               Psi4 1.3.2 release

  ==> Input File <==

--------------------------------------------------------------------------
#psi4
#
memory 32 gb

molecule  {
0 1
  O       -2.5211540    -0.5137840     0.0284240
  O       -0.0903380    -1.4616610     0.1717700
  N        0.9259230     0.4056680    -0.6455280
  C       -1.5147550     0.4028960    -0.3432490
  C        2.2711600    -0.1378510    -0.5222970
  C       -0.1583790    -0.2975740    -0.2472510
  C       -1.5844930     1.6236140     0.5658530
  C        2.8531060     0.0659690     0.8699860
  H       -1.6669500     0.7105100    -1.3901450
  H        2.2044940    -1.2028750    -0.7525030
  H        2.8934660     0.3357800    -1.2867330
  H        0.7986835     1.4732009    -0.9277115
  H       -1.3564630     1.3269670     1.5921410
  H       -2.5982940     2.0269070     0.5395510
  H       -0.8919110     2.4138320     0.2596650
  H        2.9042670     1.1289430     1.1200310
  H        2.2261210    -0.4398610     1.6074960
  H        3.8631580    -0.3501450     0.9292180
  H       -2.0326010    -1.3422410     0.2291570
units angstrom
no_reorient  #important for SAPT in psi4, default
symmetry c1  #important for SAPT in psi4, default
}

set PROPERTIES_ORIGIN ["COM"]
properties('MP2/aug-cc-pvtz', properties = ['dipole'])
--------------------------------------------------------------------------

    Molecular point group: c1
  Charge       = 0
  Multiplicity = 1
  Basis Set: AUG-CC-PVTZ
    Blend: AUG-CC-PVTZ
  Basis Set: (AUG-CC-PVTZ AUX)
    Blend: AUG-CC-PVTZ-JKFIT

    Orbital Energies [Eh]
    ---------------------

    Doubly Occupied:

       1A    -20.548119     2A    -20.533071     3A    -15.607089
       4A    -11.358893     5A    -11.297728     6A    -11.273727
       7A    -11.231192     8A    -11.224027     9A     -1.397633
      10A     -1.346172    11A     -1.236206    12A     -1.052255
      13A     -1.010941    14A     -0.902108    15A     -0.847766
      16A     -0.773416    17A     -0.742830    18A     -0.676604
      19A     -0.646043    20A     -0.641475    21A     -0.610072
      22A     -0.594693    23A     -0.575305    24A     -0.562844
      25A     -0.543339    26A     -0.534695    27A     -0.520597
      28A     -0.513168    29A     -0.501788    30A     -0.445700
      31A     -0.435485    32A     -0.401885

  @DF-RHF Final Energy:  -400.07699276890935

   => Energetics <=

    Nuclear Repulsion Energy =            399.8930950220951104
    One-Electron Energy =               -1338.7664419505522346
    Two-Electron Energy =                 538.7963541595477182
    Total Energy =                       -400.0769927689093493
  Basis Set: (AUG-CC-PVTZ AUX)
    Blend: AUG-CC-PVTZ-RI
    Molecular point group: c1

    Geometry (in Angstrom), charge = 0, multiplicity = 1:

       Center              X                  Y                   Z               Mass
    ------------   -----------------  -----------------  -----------------  -----------------
         O           -2.521055408393    -0.514610578578     0.028642609302    15.994914619570
         O           -0.090239408393    -1.462487578578     0.171988609302    15.994914619570
         N            0.926021591607     0.404841421422    -0.645309390698    14.003074004430
         C           -1.514656408393     0.402069421422    -0.343030390698    12.000000000000
         C            2.271258591607    -0.138677578578    -0.522078390698    12.000000000000
         C           -0.158280408393    -0.298400578578    -0.247032390698    12.000000000000
         C           -1.584394408393     1.622787421422     0.566071609302    12.000000000000
         C            2.853204591607     0.065142421422     0.870204609302    12.000000000000
         H           -1.666851408393     0.709683421422    -1.389926390698     1.007825032230
         H            2.204592591607    -1.203701578578    -0.752284390698     1.007825032230
         H            2.893564591607     0.334953421422    -1.286514390698     1.007825032230
         H            0.798782091607     1.472374321422    -0.927492890698     1.007825032230
         H           -1.356364408393     1.326140421422     1.592359609302     1.007825032230
         H           -2.598195408393     2.026080421422     0.539769609302     1.007825032230
         H           -0.891812408393     2.413005421422     0.259883609302     1.007825032230
         H            2.904365591607     1.128116421422     1.120249609302     1.007825032230
         H            2.226219591607    -0.440687578578     1.607714609302     1.007825032230
         H            3.863256591607    -0.350971578578     0.929436609302     1.007825032230
         H           -2.032502408393    -1.343067578578     0.229375609302     1.007825032230

  Basis Set: AUG-CC-PVTZ
    Blend: AUG-CC-PVTZ
  Basis Set: (AUG-CC-PVTZ AUX)
    Blend: AUG-CC-PVTZ-JKFIT
	 Reference Energy          =    -400.0769927689093493 [Eh]
	 Singles Energy            =      -0.0000000000000000 [Eh]
	 Same-Spin Energy          =      -0.4029292502610831 [Eh]
	 Opposite-Spin Energy      =      -1.3096757672589441 [Eh]
	 Correlation Energy        =      -1.7126050175200271 [Eh]
	 Total Energy              =    -401.7895977864293968 [Eh]

	 ================> DF-SCS-MP2 Energies <==================
	-----------------------------------------------------------
	 SCS Same-Spin Scale       =       0.3333333333333333 [-]
	 SCS Opposite-Spin Scale   =       1.2000000000000000 [-]
	 SCS Same-Spin Energy      =      -0.1343097500870277 [Eh]
	 SCS Opposite-Spin Energy  =      -1.5716109207107329 [Eh]
	 SCS Correlation Energy    =      -1.7059206707977606 [Eh]
	 SCS Total Energy          =    -401.7829134397071016 [Eh]
	-----------------------------------------------------------

  Dipole Moment: [D]
     X:     3.1089      Y:     3.2460      Z:    -1.0683     Total:     4.6199

*** Psi4 exiting successfully. Buy a developer a beer!
