                               Psi4 1.4a3.dev225

  ==> Input File <==

--------------------------------------------------------------------------
#psi4
#
memory 32 gb

molecule  {
0 1
  O       -1.5707600    -1.5123310    -0.2332890
  O        0.1382410     1.6075510    -0.3059650
  N        0.6999210    -0.4896500     0.4239600
  C       -1.5465238    -0.1428280    -0.4290991
  C        2.0783650    -0.1398720     0.7271540
  C       -0.1470270     0.4197650    -0.1121660
  C       -2.5680410     0.6261290     0.4306590
  C        2.9727550    -0.1683320    -0.5071050
  H       -1.7217520     0.1422920    -1.4952760
  H        2.0695770     0.8628690     1.1612900
  H        2.4371510    -0.8367210     1.4904630
  H        0.3848370    -1.4513440     0.4597870
  H       -2.3944150     0.3774590     1.4809910
  H       -3.5869010     0.3276930     0.1608950
  H       -2.4702460     1.7050790     0.2962630
  H        2.9788310    -1.1637080    -0.9596270
  H        2.6039680     0.5505970    -1.2414500
  H        4.0012360     0.0983730    -0.2444710
  H       -2.4840080    -1.8129070    -0.3767550
units angstrom
no_reorient  #important for SAPT in psi4, default
symmetry c1  #important for SAPT in psi4, default
}

set PROPERTIES_ORIGIN ["COM"]
properties('MP2/aug-cc-pvtz', properties = ['dipole'])
--------------------------------------------------------------------------

    Molecular point group: c1
  Charge       = 0
  Multiplicity = 1
  Basis Set: AUG-CC-PVTZ
    Blend: AUG-CC-PVTZ
  Basis Set: (AUG-CC-PVTZ AUX)
    Blend: AUG-CC-PVTZ-JKFIT

    Orbital Energies [Eh]
    ---------------------

    Doubly Occupied:

       1A    -20.587817     2A    -20.510097     3A    -15.577365
       4A    -11.343155     5A    -11.301936     6A    -11.259253
       7A    -11.228368     8A    -11.211704     9A     -1.406864
      10A     -1.361264    11A     -1.224887    12A     -1.040120
      13A     -1.007719    14A     -0.901019    15A     -0.842648
      16A     -0.776387    17A     -0.721312    18A     -0.705033
      19A     -0.647344    20A     -0.633535    21A     -0.610479
      22A     -0.588270    23A     -0.582626    24A     -0.560241
      25A     -0.539951    26A     -0.526487    27A     -0.519702
      28A     -0.508489    29A     -0.490408    30A     -0.453390
      31A     -0.412073    32A     -0.384006

  @DF-RHF Final Energy:  -400.08616439702945

   => Energetics <=

    Nuclear Repulsion Energy =            400.1427288061731815
    One-Electron Energy =               -1339.5298863201867334
    Two-Electron Energy =                 539.3009931169840456
    Total Energy =                       -400.0861643970295063
  Basis Set: (AUG-CC-PVTZ AUX)
    Blend: AUG-CC-PVTZ-RI
    Molecular point group: c1

    Geometry (in Angstrom), charge = 0, multiplicity = 1:

       Center              X                  Y                   Z               Mass
    ------------   -----------------  -----------------  -----------------  -----------------
         O           -1.555341954222    -1.517413586677    -0.227844599505    15.994914619570
         O            0.153659045778     1.602468413323    -0.300520599505    15.994914619570
         N            0.715339045778    -0.494732586677     0.429404400495    14.003074004430
         C           -1.531105754222    -0.147910586677    -0.423654699505    12.000000000000
         C            2.093783045778    -0.144954586677     0.732598400495    12.000000000000
         C           -0.131608954222     0.414682413323    -0.106721599505    12.000000000000
         C           -2.552622954222     0.621046413323     0.436103400495    12.000000000000
         C            2.988173045778    -0.173414586677    -0.501660599505    12.000000000000
         H           -1.706333954222     0.137209413323    -1.489831599505     1.007825032230
         H            2.084995045778     0.857786413323     1.166734400495     1.007825032230
         H            2.452569045778    -0.841803586677     1.495907400495     1.007825032230
         H            0.400255045778    -1.456426586677     0.465231400495     1.007825032230
         H           -2.378996954222     0.372376413323     1.486435400495     1.007825032230
         H           -3.571482954222     0.322610413323     0.166339400495     1.007825032230
         H           -2.454827954222     1.699996413323     0.301707400495     1.007825032230
         H            2.994249045778    -1.168790586677    -0.954182599505     1.007825032230
         H            2.619386045778     0.545514413323    -1.236005599505     1.007825032230
         H            4.016654045778     0.093290413323    -0.239026599505     1.007825032230
         H           -2.468589954222    -1.817989586677    -0.371310599505     1.007825032230

  Basis Set: AUG-CC-PVTZ
    Blend: AUG-CC-PVTZ
  Basis Set: (AUG-CC-PVTZ AUX)
    Blend: AUG-CC-PVTZ-JKFIT
	 Reference Energy          =    -400.0861643970294494 [Eh]
	 Singles Energy            =      -0.0000000000000000 [Eh]
	 Same-Spin Energy          =      -0.4015983654937076 [Eh]
	 Opposite-Spin Energy      =      -1.3069025881472314 [Eh]
	 Correlation Energy        =      -1.7085009536409390 [Eh]
	 Total Energy              =    -401.7946653506704138 [Eh]

	 ================> DF-SCS-MP2 Energies <==================
	-----------------------------------------------------------
	 SCS Same-Spin Scale       =       0.3333333333333333 [-]
	 SCS Opposite-Spin Scale   =       1.2000000000000000 [-]
	 SCS Same-Spin Energy      =      -0.1338661218312359 [Eh]
	 SCS Opposite-Spin Energy  =      -1.5682831057766775 [Eh]
	 SCS Correlation Energy    =      -1.7021492276079133 [Eh]
	 SCS Total Energy          =    -401.7883136246373397 [Eh]
	-----------------------------------------------------------

  Dipole Moment: [D]
     X:    -1.1738      Y:    -2.9430      Z:     0.4838     Total:     3.2052

*** Psi4 exiting successfully. Buy a developer a beer!
