                               Psi4 1.3.2 release

  ==> Input File <==

--------------------------------------------------------------------------
#psi4
#
memory 32 gb

molecule  {
0 1
  O       -2.5211540    -0.5137840     0.0284240
  O       -0.1010586    -1.4617305     0.1731782
  N        0.9189731     0.4148760    -0.6480156
  C       -1.5147550     0.4028960    -0.3432490
  C        2.2711600    -0.1378510    -0.5222970
  C       -0.1583790    -0.2975740    -0.2472510
  C       -1.5844930     1.6236140     0.5658530
  C        2.8531060     0.0659690     0.8699860
  H       -1.6669500     0.7105100    -1.3901450
  H        2.2044940    -1.2028750    -0.7525030
  H        2.8934660     0.3357800    -1.2867330
  H        0.8101310     1.3771570    -0.9023240
  H       -1.3564630     1.3269670     1.5921410
  H       -2.5982940     2.0269070     0.5395510
  H       -0.8919110     2.4138320     0.2596650
  H        2.9042670     1.1289430     1.1200310
  H        2.2261210    -0.4398610     1.6074960
  H        3.8631580    -0.3501450     0.9292180
  H       -2.0326010    -1.3422410     0.2291570
units angstrom
no_reorient  #important for SAPT in psi4, default
symmetry c1  #important for SAPT in psi4, default
}

set PROPERTIES_ORIGIN ["COM"]
properties('MP2/aug-cc-pvtz', properties = ['dipole'])
--------------------------------------------------------------------------

    Molecular point group: c1
  Charge       = 0
  Multiplicity = 1
  Basis Set: AUG-CC-PVTZ
    Blend: AUG-CC-PVTZ
  Basis Set: (AUG-CC-PVTZ AUX)
    Blend: AUG-CC-PVTZ-JKFIT

    Orbital Energies [Eh]
    ---------------------

    Doubly Occupied:

       1A    -20.547388     2A    -20.534144     3A    -15.598697
       4A    -11.359409     5A    -11.296972     6A    -11.275035
       7A    -11.230843     8A    -11.225049     9A     -1.398381
      10A     -1.345629    11A     -1.246304    12A     -1.052463
      13A     -1.013088    14A     -0.902342    15A     -0.849134
      16A     -0.797517    17A     -0.743464    18A     -0.676694
      19A     -0.647913    20A     -0.642273    21A     -0.611288
      22A     -0.600745    23A     -0.575086    24A     -0.562783
      25A     -0.543981    26A     -0.534630    27A     -0.521333
      28A     -0.514489    29A     -0.503181    30A     -0.445367
      31A     -0.435719    32A     -0.404814

  @DF-RHF Final Energy:  -400.08776870237216

   => Energetics <=

    Nuclear Repulsion Energy =            400.3572020926313826
    One-Electron Energy =               -1339.6176390884288594
    Two-Electron Energy =                 539.1726682934253176
    Total Energy =                       -400.0877687023721592
  Basis Set: (AUG-CC-PVTZ AUX)
    Blend: AUG-CC-PVTZ-RI
    Molecular point group: c1

    Geometry (in Angstrom), charge = 0, multiplicity = 1:

       Center              X                  Y                   Z               Mass
    ------------   -----------------  -----------------  -----------------  -----------------
         O           -2.518858105583    -0.514875640783     0.028529214481    15.994914619570
         O           -0.098762705583    -1.462822140783     0.173283414481    15.994914619570
         N            0.921268994417     0.413784359217    -0.647910385519    14.003074004430
         C           -1.512459105583     0.401804359217    -0.343143785519    12.000000000000
         C            2.273455894417    -0.138942640783    -0.522191785519    12.000000000000
         C           -0.156083105583    -0.298665640783    -0.247145785519    12.000000000000
         C           -1.582197105583     1.622522359217     0.565958214481    12.000000000000
         C            2.855401894417     0.064877359217     0.870091214481    12.000000000000
         H           -1.664654105583     0.709418359217    -1.390039785519     1.007825032230
         H            2.206789894417    -1.203966640783    -0.752397785519     1.007825032230
         H            2.895761894417     0.334688359217    -1.286627785519     1.007825032230
         H            0.812426894417     1.376065359217    -0.902218785519     1.007825032230
         H           -1.354167105583     1.325875359217     1.592246214481     1.007825032230
         H           -2.595998105583     2.025815359217     0.539656214481     1.007825032230
         H           -0.889615105583     2.412740359217     0.259770214481     1.007825032230
         H            2.906562894417     1.127851359217     1.120136214481     1.007825032230
         H            2.228416894417    -0.440952640783     1.607601214481     1.007825032230
         H            3.865453894417    -0.351236640783     0.929323214481     1.007825032230
         H           -2.030305105583    -1.343332640783     0.229262214481     1.007825032230

  Basis Set: AUG-CC-PVTZ
    Blend: AUG-CC-PVTZ
  Basis Set: (AUG-CC-PVTZ AUX)
    Blend: AUG-CC-PVTZ-JKFIT
	 Reference Energy          =    -400.0877687023721592 [Eh]
	 Singles Energy            =      -0.0000000000000000 [Eh]
	 Same-Spin Energy          =      -0.4020197974753126 [Eh]
	 Opposite-Spin Energy      =      -1.3075348324627032 [Eh]
	 Correlation Energy        =      -1.7095546299380158 [Eh]
	 Total Energy              =    -401.7973233323101567 [Eh]

	 ================> DF-SCS-MP2 Energies <==================
	-----------------------------------------------------------
	 SCS Same-Spin Scale       =       0.3333333333333333 [-]
	 SCS Opposite-Spin Scale   =       1.2000000000000000 [-]
	 SCS Same-Spin Energy      =      -0.1340065991584375 [Eh]
	 SCS Opposite-Spin Energy  =      -1.5690417989552439 [Eh]
	 SCS Correlation Energy    =      -1.7030483981136815 [Eh]
	 SCS Total Energy          =    -401.7908171004858673 [Eh]
	-----------------------------------------------------------

  Dipole Moment: [D]
     X:     3.1623      Y:     3.1573      Z:    -1.0416     Total:     4.5884

*** Psi4 exiting successfully. Buy a developer a beer!
