                               Psi4 1.3.2 release

  ==> Input File <==

--------------------------------------------------------------------------
#psi4
#
memory 32 gb

molecule  {
0 1
  O       -2.5211540    -0.5137840     0.0284240
  O       -0.0903380    -1.4616610     0.1717700
  N        0.9259230     0.4056680    -0.6455280
  C       -1.5147550     0.4028960    -0.3432490
  C        2.2711600    -0.1378510    -0.5222970
  C       -0.1583790    -0.2975740    -0.2472510
  C       -1.5974035     1.6684526     0.5011549
  C        2.8531060     0.0659690     0.8699860
  H       -1.6723950     0.7649150    -1.3717784
  H        2.2044940    -1.2028750    -0.7525030
  H        2.8934660     0.3357800    -1.2867330
  H        0.8101310     1.3771570    -0.9023240
  H       -1.3564630     1.3269670     1.5921410
  H       -2.5982940     2.0269070     0.5395510
  H       -0.8919110     2.4138320     0.2596650
  H        2.9042670     1.1289430     1.1200310
  H        2.2261210    -0.4398610     1.6074960
  H        3.8631580    -0.3501450     0.9292180
  H       -2.0326010    -1.3422410     0.2291570
units angstrom
no_reorient  #important for SAPT in psi4, default
symmetry c1  #important for SAPT in psi4, default
}

set PROPERTIES_ORIGIN ["COM"]
properties('MP2/aug-cc-pvtz', properties = ['dipole'])
--------------------------------------------------------------------------

    Molecular point group: c1
  Charge       = 0
  Multiplicity = 1
  Basis Set: AUG-CC-PVTZ
    Blend: AUG-CC-PVTZ
  Basis Set: (AUG-CC-PVTZ AUX)
    Blend: AUG-CC-PVTZ-JKFIT

    Orbital Energies [Eh]
    ---------------------

    Doubly Occupied:

       1A    -20.550659     2A    -20.534356     3A    -15.599351
       4A    -11.360837     5A    -11.299008     6A    -11.274037
       7A    -11.231910     8A    -11.224467     9A     -1.399106
      10A     -1.347527    11A     -1.246532    12A     -1.054002
      13A     -1.014062    14A     -0.903235    15A     -0.849282
      16A     -0.794703    17A     -0.745436    18A     -0.677587
      19A     -0.649907    20A     -0.642739    21A     -0.612347
      22A     -0.601084    23A     -0.578003    24A     -0.576829
      25A     -0.543000    26A     -0.523359    27A     -0.521064
      28A     -0.512376    29A     -0.503160    30A     -0.443397
      31A     -0.436743    32A     -0.403611

  @DF-RHF Final Energy:  -400.08015964970173

   => Energetics <=

    Nuclear Repulsion Energy =            400.1339759042264745
    One-Electron Energy =               -1339.1208382398372123
    Two-Electron Energy =                 538.9067026859090674
    Total Energy =                       -400.0801596497017272
  Basis Set: (AUG-CC-PVTZ AUX)
    Blend: AUG-CC-PVTZ-RI
    Molecular point group: c1

    Geometry (in Angstrom), charge = 0, multiplicity = 1:

       Center              X                  Y                   Z               Mass
    ------------   -----------------  -----------------  -----------------  -----------------
         O           -2.519783817779    -0.518847876171     0.034897196860    15.994914619570
         O           -0.088967817779    -1.466724876171     0.178243196860    15.994914619570
         N            0.927293182221     0.400604123829    -0.639054803140    14.003074004430
         C           -1.513384817779     0.397832123829    -0.336775803140    12.000000000000
         C            2.272530182221    -0.142914876171    -0.515823803140    12.000000000000
         C           -0.157008817779    -0.302637876171    -0.240777803140    12.000000000000
         C           -1.596033317779     1.663388723829     0.507628096860    12.000000000000
         C            2.854476182221     0.060905123829     0.876459196860    12.000000000000
         H           -1.671024817779     0.759851123829    -1.365305203140     1.007825032230
         H            2.205864182221    -1.207938876171    -0.746029803140     1.007825032230
         H            2.894836182221     0.330716123829    -1.280259803140     1.007825032230
         H            0.811501182221     1.372093123829    -0.895850803140     1.007825032230
         H           -1.355092817779     1.321903123829     1.598614196860     1.007825032230
         H           -2.596923817779     2.021843123829     0.546024196860     1.007825032230
         H           -0.890540817779     2.408768123829     0.266138196860     1.007825032230
         H            2.905637182221     1.123879123829     1.126504196860     1.007825032230
         H            2.227491182221    -0.444924876171     1.613969196860     1.007825032230
         H            3.864528182221    -0.355208876171     0.935691196860     1.007825032230
         H           -2.031230817779    -1.347304876171     0.235630196860     1.007825032230

  Basis Set: AUG-CC-PVTZ
    Blend: AUG-CC-PVTZ
  Basis Set: (AUG-CC-PVTZ AUX)
    Blend: AUG-CC-PVTZ-JKFIT
	 Reference Energy          =    -400.0801596497017272 [Eh]
	 Singles Energy            =      -0.0000000000000000 [Eh]
	 Same-Spin Energy          =      -0.4022687990688977 [Eh]
	 Opposite-Spin Energy      =      -1.3080319625414851 [Eh]
	 Correlation Energy        =      -1.7103007616103829 [Eh]
	 Total Energy              =    -401.7904604113120968 [Eh]

	 ================> DF-SCS-MP2 Energies <==================
	-----------------------------------------------------------
	 SCS Same-Spin Scale       =       0.3333333333333333 [-]
	 SCS Opposite-Spin Scale   =       1.2000000000000000 [-]
	 SCS Same-Spin Energy      =      -0.1340895996896325 [Eh]
	 SCS Opposite-Spin Energy  =      -1.5696383550497821 [Eh]
	 SCS Correlation Energy    =      -1.7037279547394146 [Eh]
	 SCS Total Energy          =    -401.7838876044411336 [Eh]
	-----------------------------------------------------------

  Dipole Moment: [D]
     X:     3.1009      Y:     3.1818      Z:    -1.0766     Total:     4.5715

*** Psi4 exiting successfully. Buy a developer a beer!
