                               Psi4 1.3.2 release

  ==> Input File <==

--------------------------------------------------------------------------
#psi4
#
memory 32 gb

molecule  {
0 1
  O       -2.5211540    -0.5137840     0.0284240
  O       -0.0903380    -1.4616610     0.1717700
  N        0.9250580     0.3901771    -0.6939273
  C       -1.5147550     0.4028960    -0.3432490
  C        2.2711600    -0.1378510    -0.5222970
  C       -0.1583790    -0.2975740    -0.2472510
  C       -1.5844930     1.6236140     0.5658530
  C        2.8974839     0.0414687     0.8540091
  H       -1.6669500     0.7105100    -1.3901450
  H        2.2044940    -1.2028750    -0.7525030
  H        2.8934660     0.3357800    -1.2867330
  H        0.8101310     1.3771570    -0.9023240
  H       -1.3564630     1.3269670     1.5921410
  H       -2.5982940     2.0269070     0.5395510
  H       -0.8919110     2.4138320     0.2596650
  H        2.9042670     1.1289430     1.1200310
  H        2.2261210    -0.4398610     1.6074960
  H        3.8631580    -0.3501450     0.9292180
  H       -2.0326010    -1.3422410     0.2291570
units angstrom
no_reorient  #important for SAPT in psi4, default
symmetry c1  #important for SAPT in psi4, default
}

set PROPERTIES_ORIGIN ["COM"]
properties('MP2/aug-cc-pvtz', properties = ['dipole'])
--------------------------------------------------------------------------

    Molecular point group: c1
  Charge       = 0
  Multiplicity = 1
  Basis Set: AUG-CC-PVTZ
    Blend: AUG-CC-PVTZ
  Basis Set: (AUG-CC-PVTZ AUX)
    Blend: AUG-CC-PVTZ-JKFIT

    Orbital Energies [Eh]
    ---------------------

    Doubly Occupied:

       1A    -20.549204     2A    -20.535586     3A    -15.600160
       4A    -11.360748     5A    -11.298972     6A    -11.273028
       7A    -11.232153     8A    -11.225757     9A     -1.399285
      10A     -1.347438    11A     -1.244656    12A     -1.052771
      13A     -1.013874    14A     -0.904574    15A     -0.849225
      16A     -0.791808    17A     -0.744510    18A     -0.677174
      19A     -0.647895    20A     -0.642352    21A     -0.613217
      22A     -0.596455    23A     -0.579970    24A     -0.564691
      25A     -0.551191    26A     -0.536565    27A     -0.518775
      28A     -0.514838    29A     -0.493818    30A     -0.446556
      31A     -0.437874    32A     -0.405061

  @DF-RHF Final Energy:  -400.08360519743434

   => Energetics <=

    Nuclear Repulsion Energy =            399.7439930810669466
    One-Electron Energy =               -1338.3548324250671158
    Two-Electron Energy =                 538.5272341465657746
    Total Energy =                       -400.0836051974343945
  Basis Set: (AUG-CC-PVTZ AUX)
    Blend: AUG-CC-PVTZ-RI
    Molecular point group: c1

    Geometry (in Angstrom), charge = 0, multiplicity = 1:

       Center              X                  Y                   Z               Mass
    ------------   -----------------  -----------------  -----------------  -----------------
         O           -2.525599001311    -0.509419900687     0.035850356003    15.994914619570
         O           -0.094783001311    -1.457296900687     0.179196356003    15.994914619570
         N            0.920612998689     0.394541199313    -0.686500943997    14.003074004430
         C           -1.519200001311     0.407260099313    -0.335822643997    12.000000000000
         C            2.266714998689    -0.133486900687    -0.514870643997    12.000000000000
         C           -0.162824001311    -0.293209900687    -0.239824643997    12.000000000000
         C           -1.588938001311     1.627978099313     0.573279356003    12.000000000000
         C            2.893038898689     0.045832799313     0.861435456003    12.000000000000
         H           -1.671395001311     0.714874099313    -1.382718643997     1.007825032230
         H            2.200048998689    -1.198510900687    -0.745076643997     1.007825032230
         H            2.889020998689     0.340144099313    -1.279306643997     1.007825032230
         H            0.805685998689     1.381521099313    -0.894897643997     1.007825032230
         H           -1.360908001311     1.331331099313     1.599567356003     1.007825032230
         H           -2.602739001311     2.031271099313     0.546977356003     1.007825032230
         H           -0.896356001311     2.418196099313     0.267091356003     1.007825032230
         H            2.899821998689     1.133307099313     1.127457356003     1.007825032230
         H            2.221675998689    -0.435496900687     1.614922356003     1.007825032230
         H            3.858712998689    -0.345780900687     0.936644356003     1.007825032230
         H           -2.037046001311    -1.337876900687     0.236583356003     1.007825032230

  Basis Set: AUG-CC-PVTZ
    Blend: AUG-CC-PVTZ
  Basis Set: (AUG-CC-PVTZ AUX)
    Blend: AUG-CC-PVTZ-JKFIT
	 Reference Energy          =    -400.0836051974343377 [Eh]
	 Singles Energy            =      -0.0000000000000000 [Eh]
	 Same-Spin Energy          =      -0.4021172975545716 [Eh]
	 Opposite-Spin Energy      =      -1.3078919550806356 [Eh]
	 Correlation Energy        =      -1.7100092526352073 [Eh]
	 Total Energy              =    -401.7936144500695264 [Eh]

	 ================> DF-SCS-MP2 Energies <==================
	-----------------------------------------------------------
	 SCS Same-Spin Scale       =       0.3333333333333333 [-]
	 SCS Opposite-Spin Scale   =       1.2000000000000000 [-]
	 SCS Same-Spin Energy      =      -0.1340390991848572 [Eh]
	 SCS Opposite-Spin Energy  =      -1.5694703460967627 [Eh]
	 SCS Correlation Energy    =      -1.7035094452816200 [Eh]
	 SCS Total Energy          =    -401.7871146427159488 [Eh]
	-----------------------------------------------------------

  Dipole Moment: [D]
     X:     3.0443      Y:     3.1468      Z:    -0.9301     Total:     4.4761

*** Psi4 exiting successfully. Buy a developer a beer!
