                               Psi4 1.3.2 release

  ==> Input File <==

--------------------------------------------------------------------------
#psi4
#
memory 32 gb

molecule  {
0 1
  O       -2.5211540    -0.5137840     0.0284240
  O       -0.0903380    -1.4616610     0.1717700
  N        0.9259230     0.4056680    -0.6455280
  C       -1.5147550     0.4028960    -0.3432490
  C        2.2612365    -0.1604197    -0.5161300
  C       -0.1583790    -0.2975740    -0.2472510
  C       -1.5844930     1.6236140     0.5658530
  C        2.8531060     0.0659690     0.8699860
  H       -1.6669500     0.7105100    -1.3901450
  H        2.2044940    -1.2028750    -0.7525030
  H        2.8934660     0.3357800    -1.2867330
  H        0.7926136     1.3751256    -0.9015035
  H       -1.3564630     1.3269670     1.5921410
  H       -2.5982940     2.0269070     0.5395510
  H       -0.8919110     2.4138320     0.2596650
  H        2.9042670     1.1289430     1.1200310
  H        2.2261210    -0.4398610     1.6074960
  H        3.8631580    -0.3501450     0.9292180
  H       -2.0326010    -1.3422410     0.2291570
units angstrom
no_reorient  #important for SAPT in psi4, default
symmetry c1  #important for SAPT in psi4, default
}

set PROPERTIES_ORIGIN ["COM"]
properties('MP2/aug-cc-pvtz', properties = ['dipole'])
--------------------------------------------------------------------------

    Molecular point group: c1
  Charge       = 0
  Multiplicity = 1
  Basis Set: AUG-CC-PVTZ
    Blend: AUG-CC-PVTZ
  Basis Set: (AUG-CC-PVTZ AUX)
    Blend: AUG-CC-PVTZ-JKFIT

    Orbital Energies [Eh]
    ---------------------

    Doubly Occupied:

       1A    -20.548518     2A    -20.533288     3A    -15.598722
       4A    -11.358475     5A    -11.298190     6A    -11.274245
       7A    -11.231604     8A    -11.224432     9A     -1.398525
      10A     -1.346791    11A     -1.246060    12A     -1.053007
      13A     -1.012930    14A     -0.902585    15A     -0.849774
      16A     -0.794305    17A     -0.743747    18A     -0.678158
      19A     -0.649291    20A     -0.641778    21A     -0.610763
      22A     -0.600562    23A     -0.575647    24A     -0.563563
      25A     -0.544245    26A     -0.535521    27A     -0.518638
      28A     -0.516184    29A     -0.503799    30A     -0.446128
      31A     -0.435905    32A     -0.403333

  @DF-RHF Final Energy:  -400.08699478791084

   => Energetics <=

    Nuclear Repulsion Energy =            400.5765131930680241
    One-Electron Energy =               -1340.0495915574417722
    Two-Electron Energy =                 539.3860835764629655
    Total Energy =                       -400.0869947879108395
  Basis Set: (AUG-CC-PVTZ AUX)
    Blend: AUG-CC-PVTZ-RI
    Molecular point group: c1

    Geometry (in Angstrom), charge = 0, multiplicity = 1:

       Center              X                  Y                   Z               Mass
    ------------   -----------------  -----------------  -----------------  -----------------
         O           -2.519986049925    -0.511453161706     0.027784922639    15.994914619570
         O           -0.089170049925    -1.459330161706     0.171130922639    15.994914619570
         N            0.927090950075     0.407998838294    -0.646167077361    14.003074004430
         C           -1.513587049925     0.405226838294    -0.343888077361    12.000000000000
         C            2.262404450075    -0.158088861706    -0.516769077361    12.000000000000
         C           -0.157211049925    -0.295243161706    -0.247890077361    12.000000000000
         C           -1.583325049925     1.625944838294     0.565213922639    12.000000000000
         C            2.854273950075     0.068299838294     0.869346922639    12.000000000000
         H           -1.665782049925     0.712840838294    -1.390784077361     1.007825032230
         H            2.205661950075    -1.200544161706    -0.753142077361     1.007825032230
         H            2.894633950075     0.338110838294    -1.287372077361     1.007825032230
         H            0.793781550075     1.377456438294    -0.902142577361     1.007825032230
         H           -1.355295049925     1.329297838294     1.591501922639     1.007825032230
         H           -2.597126049925     2.029237838294     0.538911922639     1.007825032230
         H           -0.890743049925     2.416162838294     0.259025922639     1.007825032230
         H            2.905434950075     1.131273838294     1.119391922639     1.007825032230
         H            2.227288950075    -0.437530161706     1.606856922639     1.007825032230
         H            3.864325950075    -0.347814161706     0.928578922639     1.007825032230
         H           -2.031433049925    -1.339910161706     0.228517922639     1.007825032230

  Basis Set: AUG-CC-PVTZ
    Blend: AUG-CC-PVTZ
  Basis Set: (AUG-CC-PVTZ AUX)
    Blend: AUG-CC-PVTZ-JKFIT
	 Reference Energy          =    -400.0869947879108395 [Eh]
	 Singles Energy            =      -0.0000000000000000 [Eh]
	 Same-Spin Energy          =      -0.4021049098945084 [Eh]
	 Opposite-Spin Energy      =      -1.3076342277507700 [Eh]
	 Correlation Energy        =      -1.7097391376452784 [Eh]
	 Total Energy              =    -401.7967339255561114 [Eh]

	 ================> DF-SCS-MP2 Energies <==================
	-----------------------------------------------------------
	 SCS Same-Spin Scale       =       0.3333333333333333 [-]
	 SCS Opposite-Spin Scale   =       1.2000000000000000 [-]
	 SCS Same-Spin Energy      =      -0.1340349699648361 [Eh]
	 SCS Opposite-Spin Energy  =      -1.5691610733009240 [Eh]
	 SCS Correlation Energy    =      -1.7031960432657600 [Eh]
	 SCS Total Energy          =    -401.7901908311765737 [Eh]
	-----------------------------------------------------------

  Dipole Moment: [D]
     X:     3.0790      Y:     3.1607      Z:    -1.0366     Total:     4.5326

*** Psi4 exiting successfully. Buy a developer a beer!
