                               Psi4 1.3.2 release

  ==> Input File <==

--------------------------------------------------------------------------
#psi4
#
memory 32 gb

molecule  {
0 1
  O       -2.5247900    -0.5060978     0.0373316
  O       -0.0903380    -1.4616610     0.1717700
  N        0.9259230     0.4056680    -0.6455280
  C       -1.5147550     0.4028960    -0.3432490
  C        2.2711600    -0.1378510    -0.5222970
  C       -0.1583790    -0.2975740    -0.2472510
  C       -1.5947514     1.6181478     0.5723087
  C        2.8531060     0.0659690     0.8699860
  H       -1.6669500     0.7105100    -1.3901450
  H        2.2044940    -1.2028750    -0.7525030
  H        2.8934660     0.3357800    -1.2867330
  H        0.8101310     1.3771570    -0.9023240
  H       -1.3564630     1.3269670     1.5921410
  H       -2.5982940     2.0269070     0.5395510
  H       -0.8919110     2.4138320     0.2596650
  H        2.9042670     1.1289430     1.1200310
  H        2.2261210    -0.4398610     1.6074960
  H        3.8631580    -0.3501450     0.9292180
  H       -2.0326010    -1.3422410     0.2291570
units angstrom
no_reorient  #important for SAPT in psi4, default
symmetry c1  #important for SAPT in psi4, default
}

set PROPERTIES_ORIGIN ["COM"]
properties('MP2/aug-cc-pvtz', properties = ['dipole'])
--------------------------------------------------------------------------

    Molecular point group: c1
  Charge       = 0
  Multiplicity = 1
  Basis Set: AUG-CC-PVTZ
    Blend: AUG-CC-PVTZ
  Basis Set: (AUG-CC-PVTZ AUX)
    Blend: AUG-CC-PVTZ-JKFIT

    Orbital Energies [Eh]
    ---------------------

    Doubly Occupied:

       1A    -20.548786     2A    -20.533840     3A    -15.598869
       4A    -11.359558     5A    -11.297986     6A    -11.273850
       7A    -11.231062     8A    -11.224426     9A     -1.398341
      10A     -1.346038    11A     -1.246085    12A     -1.052464
      13A     -1.012629    14A     -0.903216    15A     -0.849265
      16A     -0.794422    17A     -0.743357    18A     -0.677038
      19A     -0.649162    20A     -0.642375    21A     -0.611175
      22A     -0.599206    23A     -0.574882    24A     -0.564201
      25A     -0.543390    26A     -0.534007    27A     -0.521263
      28A     -0.515202    29A     -0.502718    30A     -0.445753
      31A     -0.436622    32A     -0.403637

  @DF-RHF Final Energy:  -400.08702059400827

   => Energetics <=

    Nuclear Repulsion Energy =            400.3716908508581582
    One-Electron Energy =               -1339.6477731561774362
    Two-Electron Energy =                 539.1890617113110693
    Total Energy =                       -400.0870205940082087
  Basis Set: (AUG-CC-PVTZ AUX)
    Blend: AUG-CC-PVTZ-RI
    Molecular point group: c1

    Geometry (in Angstrom), charge = 0, multiplicity = 1:

       Center              X                  Y                   Z               Mass
    ------------   -----------------  -----------------  -----------------  -----------------
         O           -2.523241778113    -0.506587428817     0.035453070581    15.994914619570
         O           -0.088789778113    -1.462150628817     0.169891470581    15.994914619570
         N            0.927471221887     0.405178371183    -0.647406529419    14.003074004430
         C           -1.513206778113     0.402406371183    -0.345127529419    12.000000000000
         C            2.272708221887    -0.138340628817    -0.524175529419    12.000000000000
         C           -0.156830778113    -0.298063628817    -0.249129529419    12.000000000000
         C           -1.593203178113     1.617658171183     0.570430170581    12.000000000000
         C            2.854654221887     0.065479371183     0.868107470581    12.000000000000
         H           -1.665401778113     0.710020371183    -1.392023529419     1.007825032230
         H            2.206042221887    -1.203364628817    -0.754381529419     1.007825032230
         H            2.895014221887     0.335290371183    -1.288611529419     1.007825032230
         H            0.811679221887     1.376667371183    -0.904202529419     1.007825032230
         H           -1.354914778113     1.326477371183     1.590262470581     1.007825032230
         H           -2.596745778113     2.026417371183     0.537672470581     1.007825032230
         H           -0.890362778113     2.413342371183     0.257786470581     1.007825032230
         H            2.905815221887     1.128453371183     1.118152470581     1.007825032230
         H            2.227669221887    -0.440350628817     1.605617470581     1.007825032230
         H            3.864706221887    -0.350634628817     0.927339470581     1.007825032230
         H           -2.031052778113    -1.342730628817     0.227278470581     1.007825032230

  Basis Set: AUG-CC-PVTZ
    Blend: AUG-CC-PVTZ
  Basis Set: (AUG-CC-PVTZ AUX)
    Blend: AUG-CC-PVTZ-JKFIT
	 Reference Energy          =    -400.0870205940082656 [Eh]
	 Singles Energy            =      -0.0000000000000000 [Eh]
	 Same-Spin Energy          =      -0.4022213964017948 [Eh]
	 Opposite-Spin Energy      =      -1.3078882870653410 [Eh]
	 Correlation Energy        =      -1.7101096834671359 [Eh]
	 Total Energy              =    -401.7971302774753894 [Eh]

	 ================> DF-SCS-MP2 Energies <==================
	-----------------------------------------------------------
	 SCS Same-Spin Scale       =       0.3333333333333333 [-]
	 SCS Opposite-Spin Scale   =       1.2000000000000000 [-]
	 SCS Same-Spin Energy      =      -0.1340737988005982 [Eh]
	 SCS Opposite-Spin Energy  =      -1.5694659444784091 [Eh]
	 SCS Correlation Energy    =      -1.7035397432790074 [Eh]
	 SCS Total Energy          =    -401.7905603372872747 [Eh]
	-----------------------------------------------------------

  Dipole Moment: [D]
     X:     3.1046      Y:     3.1499      Z:    -1.0609     Total:     4.5482

*** Psi4 exiting successfully. Buy a developer a beer!
