                               Psi4 1.3.2 release

  ==> Input File <==

--------------------------------------------------------------------------
#psi4
#
memory 32 gb

molecule  {
0 1
  O       -2.5211540    -0.5137840     0.0284240
  O       -0.0903380    -1.4616610     0.1717700
  N        0.9259230     0.4056680    -0.6455280
  C       -1.5147550     0.4028960    -0.3432490
  C        2.2711600    -0.1378510    -0.5222970
  C       -0.1717205    -0.2783476    -0.2503241
  C       -1.5844930     1.6236140     0.5658530
  C        2.8531060     0.0659690     0.8699860
  H       -1.6669500     0.7105100    -1.3901450
  H        2.2044940    -1.2028750    -0.7525030
  H        2.8934660     0.3357800    -1.2867330
  H        0.7928770     1.3758669    -0.8988179
  H       -1.3564630     1.3269670     1.5921410
  H       -2.5982940     2.0269070     0.5395510
  H       -0.8919110     2.4138320     0.2596650
  H        2.9042670     1.1289430     1.1200310
  H        2.2261210    -0.4398610     1.6074960
  H        3.8631580    -0.3501450     0.9292180
  H       -2.0326010    -1.3422410     0.2291570
units angstrom
no_reorient  #important for SAPT in psi4, default
symmetry c1  #important for SAPT in psi4, default
}

set PROPERTIES_ORIGIN ["COM"]
properties('MP2/aug-cc-pvtz', properties = ['dipole'])
--------------------------------------------------------------------------

    Molecular point group: c1
  Charge       = 0
  Multiplicity = 1
  Basis Set: AUG-CC-PVTZ
    Blend: AUG-CC-PVTZ
  Basis Set: (AUG-CC-PVTZ AUX)
    Blend: AUG-CC-PVTZ-JKFIT

    Orbital Energies [Eh]
    ---------------------

    Doubly Occupied:

       1A    -20.549303     2A    -20.530407     3A    -15.600320
       4A    -11.360358     5A    -11.299370     6A    -11.274766
       7A    -11.232940     8A    -11.224439     9A     -1.391027
      10A     -1.343954    11A     -1.244008    12A     -1.056441
      13A     -1.014321    14A     -0.906138    15A     -0.852099
      16A     -0.791726    17A     -0.745624    18A     -0.677930
      19A     -0.651070    20A     -0.638810    21A     -0.611094
      22A     -0.596761    23A     -0.575535    24A     -0.564486
      25A     -0.544398    26A     -0.535558    27A     -0.517402
      28A     -0.513992    29A     -0.501755    30A     -0.446804
      31A     -0.437657    32A     -0.402213

  @DF-RHF Final Energy:  -400.08507139274127

   => Energetics <=

    Nuclear Repulsion Energy =            400.3880991977986241
    One-Electron Energy =               -1339.6809307369701401
    Two-Electron Energy =                 539.2077601464302461
    Total Energy =                       -400.0850713927412698
  Basis Set: (AUG-CC-PVTZ AUX)
    Blend: AUG-CC-PVTZ-RI
    Molecular point group: c1

    Geometry (in Angstrom), charge = 0, multiplicity = 1:

       Center              X                  Y                   Z               Mass
    ------------   -----------------  -----------------  -----------------  -----------------
         O           -2.519637989672    -0.515743328111     0.028708868051    15.994914619570
         O           -0.088821989672    -1.463620328111     0.172054868051    15.994914619570
         N            0.927439010328     0.403708671889    -0.645243131949    14.003074004430
         C           -1.513238989672     0.400936671889    -0.342964131949    12.000000000000
         C            2.272676010328    -0.139810328111    -0.522012131949    12.000000000000
         C           -0.170204489672    -0.280306928111    -0.250039231949    12.000000000000
         C           -1.582976989672     1.621654671889     0.566137868051    12.000000000000
         C            2.854622010328     0.064009671889     0.870270868051    12.000000000000
         H           -1.665433989672     0.708550671889    -1.389860131949     1.007825032230
         H            2.206010010328    -1.204834328111    -0.752218131949     1.007825032230
         H            2.894982010328     0.333820671889    -1.286448131949     1.007825032230
         H            0.794393010328     1.373907571889    -0.898533031949     1.007825032230
         H           -1.354946989672     1.325007671889     1.592425868051     1.007825032230
         H           -2.596777989672     2.024947671889     0.539835868051     1.007825032230
         H           -0.890394989672     2.411872671889     0.259949868051     1.007825032230
         H            2.905783010328     1.126983671889     1.120315868051     1.007825032230
         H            2.227637010328    -0.441820328111     1.607780868051     1.007825032230
         H            3.864674010328    -0.352104328111     0.929502868051     1.007825032230
         H           -2.031084989672    -1.344200328111     0.229441868051     1.007825032230

  Basis Set: AUG-CC-PVTZ
    Blend: AUG-CC-PVTZ
  Basis Set: (AUG-CC-PVTZ AUX)
    Blend: AUG-CC-PVTZ-JKFIT
	 Reference Energy          =    -400.0850713927412698 [Eh]
	 Singles Energy            =      -0.0000000000000000 [Eh]
	 Same-Spin Energy          =      -0.4026454308460348 [Eh]
	 Opposite-Spin Energy      =      -1.3086474229285749 [Eh]
	 Correlation Energy        =      -1.7112928537746097 [Eh]
	 Total Energy              =    -401.7963642465159069 [Eh]

	 ================> DF-SCS-MP2 Energies <==================
	-----------------------------------------------------------
	 SCS Same-Spin Scale       =       0.3333333333333333 [-]
	 SCS Opposite-Spin Scale   =       1.2000000000000000 [-]
	 SCS Same-Spin Energy      =      -0.1342151436153449 [Eh]
	 SCS Opposite-Spin Energy  =      -1.5703769075142899 [Eh]
	 SCS Correlation Energy    =      -1.7045920511296349 [Eh]
	 SCS Total Energy          =    -401.7896634438708929 [Eh]
	-----------------------------------------------------------

  Dipole Moment: [D]
     X:     3.0610      Y:     3.2697      Z:    -1.0595     Total:     4.6026

*** Psi4 exiting successfully. Buy a developer a beer!
