                               Psi4 1.3.2 release

  ==> Input File <==

--------------------------------------------------------------------------
#psi4
#
memory 32 gb

molecule  {
0 1
  O       -2.5211540    -0.5137840     0.0284240
  O       -0.0903380    -1.4616610     0.1717700
  N        0.9259230     0.4056680    -0.6455280
  C       -1.5062364     0.3941842    -0.3414651
  C        2.2711600    -0.1378510    -0.5222970
  C       -0.1583790    -0.2975740    -0.2472510
  C       -1.5844930     1.6236140     0.5658530
  C        2.8531060     0.0659690     0.8699860
  H       -1.6669500     0.7105100    -1.3901450
  H        2.2044940    -1.2028750    -0.7525030
  H        2.8934660     0.3357800    -1.2867330
  H        0.8101310     1.3771570    -0.9023240
  H       -1.3564630     1.3269670     1.5921410
  H       -2.5982940     2.0269070     0.5395510
  H       -0.8919110     2.4138320     0.2596650
  H        2.9042670     1.1289430     1.1200310
  H        2.2261210    -0.4398610     1.6074960
  H        3.8631580    -0.3501450     0.9292180
  H       -2.0252230    -1.3383041     0.2272653
units angstrom
no_reorient  #important for SAPT in psi4, default
symmetry c1  #important for SAPT in psi4, default
}

set PROPERTIES_ORIGIN ["COM"]
properties('MP2/aug-cc-pvtz', properties = ['dipole'])
--------------------------------------------------------------------------

    Molecular point group: c1
  Charge       = 0
  Multiplicity = 1
  Basis Set: AUG-CC-PVTZ
    Blend: AUG-CC-PVTZ
  Basis Set: (AUG-CC-PVTZ AUX)
    Blend: AUG-CC-PVTZ-JKFIT

    Orbital Energies [Eh]
    ---------------------

    Doubly Occupied:

       1A    -20.548927     2A    -20.533809     3A    -15.598952
       4A    -11.359389     5A    -11.298123     6A    -11.273967
       7A    -11.231744     8A    -11.224491     9A     -1.399531
      10A     -1.347244    11A     -1.246365    12A     -1.053164
      13A     -1.012245    14A     -0.904342    15A     -0.849844
      16A     -0.794434    17A     -0.745002    18A     -0.677125
      19A     -0.648758    20A     -0.642561    21A     -0.611487
      22A     -0.599610    23A     -0.574397    24A     -0.563078
      25A     -0.544672    26A     -0.534617    27A     -0.521105
      28A     -0.516588    29A     -0.502898    30A     -0.444844
      31A     -0.437964    32A     -0.403685

  @DF-RHF Final Energy:  -400.08743455737584

   => Energetics <=

    Nuclear Repulsion Energy =            400.6057866074043545
    One-Electron Energy =               -1340.0965178131280027
    Two-Electron Energy =                 539.4032966483478049
    Total Energy =                       -400.0874345573759001
  Basis Set: (AUG-CC-PVTZ AUX)
    Blend: AUG-CC-PVTZ-RI
    Molecular point group: c1

    Geometry (in Angstrom), charge = 0, multiplicity = 1:

       Center              X                  Y                   Z               Mass
    ------------   -----------------  -----------------  -----------------  -----------------
         O           -2.522090572960    -0.512924799093     0.028257514933    15.994914619570
         O           -0.091274572960    -1.460801799093     0.171603514933    15.994914619570
         N            0.924986427040     0.406527200907    -0.645694485067    14.003074004430
         C           -1.507172972960     0.395043400907    -0.341631585067    12.000000000000
         C            2.270223427040    -0.136991799093    -0.522463485067    12.000000000000
         C           -0.159315572960    -0.296714799093    -0.247417485067    12.000000000000
         C           -1.585429572960     1.624473200907     0.565686514933    12.000000000000
         C            2.852169427040     0.066828200907     0.869819514933    12.000000000000
         H           -1.667886572960     0.711369200907    -1.390311485067     1.007825032230
         H            2.203557427040    -1.202015799093    -0.752669485067     1.007825032230
         H            2.892529427040     0.336639200907    -1.286899485067     1.007825032230
         H            0.809194427040     1.378016200907    -0.902490485067     1.007825032230
         H           -1.357399572960     1.327826200907     1.591974514933     1.007825032230
         H           -2.599230572960     2.027766200907     0.539384514933     1.007825032230
         H           -0.892847572960     2.414691200907     0.259498514933     1.007825032230
         H            2.903330427040     1.129802200907     1.119864514933     1.007825032230
         H            2.225184427040    -0.439001799093     1.607329514933     1.007825032230
         H            3.862221427040    -0.349285799093     0.929051514933     1.007825032230
         H           -2.026159572960    -1.337444899093     0.227098814933     1.007825032230

  Basis Set: AUG-CC-PVTZ
    Blend: AUG-CC-PVTZ
  Basis Set: (AUG-CC-PVTZ AUX)
    Blend: AUG-CC-PVTZ-JKFIT
	 Reference Energy          =    -400.0874345573758433 [Eh]
	 Singles Energy            =      -0.0000000000000000 [Eh]
	 Same-Spin Energy          =      -0.4021897353307634 [Eh]
	 Opposite-Spin Energy      =      -1.3077639214035033 [Eh]
	 Correlation Energy        =      -1.7099536567342666 [Eh]
	 Total Energy              =    -401.7973882141101285 [Eh]

	 ================> DF-SCS-MP2 Energies <==================
	-----------------------------------------------------------
	 SCS Same-Spin Scale       =       0.3333333333333333 [-]
	 SCS Opposite-Spin Scale   =       1.2000000000000000 [-]
	 SCS Same-Spin Energy      =      -0.1340632451102545 [Eh]
	 SCS Opposite-Spin Energy  =      -1.5693167056842039 [Eh]
	 SCS Correlation Energy    =      -1.7033799507944583 [Eh]
	 SCS Total Energy          =    -401.7908145081702855 [Eh]
	-----------------------------------------------------------

  Dipole Moment: [D]
     X:     3.1073      Y:     3.1739      Z:    -1.0462     Total:     4.5632

*** Psi4 exiting successfully. Buy a developer a beer!
