                               Psi4 1.3.2 release

  ==> Input File <==

--------------------------------------------------------------------------
#psi4
#
memory 32 gb

molecule  {
0 1
  O       -2.5211540    -0.5137840     0.0284240
  O       -0.0903380    -1.4616610     0.1717700
  N        0.9259230     0.4056680    -0.6455280
  C       -1.5147550     0.4028960    -0.3432490
  C        2.2711600    -0.1378510    -0.5222970
  C       -0.1473965    -0.4854701    -0.1796165
  C       -1.5844930     1.6236140     0.5658530
  C        2.8531060     0.0659690     0.8699860
  H       -1.6669500     0.7105100    -1.3901450
  H        2.2044940    -1.2028750    -0.7525030
  H        2.8934660     0.3357800    -1.2867330
  H        0.8101310     1.3771570    -0.9023240
  H       -1.3564630     1.3269670     1.5921410
  H       -2.5982940     2.0269070     0.5395510
  H       -0.8919110     2.4138320     0.2596650
  H        2.9042670     1.1289430     1.1200310
  H        2.2261210    -0.4398610     1.6074960
  H        3.8631580    -0.3501450     0.9292180
  H       -2.0326010    -1.3422410     0.2291570
units angstrom
no_reorient  #important for SAPT in psi4, default
symmetry c1  #important for SAPT in psi4, default
}

set PROPERTIES_ORIGIN ["COM"]
properties('MP2/aug-cc-pvtz', properties = ['dipole'])
--------------------------------------------------------------------------

    Molecular point group: c1
  Charge       = 0
  Multiplicity = 1
  Basis Set: AUG-CC-PVTZ
    Blend: AUG-CC-PVTZ
  Basis Set: (AUG-CC-PVTZ AUX)
    Blend: AUG-CC-PVTZ-JKFIT

    Orbital Energies [Eh]
    ---------------------

    Doubly Occupied:

       1A    -20.575215     2A    -20.548365     3A    -15.565717
       4A    -11.351901     5A    -11.289160     6A    -11.259076
       7A    -11.224520     8A    -11.217305     9A     -1.551277
      10A     -1.356772    11A     -1.209550    12A     -1.029297
      13A     -0.996614    14A     -0.877899    15A     -0.831283
      16A     -0.785904    17A     -0.757838    18A     -0.717858
      19A     -0.678933    20A     -0.637606    21A     -0.632646
      22A     -0.601466    23A     -0.576042    24A     -0.566575
      25A     -0.557889    26A     -0.547632    27A     -0.532490
      28A     -0.525162    29A     -0.499783    30A     -0.443157
      31A     -0.403179    32A     -0.388221

  @DF-RHF Final Energy:  -400.01333060402334

   => Energetics <=

    Nuclear Repulsion Energy =            401.5898071263729889
    One-Electron Energy =               -1341.7336135282434952
    Two-Electron Energy =                 540.1304757978472253
    Total Energy =                       -400.0133306040232810
  Basis Set: (AUG-CC-PVTZ AUX)
    Blend: AUG-CC-PVTZ-RI
    Molecular point group: c1

    Geometry (in Angstrom), charge = 0, multiplicity = 1:

       Center              X                  Y                   Z               Mass
    ------------   -----------------  -----------------  -----------------  -----------------
         O           -2.522279599779    -0.494525430289     0.021491879359    15.994914619570
         O           -0.091463599779    -1.442402430289     0.164837879359    15.994914619570
         N            0.924797400221     0.424926569711    -0.652460120641    14.003074004430
         C           -1.515880599779     0.422154569711    -0.350181120641    12.000000000000
         C            2.270034400221    -0.118592430289    -0.529229120641    12.000000000000
         C           -0.148522099779    -0.466211530289    -0.186548620641    12.000000000000
         C           -1.585618599779     1.642872569711     0.558920879359    12.000000000000
         C            2.851980400221     0.085227569711     0.863053879359    12.000000000000
         H           -1.668075599779     0.729768569711    -1.397077120641     1.007825032230
         H            2.203368400221    -1.183616430289    -0.759435120641     1.007825032230
         H            2.892340400221     0.355038569711    -1.293665120641     1.007825032230
         H            0.809005400221     1.396415569711    -0.909256120641     1.007825032230
         H           -1.357588599779     1.346225569711     1.585208879359     1.007825032230
         H           -2.599419599779     2.046165569711     0.532618879359     1.007825032230
         H           -0.893036599779     2.433090569711     0.252732879359     1.007825032230
         H            2.903141400221     1.148201569711     1.113098879359     1.007825032230
         H            2.224995400221    -0.420602430289     1.600563879359     1.007825032230
         H            3.862032400221    -0.330886430289     0.922285879359     1.007825032230
         H           -2.033726599779    -1.322982430289     0.222224879359     1.007825032230

  Basis Set: AUG-CC-PVTZ
    Blend: AUG-CC-PVTZ
  Basis Set: (AUG-CC-PVTZ AUX)
    Blend: AUG-CC-PVTZ-JKFIT
	 Reference Energy          =    -400.0133306040233379 [Eh]
	 Singles Energy            =      -0.0000000000000000 [Eh]
	 Same-Spin Energy          =      -0.3984190770200154 [Eh]
	 Opposite-Spin Energy      =      -1.3009567298395501 [Eh]
	 Correlation Energy        =      -1.6993758068595655 [Eh]
	 Total Energy              =    -401.7127064108829018 [Eh]

	 ================> DF-SCS-MP2 Energies <==================
	-----------------------------------------------------------
	 SCS Same-Spin Scale       =       0.3333333333333333 [-]
	 SCS Opposite-Spin Scale   =       1.2000000000000000 [-]
	 SCS Same-Spin Energy      =      -0.1328063590066718 [Eh]
	 SCS Opposite-Spin Energy  =      -1.5611480758074601 [Eh]
	 SCS Correlation Energy    =      -1.6939544348141318 [Eh]
	 SCS Total Energy          =    -401.7072850388374832 [Eh]
	-----------------------------------------------------------

  Dipole Moment: [D]
     X:     2.5205      Y:     1.8597      Z:    -0.5997     Total:     3.1892

*** Psi4 exiting successfully. Buy a developer a beer!
