                               Psi4 1.3.2 release

  ==> Input File <==

--------------------------------------------------------------------------
#psi4
#
memory 32 gb

molecule  {
0 1
  O       -2.5211540    -0.5137840     0.0284240
  O       -0.0903380    -1.4616610     0.1717700
  N        0.9259230     0.4056680    -0.6455280
  C       -1.5147550     0.4028960    -0.3432490
  C        2.1787744    -0.1005243    -0.5307600
  C       -0.1583790    -0.2975740    -0.2472510
  C       -1.5844930     1.6236140     0.5658530
  C        2.8531060     0.0659690     0.8699860
  H       -1.6669500     0.7105100    -1.3901450
  H        2.2044940    -1.2028750    -0.7525030
  H        2.8934660     0.3357800    -1.2867330
  H        0.8101310     1.3771570    -0.9023240
  H       -1.3564630     1.3269670     1.5921410
  H       -2.5982940     2.0269070     0.5395510
  H       -0.8919110     2.4138320     0.2596650
  H        2.9042670     1.1289430     1.1200310
  H        2.2261210    -0.4398610     1.6074960
  H        3.8631580    -0.3501450     0.9292180
  H       -2.0326010    -1.3422410     0.2291570
units angstrom
no_reorient  #important for SAPT in psi4, default
symmetry c1  #important for SAPT in psi4, default
}

set PROPERTIES_ORIGIN ["COM"]
properties('MP2/aug-cc-pvtz', properties = ['dipole'])
--------------------------------------------------------------------------

    Molecular point group: c1
  Charge       = 0
  Multiplicity = 1
  Basis Set: AUG-CC-PVTZ
    Blend: AUG-CC-PVTZ
  Basis Set: (AUG-CC-PVTZ AUX)
    Blend: AUG-CC-PVTZ-JKFIT

    Orbital Energies [Eh]
    ---------------------

    Doubly Occupied:

       1A    -20.551022     2A    -20.538329     3A    -15.602819
       4A    -11.363505     5A    -11.301261     6A    -11.271998
       7A    -11.233746     8A    -11.221910     9A     -1.404381
      10A     -1.350731    11A     -1.270792    12A     -1.054170
      13A     -1.005284    14A     -0.910700    15A     -0.849133
      16A     -0.804543    17A     -0.746707    18A     -0.687801
      19A     -0.660824    20A     -0.645135    21A     -0.615374
      22A     -0.590907    23A     -0.579261    24A     -0.565939
      25A     -0.545758    26A     -0.536377    27A     -0.521244
      28A     -0.510406    29A     -0.488570    30A     -0.448543
      31A     -0.441106    32A     -0.397885

  @DF-RHF Final Energy:  -400.07658591084277

   => Energetics <=

    Nuclear Repulsion Energy =            401.9316952137990597
    One-Electron Energy =               -1342.5842424460101938
    Two-Electron Energy =                 540.5759613213683679
    Total Energy =                       -400.0765859108428231
  Basis Set: (AUG-CC-PVTZ AUX)
    Blend: AUG-CC-PVTZ-RI
    Molecular point group: c1

    Geometry (in Angstrom), charge = 0, multiplicity = 1:

       Center              X                  Y                   Z               Mass
    ------------   -----------------  -----------------  -----------------  -----------------
         O           -2.511684895120    -0.517609622109     0.029291486179    15.994914619570
         O           -0.080868895120    -1.465486622109     0.172637486179    15.994914619570
         N            0.935392104880     0.401842377891    -0.644660513821    14.003074004430
         C           -1.505285895120     0.399070377891    -0.342381513821    12.000000000000
         C            2.188243504880    -0.104349922109    -0.529892513821    12.000000000000
         C           -0.148909895120    -0.301399622109    -0.246383513821    12.000000000000
         C           -1.575023895120     1.619788377891     0.566720486179    12.000000000000
         C            2.862575104880     0.062143377891     0.870853486179    12.000000000000
         H           -1.657480895120     0.706684377891    -1.389277513821     1.007825032230
         H            2.213963104880    -1.206700622109    -0.751635513821     1.007825032230
         H            2.902935104880     0.331954377891    -1.285865513821     1.007825032230
         H            0.819600104880     1.373331377891    -0.901456513821     1.007825032230
         H           -1.346993895120     1.323141377891     1.593008486179     1.007825032230
         H           -2.588824895120     2.023081377891     0.540418486179     1.007825032230
         H           -0.882441895120     2.410006377891     0.260532486179     1.007825032230
         H            2.913736104880     1.125117377891     1.120898486179     1.007825032230
         H            2.235590104880    -0.443686622109     1.608363486179     1.007825032230
         H            3.872627104880    -0.353970622109     0.930085486179     1.007825032230
         H           -2.023131895120    -1.346066622109     0.230024486179     1.007825032230

  Basis Set: AUG-CC-PVTZ
    Blend: AUG-CC-PVTZ
  Basis Set: (AUG-CC-PVTZ AUX)
    Blend: AUG-CC-PVTZ-JKFIT
	 Reference Energy          =    -400.0765859108427662 [Eh]
	 Singles Energy            =      -0.0000000000000000 [Eh]
	 Same-Spin Energy          =      -0.4029667161585639 [Eh]
	 Opposite-Spin Energy      =      -1.3083439578740492 [Eh]
	 Correlation Energy        =      -1.7113106740326132 [Eh]
	 Total Energy              =    -401.7878965848753978 [Eh]

	 ================> DF-SCS-MP2 Energies <==================
	-----------------------------------------------------------
	 SCS Same-Spin Scale       =       0.3333333333333333 [-]
	 SCS Opposite-Spin Scale   =       1.2000000000000000 [-]
	 SCS Same-Spin Energy      =      -0.1343222387195213 [Eh]
	 SCS Opposite-Spin Energy  =      -1.5700127494488589 [Eh]
	 SCS Correlation Energy    =      -1.7043349881683802 [Eh]
	 SCS Total Energy          =    -401.7809208990111642 [Eh]
	-----------------------------------------------------------

  Dipole Moment: [D]
     X:     2.7502      Y:     3.2081      Z:    -1.0873     Total:     4.3632

*** Psi4 exiting successfully. Buy a developer a beer!
