                               Psi4 1.3.2 release

  ==> Input File <==

--------------------------------------------------------------------------
#psi4
#
memory 32 gb

molecule  {
0 1
  O       -2.5211540    -0.5137840     0.0284240
  O       -0.0903380    -1.4616610     0.1717700
  N        0.9259230     0.4056680    -0.6455280
  C       -1.5147550     0.4028960    -0.3432490
  C        2.2711600    -0.1378510    -0.5222970
  C       -0.0697029    -0.3433688    -0.2409749
  C       -1.5844930     1.6236140     0.5658530
  C        2.8531060     0.0659690     0.8699860
  H       -1.6669500     0.7105100    -1.3901450
  H        2.2044940    -1.2028750    -0.7525030
  H        2.8934660     0.3357800    -1.2867330
  H        0.8101310     1.3771570    -0.9023240
  H       -1.3564630     1.3269670     1.5921410
  H       -2.5982940     2.0269070     0.5395510
  H       -0.8919110     2.4138320     0.2596650
  H        2.9042670     1.1289430     1.1200310
  H        2.2261210    -0.4398610     1.6074960
  H        3.8631580    -0.3501450     0.9292180
  H       -2.0326010    -1.3422410     0.2291570
units angstrom
no_reorient  #important for SAPT in psi4, default
symmetry c1  #important for SAPT in psi4, default
}

set PROPERTIES_ORIGIN ["COM"]
properties('MP2/aug-cc-pvtz', properties = ['dipole'])
--------------------------------------------------------------------------

    Molecular point group: c1
  Charge       = 0
  Multiplicity = 1
  Basis Set: AUG-CC-PVTZ
    Blend: AUG-CC-PVTZ
  Basis Set: (AUG-CC-PVTZ AUX)
    Blend: AUG-CC-PVTZ-JKFIT

    Orbital Energies [Eh]
    ---------------------

    Doubly Occupied:

       1A    -20.543626     2A    -20.536220     3A    -15.601266
       4A    -11.352396     5A    -11.290915     6A    -11.275609
       7A    -11.227458     8A    -11.224606     9A     -1.420429
      10A     -1.345451    11A     -1.266441    12A     -1.045803
      13A     -1.009356    14A     -0.894928    15A     -0.839683
      16A     -0.811409    17A     -0.734989    18A     -0.678660
      19A     -0.650195    20A     -0.645288    21A     -0.614936
      22A     -0.610693    23A     -0.573361    24A     -0.558764
      25A     -0.546985    26A     -0.532338    27A     -0.529601
      28A     -0.518207    29A     -0.506983    30A     -0.440528
      31A     -0.415222    32A     -0.410728

  @DF-RHF Final Energy:  -400.08054508421156

   => Energetics <=

    Nuclear Repulsion Energy =            400.7937276702859890
    One-Electron Energy =               -1340.4423995506442679
    Two-Electron Energy =                 539.5681267961466574
    Total Energy =                       -400.0805450842116215
  Basis Set: (AUG-CC-PVTZ AUX)
    Blend: AUG-CC-PVTZ-RI
    Molecular point group: c1

    Geometry (in Angstrom), charge = 0, multiplicity = 1:

       Center              X                  Y                   Z               Mass
    ------------   -----------------  -----------------  -----------------  -----------------
         O           -2.530242798733    -0.509090091003     0.027780803373    15.994914619570
         O           -0.099426798733    -1.456967091003     0.171126803373    15.994914619570
         N            0.916834201267     0.410361908997    -0.646171196627    14.003074004430
         C           -1.523843798733     0.407589908997    -0.343892196627    12.000000000000
         C            2.262071201267    -0.133157091003    -0.522940196627    12.000000000000
         C           -0.078791698733    -0.338674891003    -0.241618096627    12.000000000000
         C           -1.593581798733     1.628307908997     0.565209803373    12.000000000000
         C            2.844017201267     0.070662908997     0.869342803373    12.000000000000
         H           -1.676038798733     0.715203908997    -1.390788196627     1.007825032230
         H            2.195405201267    -1.198181091003    -0.753146196627     1.007825032230
         H            2.884377201267     0.340473908997    -1.287376196627     1.007825032230
         H            0.801042201267     1.381850908997    -0.902967196627     1.007825032230
         H           -1.365551798733     1.331660908997     1.591497803373     1.007825032230
         H           -2.607382798733     2.031600908997     0.538907803373     1.007825032230
         H           -0.900999798733     2.418525908997     0.259021803373     1.007825032230
         H            2.895178201267     1.133636908997     1.119387803373     1.007825032230
         H            2.217032201267    -0.435167091003     1.606852803373     1.007825032230
         H            3.854069201267    -0.345451091003     0.928574803373     1.007825032230
         H           -2.041689798733    -1.337547091003     0.228513803373     1.007825032230

  Basis Set: AUG-CC-PVTZ
    Blend: AUG-CC-PVTZ
  Basis Set: (AUG-CC-PVTZ AUX)
    Blend: AUG-CC-PVTZ-JKFIT
	 Reference Energy          =    -400.0805450842115647 [Eh]
	 Singles Energy            =      -0.0000000000000000 [Eh]
	 Same-Spin Energy          =      -0.4012332094824662 [Eh]
	 Opposite-Spin Energy      =      -1.3057232552811675 [Eh]
	 Correlation Energy        =      -1.7069564647636337 [Eh]
	 Total Energy              =    -401.7875015489751718 [Eh]

	 ================> DF-SCS-MP2 Energies <==================
	-----------------------------------------------------------
	 SCS Same-Spin Scale       =       0.3333333333333333 [-]
	 SCS Opposite-Spin Scale   =       1.2000000000000000 [-]
	 SCS Same-Spin Energy      =      -0.1337444031608221 [Eh]
	 SCS Opposite-Spin Energy  =      -1.5668679063374009 [Eh]
	 SCS Correlation Energy    =      -1.7006123094982231 [Eh]
	 SCS Total Energy          =    -401.7811573937098046 [Eh]
	-----------------------------------------------------------

  Dipole Moment: [D]
     X:     3.5408      Y:     2.9670      Z:    -1.0523     Total:     4.7379

*** Psi4 exiting successfully. Buy a developer a beer!
