                               Psi4 1.3.2 release

  ==> Input File <==

--------------------------------------------------------------------------
#psi4
#
memory 32 gb

molecule  {
0 1
  O       -2.5211540    -0.5137840     0.0284240
  O       -0.0903380    -1.4616610     0.1717700
  N        0.9259230     0.4056680    -0.6455280
  C       -1.5147550     0.4028960    -0.3432490
  C        2.2711600    -0.1378510    -0.5222970
  C       -0.1547457    -0.2936136    -0.2734004
  C       -1.5844930     1.6236140     0.5658530
  C        2.8531060     0.0659690     0.8699860
  H       -1.6498591     0.7029522    -1.3946738
  H        2.2044940    -1.2028750    -0.7525030
  H        2.8934660     0.3357800    -1.2867330
  H        0.8101310     1.3771570    -0.9023240
  H       -1.3564630     1.3269670     1.5921410
  H       -2.5982940     2.0269070     0.5395510
  H       -0.8919110     2.4138320     0.2596650
  H        2.9042670     1.1289430     1.1200310
  H        2.2261210    -0.4398610     1.6074960
  H        3.8631580    -0.3501450     0.9292180
  H       -2.0326010    -1.3422410     0.2291570
units angstrom
no_reorient  #important for SAPT in psi4, default
symmetry c1  #important for SAPT in psi4, default
}

set PROPERTIES_ORIGIN ["COM"]
properties('MP2/aug-cc-pvtz', properties = ['dipole'])
--------------------------------------------------------------------------

    Molecular point group: c1
  Charge       = 0
  Multiplicity = 1
  Basis Set: AUG-CC-PVTZ
    Blend: AUG-CC-PVTZ
  Basis Set: (AUG-CC-PVTZ AUX)
    Blend: AUG-CC-PVTZ-JKFIT

    Orbital Energies [Eh]
    ---------------------

    Doubly Occupied:

       1A    -20.548355     2A    -20.530012     3A    -15.601278
       4A    -11.358624     5A    -11.298487     6A    -11.275049
       7A    -11.231815     8A    -11.225023     9A     -1.392625
      10A     -1.344535    11A     -1.248637    12A     -1.053930
      13A     -1.013996    14A     -0.904480    15A     -0.850843
      16A     -0.797040    17A     -0.742365    18A     -0.677057
      19A     -0.650757    20A     -0.639476    21A     -0.611366
      22A     -0.598942    23A     -0.575285    24A     -0.563476
      25A     -0.544569    26A     -0.535157    27A     -0.519182
      28A     -0.512798    29A     -0.502723    30A     -0.446322
      31A     -0.434040    32A     -0.403938

  @DF-RHF Final Energy:  -400.08634971607160

   => Energetics <=

    Nuclear Repulsion Energy =            400.3655546640167699
    One-Electron Energy =               -1339.6394421844661338
    Two-Electron Energy =                 539.1875378043777118
    Total Energy =                       -400.0863497160715951
  Basis Set: (AUG-CC-PVTZ AUX)
    Blend: AUG-CC-PVTZ-RI
    Molecular point group: c1

    Geometry (in Angstrom), charge = 0, multiplicity = 1:

       Center              X                  Y                   Z               Mass
    ------------   -----------------  -----------------  -----------------  -----------------
         O           -2.521673463955    -0.514124687880     0.031143236516    15.994914619570
         O           -0.090857463955    -1.462001687880     0.174489236516    15.994914619570
         N            0.925403536045     0.405327312120    -0.642808763484    14.003074004430
         C           -1.515274463955     0.402555312120    -0.340529763484    12.000000000000
         C            2.270640536045    -0.138191687880    -0.519577763484    12.000000000000
         C           -0.155265163955    -0.293954287880    -0.270681163484    12.000000000000
         C           -1.585012463955     1.623273312120     0.568572236516    12.000000000000
         C            2.852586536045     0.065628312120     0.872705236516    12.000000000000
         H           -1.650378563955     0.702611512120    -1.391954563484     1.007825032230
         H            2.203974536045    -1.203215687880    -0.749783763484     1.007825032230
         H            2.892946536045     0.335439312120    -1.284013763484     1.007825032230
         H            0.809611536045     1.376816312120    -0.899604763484     1.007825032230
         H           -1.356982463955     1.326626312120     1.594860236516     1.007825032230
         H           -2.598813463955     2.026566312120     0.542270236516     1.007825032230
         H           -0.892430463955     2.413491312120     0.262384236516     1.007825032230
         H            2.903747536045     1.128602312120     1.122750236516     1.007825032230
         H            2.225601536045    -0.440201687880     1.610215236516     1.007825032230
         H            3.862638536045    -0.350485687880     0.931937236516     1.007825032230
         H           -2.033120463955    -1.342581687880     0.231876236516     1.007825032230

  Basis Set: AUG-CC-PVTZ
    Blend: AUG-CC-PVTZ
  Basis Set: (AUG-CC-PVTZ AUX)
    Blend: AUG-CC-PVTZ-JKFIT
	 Reference Energy          =    -400.0863497160715951 [Eh]
	 Singles Energy            =      -0.0000000000000000 [Eh]
	 Same-Spin Energy          =      -0.4023408488771568 [Eh]
	 Opposite-Spin Energy      =      -1.3080357763580719 [Eh]
	 Correlation Energy        =      -1.7103766252352286 [Eh]
	 Total Energy              =    -401.7967263413068508 [Eh]

	 ================> DF-SCS-MP2 Energies <==================
	-----------------------------------------------------------
	 SCS Same-Spin Scale       =       0.3333333333333333 [-]
	 SCS Opposite-Spin Scale   =       1.2000000000000000 [-]
	 SCS Same-Spin Energy      =      -0.1341136162923856 [Eh]
	 SCS Opposite-Spin Energy  =      -1.5696429316296863 [Eh]
	 SCS Correlation Energy    =      -1.7037565479220718 [Eh]
	 SCS Total Energy          =    -401.7901062639936640 [Eh]
	-----------------------------------------------------------

  Dipole Moment: [D]
     X:     3.1690      Y:     3.2491      Z:    -1.0831     Total:     4.6661

*** Psi4 exiting successfully. Buy a developer a beer!
