                               Psi4 1.3.2 release

  ==> Input File <==

--------------------------------------------------------------------------
#psi4
#
memory 32 gb

molecule  {
0 1
  O       -2.4903447    -0.5174470     0.0954713
  O       -0.0903380    -1.4616610     0.1717700
  N        0.9259230     0.4056680    -0.6455280
  C       -1.5147550     0.4028960    -0.3432490
  C        2.2711600    -0.1378510    -0.5222970
  C       -0.1583790    -0.2975740    -0.2472510
  C       -1.5844930     1.6236140     0.5658530
  C        2.8531060     0.0659690     0.8699860
  H       -1.6203139     0.7441254    -1.3854585
  H        2.2044940    -1.2028750    -0.7525030
  H        2.8934660     0.3357800    -1.2867330
  H        0.8101310     1.3771570    -0.9023240
  H       -1.3564630     1.3269670     1.5921410
  H       -2.5982940     2.0269070     0.5395510
  H       -0.8919110     2.4138320     0.2596650
  H        2.9042670     1.1289430     1.1200310
  H        2.2261210    -0.4398610     1.6074960
  H        3.8631580    -0.3501450     0.9292180
  H       -2.0326010    -1.3422410     0.2291570
units angstrom
no_reorient  #important for SAPT in psi4, default
symmetry c1  #important for SAPT in psi4, default
}

set PROPERTIES_ORIGIN ["COM"]
properties('MP2/aug-cc-pvtz', properties = ['dipole'])
--------------------------------------------------------------------------

    Molecular point group: c1
  Charge       = 0
  Multiplicity = 1
  Basis Set: AUG-CC-PVTZ
    Blend: AUG-CC-PVTZ
  Basis Set: (AUG-CC-PVTZ AUX)
    Blend: AUG-CC-PVTZ-JKFIT

    Orbital Energies [Eh]
    ---------------------

    Doubly Occupied:

       1A    -20.547608     2A    -20.531810     3A    -15.597774
       4A    -11.357657     5A    -11.299740     6A    -11.273158
       7A    -11.230677     8A    -11.223817     9A     -1.399763
      10A     -1.350780    11A     -1.245136    12A     -1.054162
      13A     -1.013307    14A     -0.902930    15A     -0.849845
      16A     -0.793729    17A     -0.745433    18A     -0.682781
      19A     -0.653248    20A     -0.640678    21A     -0.611136
      22A     -0.598344    23A     -0.575172    24A     -0.562573
      25A     -0.544395    26A     -0.535342    27A     -0.519889
      28A     -0.514766    29A     -0.501647    30A     -0.449209
      31A     -0.434233    32A     -0.402553

  @DF-RHF Final Energy:  -400.08722955734459

   => Energetics <=

    Nuclear Repulsion Energy =            401.0975648812492409
    One-Electron Energy =               -1341.0830004878368982
    Two-Electron Energy =                 539.8982060492430719
    Total Energy =                       -400.0872295573445854
  Basis Set: (AUG-CC-PVTZ AUX)
    Blend: AUG-CC-PVTZ-RI
    Molecular point group: c1

    Geometry (in Angstrom), charge = 0, multiplicity = 1:

       Center              X                  Y                   Z               Mass
    ------------   -----------------  -----------------  -----------------  -----------------
         O           -2.494955153822    -0.517235763090     0.086271265732    15.994914619570
         O           -0.094948453822    -1.461449763090     0.162569965732    15.994914619570
         N            0.921312546178     0.405879236910    -0.654728034268    14.003074004430
         C           -1.519365453822     0.403107236910    -0.352449034268    12.000000000000
         C            2.266549546178    -0.137639763090    -0.531497034268    12.000000000000
         C           -0.162989453822    -0.297362763090    -0.256451034268    12.000000000000
         C           -1.589103453822     1.623825236910     0.556652965732    12.000000000000
         C            2.848495546178     0.066180236910     0.860785965732    12.000000000000
         H           -1.624924353822     0.744336636910    -1.394658534268     1.007825032230
         H            2.199883546178    -1.202663763090    -0.761703034268     1.007825032230
         H            2.888855546178     0.335991236910    -1.295933034268     1.007825032230
         H            0.805520546178     1.377368236910    -0.911524034268     1.007825032230
         H           -1.361073453822     1.327178236910     1.582940965732     1.007825032230
         H           -2.602904453822     2.027118236910     0.530350965732     1.007825032230
         H           -0.896521453822     2.414043236910     0.250464965732     1.007825032230
         H            2.899656546178     1.129154236910     1.110830965732     1.007825032230
         H            2.221510546178    -0.439649763090     1.598295965732     1.007825032230
         H            3.858547546178    -0.349933763090     0.920017965732     1.007825032230
         H           -2.037211453822    -1.342029763090     0.219956965732     1.007825032230

  Basis Set: AUG-CC-PVTZ
    Blend: AUG-CC-PVTZ
  Basis Set: (AUG-CC-PVTZ AUX)
    Blend: AUG-CC-PVTZ-JKFIT
	 Reference Energy          =    -400.0872295573445854 [Eh]
	 Singles Energy            =      -0.0000000000000000 [Eh]
	 Same-Spin Energy          =      -0.4017943254177054 [Eh]
	 Opposite-Spin Energy      =      -1.3067645515086934 [Eh]
	 Correlation Energy        =      -1.7085588769263989 [Eh]
	 Total Energy              =    -401.7957884342710031 [Eh]

	 ================> DF-SCS-MP2 Energies <==================
	-----------------------------------------------------------
	 SCS Same-Spin Scale       =       0.3333333333333333 [-]
	 SCS Opposite-Spin Scale   =       1.2000000000000000 [-]
	 SCS Same-Spin Energy      =      -0.1339314418059018 [Eh]
	 SCS Opposite-Spin Energy  =      -1.5681174618104321 [Eh]
	 SCS Correlation Energy    =      -1.7020489036163340 [Eh]
	 SCS Total Energy          =    -401.7892784609609294 [Eh]
	-----------------------------------------------------------

  Dipole Moment: [D]
     X:     2.9990      Y:     3.1611      Z:    -1.1729     Total:     4.5125

*** Psi4 exiting successfully. Buy a developer a beer!
