                               Psi4 1.3.2 release

  ==> Input File <==

--------------------------------------------------------------------------
#psi4
#
memory 32 gb

molecule  {
0 1
  O       -2.5211540    -0.5137840     0.0284240
  O       -0.0689131    -1.4612560     0.1688581
  N        0.9395746     0.3870921    -0.6404620
  C       -1.5147550     0.4028960    -0.3432490
  C        2.2711600    -0.1378510    -0.5222970
  C       -0.1583790    -0.2975740    -0.2472510
  C       -1.5844930     1.6236140     0.5658530
  C        2.8531060     0.0659690     0.8699860
  H       -1.6669500     0.7105100    -1.3901450
  H        2.2044940    -1.2028750    -0.7525030
  H        2.8934660     0.3357800    -1.2867330
  H        0.8101310     1.3771570    -0.9023240
  H       -1.3564630     1.3269670     1.5921410
  H       -2.5982940     2.0269070     0.5395510
  H       -0.8919110     2.4138320     0.2596650
  H        2.9042670     1.1289430     1.1200310
  H        2.2261210    -0.4398610     1.6074960
  H        3.8631580    -0.3501450     0.9292180
  H       -2.0326010    -1.3422410     0.2291570
units angstrom
no_reorient  #important for SAPT in psi4, default
symmetry c1  #important for SAPT in psi4, default
}

set PROPERTIES_ORIGIN ["COM"]
properties('MP2/aug-cc-pvtz', properties = ['dipole'])
--------------------------------------------------------------------------

    Molecular point group: c1
  Charge       = 0
  Multiplicity = 1
  Basis Set: AUG-CC-PVTZ
    Blend: AUG-CC-PVTZ
  Basis Set: (AUG-CC-PVTZ AUX)
    Blend: AUG-CC-PVTZ-JKFIT

    Orbital Energies [Eh]
    ---------------------

    Doubly Occupied:

       1A    -20.550714     2A    -20.532109     3A    -15.598659
       4A    -11.358876     5A    -11.300694     6A    -11.271161
       7A    -11.232522     8A    -11.222969     9A     -1.398691
      10A     -1.348960    11A     -1.245363    12A     -1.053955
      13A     -1.012443    14A     -0.904445    15A     -0.850308
      16A     -0.787851    17A     -0.745573    18A     -0.678425
      19A     -0.651973    20A     -0.642077    21A     -0.611547
      22A     -0.596151    23A     -0.576999    24A     -0.564459
      25A     -0.544115    26A     -0.535468    27A     -0.520342
      28A     -0.516310    29A     -0.501089    30A     -0.447514
      31A     -0.436808    32A     -0.400664

  @DF-RHF Final Energy:  -400.08624594629373

   => Energetics <=

    Nuclear Repulsion Energy =            400.6217228704985018
    One-Electron Energy =               -1340.1374679824848499
    Two-Electron Energy =                 539.4294991656926186
    Total Energy =                       -400.0862459462937295
  Basis Set: (AUG-CC-PVTZ AUX)
    Blend: AUG-CC-PVTZ-RI
    Molecular point group: c1

    Geometry (in Angstrom), charge = 0, multiplicity = 1:

       Center              X                  Y                   Z               Mass
    ------------   -----------------  -----------------  -----------------  -----------------
         O           -2.525713724471    -0.511617409242     0.028215973030    15.994914619570
         O           -0.073472824471    -1.459089409242     0.168650073030    15.994914619570
         N            0.935014875529     0.389258690758    -0.640670026970    14.003074004430
         C           -1.519314724471     0.405062590758    -0.343457026970    12.000000000000
         C            2.266600275529    -0.135684409242    -0.522505026970    12.000000000000
         C           -0.162938724471    -0.295407409242    -0.247459026970    12.000000000000
         C           -1.589052724471     1.625780590758     0.565644973030    12.000000000000
         C            2.848546275529     0.068135590758     0.869777973030    12.000000000000
         H           -1.671509724471     0.712676590758    -1.390353026970     1.007825032230
         H            2.199934275529    -1.200708409242    -0.752711026970     1.007825032230
         H            2.888906275529     0.337946590758    -1.286941026970     1.007825032230
         H            0.805571275529     1.379323590758    -0.902532026970     1.007825032230
         H           -1.361022724471     1.329133590758     1.591932973030     1.007825032230
         H           -2.602853724471     2.029073590758     0.539342973030     1.007825032230
         H           -0.896470724471     2.415998590758     0.259456973030     1.007825032230
         H            2.899707275529     1.131109590758     1.119822973030     1.007825032230
         H            2.221561275529    -0.437694409242     1.607287973030     1.007825032230
         H            3.858598275529    -0.347978409242     0.929009973030     1.007825032230
         H           -2.037160724471    -1.340074409242     0.228948973030     1.007825032230

  Basis Set: AUG-CC-PVTZ
    Blend: AUG-CC-PVTZ
  Basis Set: (AUG-CC-PVTZ AUX)
    Blend: AUG-CC-PVTZ-JKFIT
	 Reference Energy          =    -400.0862459462937295 [Eh]
	 Singles Energy            =      -0.0000000000000000 [Eh]
	 Same-Spin Energy          =      -0.4023583462771165 [Eh]
	 Opposite-Spin Energy      =      -1.3079599073514494 [Eh]
	 Correlation Energy        =      -1.7103182536285659 [Eh]
	 Total Energy              =    -401.7965641999222726 [Eh]

	 ================> DF-SCS-MP2 Energies <==================
	-----------------------------------------------------------
	 SCS Same-Spin Scale       =       0.3333333333333333 [-]
	 SCS Opposite-Spin Scale   =       1.2000000000000000 [-]
	 SCS Same-Spin Energy      =      -0.1341194487590388 [Eh]
	 SCS Opposite-Spin Energy  =      -1.5695518888217392 [Eh]
	 SCS Correlation Energy    =      -1.7036713375807782 [Eh]
	 SCS Total Energy          =    -401.7899172838745017 [Eh]
	-----------------------------------------------------------

  Dipole Moment: [D]
     X:     2.9652      Y:     3.2062      Z:    -1.0493     Total:     4.4915

*** Psi4 exiting successfully. Buy a developer a beer!
