                               Psi4 1.3.2 release

  ==> Input File <==

--------------------------------------------------------------------------
#psi4
#
memory 32 gb

molecule  {
0 1
  O       -2.5211540    -0.5137840     0.0284240
  O       -0.0903380    -1.4616610     0.1717700
  N        0.9259230     0.4056680    -0.6455280
  C       -1.5147550     0.4028960    -0.3432490
  C        2.2711600    -0.1378510    -0.5222970
  C       -0.1307093    -0.3353785    -0.2414697
  C       -1.5844930     1.6236140     0.5658530
  C        2.8531060     0.0659690     0.8699860
  H       -1.6669500     0.7105100    -1.3901450
  H        2.2044940    -1.2028750    -0.7525030
  H        2.8934660     0.3357800    -1.2867330
  H        0.8447396     1.3788492    -0.9091005
  H       -1.3564630     1.3269670     1.5921410
  H       -2.5982940     2.0269070     0.5395510
  H       -0.8919110     2.4138320     0.2596650
  H        2.9042670     1.1289430     1.1200310
  H        2.2261210    -0.4398610     1.6074960
  H        3.8631580    -0.3501450     0.9292180
  H       -2.0326010    -1.3422410     0.2291570
units angstrom
no_reorient  #important for SAPT in psi4, default
symmetry c1  #important for SAPT in psi4, default
}

set PROPERTIES_ORIGIN ["COM"]
properties('MP2/aug-cc-pvtz', properties = ['dipole'])
--------------------------------------------------------------------------

    Molecular point group: c1
  Charge       = 0
  Multiplicity = 1
  Basis Set: AUG-CC-PVTZ
    Blend: AUG-CC-PVTZ
  Basis Set: (AUG-CC-PVTZ AUX)
    Blend: AUG-CC-PVTZ-JKFIT

    Orbital Energies [Eh]
    ---------------------

    Doubly Occupied:

       1A    -20.546831     2A    -20.539551     3A    -15.595775
       4A    -11.357084     5A    -11.295224     6A    -11.271853
       7A    -11.228296     8A    -11.224299     9A     -1.418240
      10A     -1.349176    11A     -1.248914    12A     -1.046580
      13A     -1.009999    14A     -0.897230    15A     -0.844089
      16A     -0.799486    17A     -0.741385    18A     -0.678119
      19A     -0.649381    20A     -0.645660    21A     -0.612002
      22A     -0.603996    23A     -0.575081    24A     -0.561082
      25A     -0.544569    26A     -0.533372    27A     -0.528099
      28A     -0.518772    29A     -0.503983    30A     -0.444194
      31A     -0.429637    32A     -0.405556

  @DF-RHF Final Energy:  -400.08753355975938

   => Energetics <=

    Nuclear Repulsion Energy =            400.5709007034819820
    One-Electron Energy =               -1340.0218378609179126
    Two-Electron Energy =                 539.3634035976765517
    Total Energy =                       -400.0875335597593221
  Basis Set: (AUG-CC-PVTZ AUX)
    Blend: AUG-CC-PVTZ-RI
    Molecular point group: c1

    Geometry (in Angstrom), charge = 0, multiplicity = 1:

       Center              X                  Y                   Z               Mass
    ------------   -----------------  -----------------  -----------------  -----------------
         O           -2.524287866474    -0.509923622716     0.027889850500    15.994914619570
         O           -0.093471866474    -1.457800622716     0.171235850500    15.994914619570
         N            0.922789133526     0.409528377284    -0.646062149500    14.003074004430
         C           -1.517888866474     0.406756377284    -0.343783149500    12.000000000000
         C            2.268026133526    -0.133990622716    -0.522831149500    12.000000000000
         C           -0.133843166474    -0.331518122716    -0.242003849500    12.000000000000
         C           -1.587626866474     1.627474377284     0.565318850500    12.000000000000
         C            2.849972133526     0.069829377284     0.869451850500    12.000000000000
         H           -1.670083866474     0.714370377284    -1.390679149500     1.007825032230
         H            2.201360133526    -1.199014622716    -0.753037149500     1.007825032230
         H            2.890332133526     0.339640377284    -1.287267149500     1.007825032230
         H            0.841605733526     1.382709577284    -0.909634649500     1.007825032230
         H           -1.359596866474     1.330827377284     1.591606850500     1.007825032230
         H           -2.601427866474     2.030767377284     0.539016850500     1.007825032230
         H           -0.895044866474     2.417692377284     0.259130850500     1.007825032230
         H            2.901133133526     1.132803377284     1.119496850500     1.007825032230
         H            2.222987133526    -0.436000622716     1.606961850500     1.007825032230
         H            3.860024133526    -0.346284622716     0.928683850500     1.007825032230
         H           -2.035734866474    -1.338380622716     0.228622850500     1.007825032230

  Basis Set: AUG-CC-PVTZ
    Blend: AUG-CC-PVTZ
  Basis Set: (AUG-CC-PVTZ AUX)
    Blend: AUG-CC-PVTZ-JKFIT
	 Reference Energy          =    -400.0875335597593789 [Eh]
	 Singles Energy            =      -0.0000000000000000 [Eh]
	 Same-Spin Energy          =      -0.4012495135081258 [Eh]
	 Opposite-Spin Energy      =      -1.3059821465964567 [Eh]
	 Correlation Energy        =      -1.7072316601045825 [Eh]
	 Total Energy              =    -401.7947652198639616 [Eh]

	 ================> DF-SCS-MP2 Energies <==================
	-----------------------------------------------------------
	 SCS Same-Spin Scale       =       0.3333333333333333 [-]
	 SCS Opposite-Spin Scale   =       1.2000000000000000 [-]
	 SCS Same-Spin Energy      =      -0.1337498378360419 [Eh]
	 SCS Opposite-Spin Energy  =      -1.5671785759157479 [Eh]
	 SCS Correlation Energy    =      -1.7009284137517899 [Eh]
	 SCS Total Energy          =    -401.7884619735111755 [Eh]
	-----------------------------------------------------------

  Dipole Moment: [D]
     X:     3.1826      Y:     2.9753      Z:    -1.0132     Total:     4.4730

*** Psi4 exiting successfully. Buy a developer a beer!
