                               Psi4 1.3.2 release

  ==> Input File <==

--------------------------------------------------------------------------
#psi4
#
memory 32 gb

molecule  {
0 1
  O       -2.5211540    -0.5137840     0.0284240
  O       -0.0903380    -1.4616610     0.1717700
  N        0.9659473     0.3495465    -0.6293639
  C       -1.5487400     0.3365070    -0.3140894
  C        2.2711600    -0.1378510    -0.5222970
  C       -0.1583790    -0.2975740    -0.2472510
  C       -1.5844930     1.6236140     0.5658530
  C        2.8531060     0.0659690     0.8699860
  H       -1.6669500     0.7105100    -1.3901450
  H        2.2044940    -1.2028750    -0.7525030
  H        2.8934660     0.3357800    -1.2867330
  H        0.8101310     1.3771570    -0.9023240
  H       -1.3564630     1.3269670     1.5921410
  H       -2.5982940     2.0269070     0.5395510
  H       -0.8919110     2.4138320     0.2596650
  H        2.9042670     1.1289430     1.1200310
  H        2.2261210    -0.4398610     1.6074960
  H        3.8631580    -0.3501450     0.9292180
  H       -2.0326010    -1.3422410     0.2291570
units angstrom
no_reorient  #important for SAPT in psi4, default
symmetry c1  #important for SAPT in psi4, default
}

set PROPERTIES_ORIGIN ["COM"]
properties('MP2/aug-cc-pvtz', properties = ['dipole'])
--------------------------------------------------------------------------

    Molecular point group: c1
  Charge       = 0
  Multiplicity = 1
  Basis Set: AUG-CC-PVTZ
    Blend: AUG-CC-PVTZ
  Basis Set: (AUG-CC-PVTZ AUX)
    Blend: AUG-CC-PVTZ-JKFIT

    Orbital Energies [Eh]
    ---------------------

    Doubly Occupied:

       1A    -20.559547     2A    -20.529457     3A    -15.601655
       4A    -11.357490     5A    -11.304790     6A    -11.268583
       7A    -11.231222     8A    -11.221583     9A     -1.414288
      10A     -1.370863    11A     -1.248788    12A     -1.048422
      13A     -1.007055    14A     -0.904719    15A     -0.852327
      16A     -0.777098    17A     -0.760867    18A     -0.682724
      19A     -0.659576    20A     -0.642057    21A     -0.617486
      22A     -0.593435    23A     -0.586366    24A     -0.563748
      25A     -0.549501    26A     -0.536843    27A     -0.521141
      28A     -0.515232    29A     -0.499481    30A     -0.436798
      31A     -0.432452    32A     -0.396677

  @DF-RHF Final Energy:  -400.07285815355459

   => Energetics <=

    Nuclear Repulsion Energy =            401.5623035964882774
    One-Electron Energy =               -1341.8857807014167065
    Two-Electron Energy =                 540.2506189513737809
    Total Energy =                       -400.0728581535546482
  Basis Set: (AUG-CC-PVTZ AUX)
    Blend: AUG-CC-PVTZ-RI
    Molecular point group: c1

    Geometry (in Angstrom), charge = 0, multiplicity = 1:

       Center              X                  Y                   Z               Mass
    ------------   -----------------  -----------------  -----------------  -----------------
         O           -2.522457712324    -0.500266953578     0.023502075504    15.994914619570
         O           -0.091641712324    -1.448143953578     0.166848075504    15.994914619570
         N            0.964643587676     0.363063546422    -0.634285824496    14.003074004430
         C           -1.550043712324     0.350024046422    -0.319011324496    12.000000000000
         C            2.269856287676    -0.124333953578    -0.527218924496    12.000000000000
         C           -0.159682712324    -0.284056953578    -0.252172924496    12.000000000000
         C           -1.585796712324     1.637131046422     0.560931075504    12.000000000000
         C            2.851802287676     0.079486046422     0.865064075504    12.000000000000
         H           -1.668253712324     0.724027046422    -1.395066924496     1.007825032230
         H            2.203190287676    -1.189357953578    -0.757424924496     1.007825032230
         H            2.892162287676     0.349297046422    -1.291654924496     1.007825032230
         H            0.808827287676     1.390674046422    -0.907245924496     1.007825032230
         H           -1.357766712324     1.340484046422     1.587219075504     1.007825032230
         H           -2.599597712324     2.040424046422     0.534629075504     1.007825032230
         H           -0.893214712324     2.427349046422     0.254743075504     1.007825032230
         H            2.902963287676     1.142460046422     1.115109075504     1.007825032230
         H            2.224817287676    -0.426343953578     1.602574075504     1.007825032230
         H            3.861854287676    -0.336627953578     0.924296075504     1.007825032230
         H           -2.033904712324    -1.328723953578     0.224235075504     1.007825032230

  Basis Set: AUG-CC-PVTZ
    Blend: AUG-CC-PVTZ
  Basis Set: (AUG-CC-PVTZ AUX)
    Blend: AUG-CC-PVTZ-JKFIT
	 Reference Energy          =    -400.0728581535545914 [Eh]
	 Singles Energy            =      -0.0000000000000000 [Eh]
	 Same-Spin Energy          =      -0.4030596920129053 [Eh]
	 Opposite-Spin Energy      =      -1.3079506914364982 [Eh]
	 Correlation Energy        =      -1.7110103834494035 [Eh]
	 Total Energy              =    -401.7838685370039684 [Eh]

	 ================> DF-SCS-MP2 Energies <==================
	-----------------------------------------------------------
	 SCS Same-Spin Scale       =       0.3333333333333333 [-]
	 SCS Opposite-Spin Scale   =       1.2000000000000000 [-]
	 SCS Same-Spin Energy      =      -0.1343532306709684 [Eh]
	 SCS Opposite-Spin Energy  =      -1.5695408297237978 [Eh]
	 SCS Correlation Energy    =      -1.7038940603947663 [Eh]
	 SCS Total Energy          =    -401.7767522139493508 [Eh]
	-----------------------------------------------------------

  Dipole Moment: [D]
     X:     2.7681      Y:     3.0322      Z:    -1.0135     Total:     4.2289

*** Psi4 exiting successfully. Buy a developer a beer!
