                               Psi4 1.3.2 release

  ==> Input File <==

--------------------------------------------------------------------------
#psi4
#
memory 32 gb

molecule  {
0 1
  O       -2.5211540    -0.5137840     0.0284240
  O       -0.0903380    -1.4616610     0.1717700
  N        0.9255530     0.4018566    -0.6576442
  C       -1.5147550     0.4028960    -0.3432490
  C        2.2711600    -0.1378510    -0.5222970
  C       -0.1583790    -0.2975740    -0.2472510
  C       -1.5844930     1.6236140     0.5658530
  C        2.8642691     0.0598660     0.8661501
  H       -1.6669500     0.7105100    -1.3901450
  H        2.2044940    -1.2028750    -0.7525030
  H        2.8934660     0.3357800    -1.2867330
  H        0.8101310     1.3771570    -0.9023240
  H       -1.3564630     1.3269670     1.5921410
  H       -2.5982940     2.0269070     0.5395510
  H       -0.8919110     2.4138320     0.2596650
  H        2.9042670     1.1289430     1.1200310
  H        2.2261210    -0.4398610     1.6074960
  H        3.8631580    -0.3501450     0.9292180
  H       -2.0326010    -1.3422410     0.2291570
units angstrom
no_reorient  #important for SAPT in psi4, default
symmetry c1  #important for SAPT in psi4, default
}

set PROPERTIES_ORIGIN ["COM"]
properties('MP2/aug-cc-pvtz', properties = ['dipole'])
--------------------------------------------------------------------------

    Molecular point group: c1
  Charge       = 0
  Multiplicity = 1
  Basis Set: AUG-CC-PVTZ
    Blend: AUG-CC-PVTZ
  Basis Set: (AUG-CC-PVTZ AUX)
    Blend: AUG-CC-PVTZ-JKFIT

    Orbital Energies [Eh]
    ---------------------

    Doubly Occupied:

       1A    -20.548647     2A    -20.533906     3A    -15.599009
       4A    -11.359527     5A    -11.298370     6A    -11.273541
       7A    -11.231575     8A    -11.224615     9A     -1.398608
      10A     -1.346876    11A     -1.245642    12A     -1.052876
      13A     -1.013114    14A     -0.903375    15A     -0.849338
      16A     -0.793803    17A     -0.744220    18A     -0.677192
      19A     -0.648940    20A     -0.642153    21A     -0.611218
      22A     -0.598872    23A     -0.576495    24A     -0.563579
      25A     -0.546038    26A     -0.535623    27A     -0.520210
      28A     -0.515262    29A     -0.500642    30A     -0.446165
      31A     -0.436516    32A     -0.403870

  @DF-RHF Final Energy:  -400.08751324322498

   => Energetics <=

    Nuclear Repulsion Energy =            400.2697129650913439
    One-Electron Energy =               -1339.4348194615822649
    Two-Electron Energy =                 539.0775932532659453
    Total Energy =                       -400.0875132432249757
  Basis Set: (AUG-CC-PVTZ AUX)
    Blend: AUG-CC-PVTZ-RI
    Molecular point group: c1

    Geometry (in Angstrom), charge = 0, multiplicity = 1:

       Center              X                  Y                   Z               Mass
    ------------   -----------------  -----------------  -----------------  -----------------
         O           -2.522253857007    -0.512702441306     0.030266373786    15.994914619570
         O           -0.091437857007    -1.460579441306     0.173612373786    15.994914619570
         N            0.924453142993     0.402938158694    -0.655801826214    14.003074004430
         C           -1.515854857007     0.403977558694    -0.341406626214    12.000000000000
         C            2.270060142993    -0.136769441306    -0.520454626214    12.000000000000
         C           -0.159478857007    -0.296492441306    -0.245408626214    12.000000000000
         C           -1.585592857007     1.624695558694     0.567695373786    12.000000000000
         C            2.863169242993     0.060947558694     0.867992473786    12.000000000000
         H           -1.668049857007     0.711591558694    -1.388302626214     1.007825032230
         H            2.203394142993    -1.201793441306    -0.750660626214     1.007825032230
         H            2.892366142993     0.336861558694    -1.284890626214     1.007825032230
         H            0.809031142993     1.378238558694    -0.900481626214     1.007825032230
         H           -1.357562857007     1.328048558694     1.593983373786     1.007825032230
         H           -2.599393857007     2.027988558694     0.541393373786     1.007825032230
         H           -0.893010857007     2.414913558694     0.261507373786     1.007825032230
         H            2.903167142993     1.130024558694     1.121873373786     1.007825032230
         H            2.225021142993    -0.438779441306     1.609338373786     1.007825032230
         H            3.862058142993    -0.349063441306     0.931060373786     1.007825032230
         H           -2.033700857007    -1.341159441306     0.230999373786     1.007825032230

  Basis Set: AUG-CC-PVTZ
    Blend: AUG-CC-PVTZ
  Basis Set: (AUG-CC-PVTZ AUX)
    Blend: AUG-CC-PVTZ-JKFIT
	 Reference Energy          =    -400.0875132432249757 [Eh]
	 Singles Energy            =      -0.0000000000000000 [Eh]
	 Same-Spin Energy          =      -0.4021002375819368 [Eh]
	 Opposite-Spin Energy      =      -1.3076514477919732 [Eh]
	 Correlation Energy        =      -1.7097516853739099 [Eh]
	 Total Energy              =    -401.7972649285989064 [Eh]

	 ================> DF-SCS-MP2 Energies <==================
	-----------------------------------------------------------
	 SCS Same-Spin Scale       =       0.3333333333333333 [-]
	 SCS Opposite-Spin Scale   =       1.2000000000000000 [-]
	 SCS Same-Spin Energy      =      -0.1340334125273123 [Eh]
	 SCS Opposite-Spin Energy  =      -1.5691817373503678 [Eh]
	 SCS Correlation Energy    =      -1.7032151498776802 [Eh]
	 SCS Total Energy          =    -401.7907283931026541 [Eh]
	-----------------------------------------------------------

  Dipole Moment: [D]
     X:     3.0873      Y:     3.1687      Z:    -1.0157     Total:     4.5391

*** Psi4 exiting successfully. Buy a developer a beer!
