                               Psi4 1.3.2 release

  ==> Input File <==

--------------------------------------------------------------------------
#psi4
#
memory 32 gb

molecule  {
0 1
  O       -2.5211540    -0.5137840     0.0284240
  O       -0.0903380    -1.4616610     0.1717700
  N        0.9259230     0.4056680    -0.6455280
  C       -1.5147550     0.4028960    -0.3432490
  C        2.2711600    -0.1378510    -0.5222970
  C       -0.1163895    -0.3539449    -0.2387632
  C       -1.5844930     1.6236140     0.5658530
  C        2.8531060     0.0659690     0.8699860
  H       -1.6669500     0.7105100    -1.3901450
  H        2.2044940    -1.2028750    -0.7525030
  H        2.8934660     0.3357800    -1.2867330
  H        0.8620837     1.3792507    -0.9123688
  H       -1.3564630     1.3269670     1.5921410
  H       -2.5982940     2.0269070     0.5395510
  H       -0.8919110     2.4138320     0.2596650
  H        2.9042670     1.1289430     1.1200310
  H        2.2261210    -0.4398610     1.6074960
  H        3.8631580    -0.3501450     0.9292180
  H       -2.0326010    -1.3422410     0.2291570
units angstrom
no_reorient  #important for SAPT in psi4, default
symmetry c1  #important for SAPT in psi4, default
}

set PROPERTIES_ORIGIN ["COM"]
properties('MP2/aug-cc-pvtz', properties = ['dipole'])
--------------------------------------------------------------------------

    Molecular point group: c1
  Charge       = 0
  Multiplicity = 1
  Basis Set: AUG-CC-PVTZ
    Blend: AUG-CC-PVTZ
  Basis Set: (AUG-CC-PVTZ AUX)
    Blend: AUG-CC-PVTZ-JKFIT

    Orbital Energies [Eh]
    ---------------------

    Doubly Occupied:

       1A    -20.545948     2A    -20.542629     3A    -15.594522
       4A    -11.356217     5A    -11.293338     6A    -11.271021
       7A    -11.226697     8A    -11.224346     9A     -1.429938
      10A     -1.349306    11A     -1.250148    12A     -1.043722
      13A     -1.008521    14A     -0.894610    15A     -0.841409
      16A     -0.802094    17A     -0.740138    18A     -0.680218
      19A     -0.652285    20A     -0.644022    21A     -0.612881
      22A     -0.605855    23A     -0.574446    24A     -0.559991
      25A     -0.546003    26A     -0.532474    27A     -0.530835
      28A     -0.521240    29A     -0.504597    30A     -0.443084
      31A     -0.424830    32A     -0.406400

  @DF-RHF Final Energy:  -400.08450234719254

   => Energetics <=

    Nuclear Repulsion Energy =            400.6489790398154014
    One-Electron Energy =               -1340.1594319670155073
    Two-Electron Energy =                 539.4259505800074521
    Total Energy =                       -400.0845023471925970
  Basis Set: (AUG-CC-PVTZ AUX)
    Blend: AUG-CC-PVTZ-RI
    Molecular point group: c1

    Geometry (in Angstrom), charge = 0, multiplicity = 1:

       Center              X                  Y                   Z               Mass
    ------------   -----------------  -----------------  -----------------  -----------------
         O           -2.525904872536    -0.508024117263     0.027640581795    15.994914619570
         O           -0.095088872536    -1.455901117263     0.170986581795    15.994914619570
         N            0.921172127464     0.411427882737    -0.646311418205    14.003074004430
         C           -1.519505872536     0.408655882737    -0.344032418205    12.000000000000
         C            2.266409127464    -0.132091117263    -0.523080418205    12.000000000000
         C           -0.121140372536    -0.348185017263    -0.239546618205    12.000000000000
         C           -1.589243872536     1.629373882737     0.565069581795    12.000000000000
         C            2.848355127464     0.071728882737     0.869202581795    12.000000000000
         H           -1.671700872536     0.716269882737    -1.390928418205     1.007825032230
         H            2.199743127464    -1.197115117263    -0.753286418205     1.007825032230
         H            2.888715127464     0.341539882737    -1.287516418205     1.007825032230
         H            0.857332827464     1.385010582737    -0.913152218205     1.007825032230
         H           -1.361213872536     1.332726882737     1.591357581795     1.007825032230
         H           -2.603044872536     2.032666882737     0.538767581795     1.007825032230
         H           -0.896661872536     2.419591882737     0.258881581795     1.007825032230
         H            2.899516127464     1.134702882737     1.119247581795     1.007825032230
         H            2.221370127464    -0.434101117263     1.606712581795     1.007825032230
         H            3.858407127464    -0.344385117263     0.928434581795     1.007825032230
         H           -2.037351872536    -1.336481117263     0.228373581795     1.007825032230

  Basis Set: AUG-CC-PVTZ
    Blend: AUG-CC-PVTZ
  Basis Set: (AUG-CC-PVTZ AUX)
    Blend: AUG-CC-PVTZ-JKFIT
	 Reference Energy          =    -400.0845023471925401 [Eh]
	 Singles Energy            =      -0.0000000000000000 [Eh]
	 Same-Spin Energy          =      -0.4009134395312755 [Eh]
	 Opposite-Spin Energy      =      -1.3053381894285783 [Eh]
	 Correlation Energy        =      -1.7062516289598537 [Eh]
	 Total Energy              =    -401.7907539761524163 [Eh]

	 ================> DF-SCS-MP2 Energies <==================
	-----------------------------------------------------------
	 SCS Same-Spin Scale       =       0.3333333333333333 [-]
	 SCS Opposite-Spin Scale   =       1.2000000000000000 [-]
	 SCS Same-Spin Energy      =      -0.1336378131770918 [Eh]
	 SCS Opposite-Spin Energy  =      -1.5664058273142938 [Eh]
	 SCS Correlation Energy    =      -1.7000436404913857 [Eh]
	 SCS Total Energy          =    -401.7845459876839413 [Eh]
	-----------------------------------------------------------

  Dipole Moment: [D]
     X:     3.2349      Y:     2.8709      Z:    -0.9973     Total:     4.4386

*** Psi4 exiting successfully. Buy a developer a beer!
