                               Psi4 1.3.2 release

  ==> Input File <==

--------------------------------------------------------------------------
#psi4
#
memory 32 gb

molecule  {
0 1
  O       -2.5211540    -0.5137840     0.0284240
  O       -0.0903380    -1.4616610     0.1717700
  N        0.9259230     0.4056680    -0.6455280
  C       -1.5115984     0.3953449    -0.3327702
  C        2.2711600    -0.1378510    -0.5222970
  C       -0.1583790    -0.2975740    -0.2472510
  C       -1.5844930     1.6236140     0.5658530
  C        2.8531060     0.0659690     0.8699860
  H       -1.6669500     0.7105100    -1.3901450
  H        2.2044940    -1.2028750    -0.7525030
  H        2.8934660     0.3357800    -1.2867330
  H        0.8101310     1.3771570    -0.9023240
  H       -1.3553051     1.3179617     1.5892365
  H       -2.5982940     2.0269070     0.5395510
  H       -0.8919110     2.4138320     0.2596650
  H        2.9042670     1.1289430     1.1200310
  H        2.2261210    -0.4398610     1.6074960
  H        3.8631580    -0.3501450     0.9292180
  H       -2.0326010    -1.3422410     0.2291570
units angstrom
no_reorient  #important for SAPT in psi4, default
symmetry c1  #important for SAPT in psi4, default
}

set PROPERTIES_ORIGIN ["COM"]
properties('MP2/aug-cc-pvtz', properties = ['dipole'])
--------------------------------------------------------------------------

    Molecular point group: c1
  Charge       = 0
  Multiplicity = 1
  Basis Set: AUG-CC-PVTZ
    Blend: AUG-CC-PVTZ
  Basis Set: (AUG-CC-PVTZ AUX)
    Blend: AUG-CC-PVTZ-JKFIT

    Orbital Energies [Eh]
    ---------------------

    Doubly Occupied:

       1A    -20.549391     2A    -20.533394     3A    -15.598749
       4A    -11.359057     5A    -11.298414     6A    -11.273833
       7A    -11.231376     8A    -11.224394     9A     -1.399450
      10A     -1.348782    11A     -1.245995    12A     -1.053151
      13A     -1.012854    14A     -0.903495    15A     -0.849238
      16A     -0.794092    17A     -0.745218    18A     -0.677181
      19A     -0.648873    20A     -0.642664    21A     -0.611441
      22A     -0.599537    23A     -0.575815    24A     -0.563439
      25A     -0.544798    26A     -0.534659    27A     -0.521103
      28A     -0.515983    29A     -0.502822    30A     -0.444795
      31A     -0.436533    32A     -0.403382

  @DF-RHF Final Energy:  -400.08752268086505

   => Energetics <=

    Nuclear Repulsion Energy =            400.6243607402731755
    One-Electron Energy =               -1340.1359550289730578
    Two-Electron Energy =                 539.4240716078347759
    Total Energy =                       -400.0875226808650496
  Basis Set: (AUG-CC-PVTZ AUX)
    Blend: AUG-CC-PVTZ-RI
    Molecular point group: c1

    Geometry (in Angstrom), charge = 0, multiplicity = 1:

       Center              X                  Y                   Z               Mass
    ------------   -----------------  -----------------  -----------------  -----------------
         O           -2.521487452115    -0.512932357468     0.027375050156    15.994914619570
         O           -0.090671452115    -1.460809357468     0.170721050156    15.994914619570
         N            0.925589547885     0.406519642532    -0.646576949844    14.003074004430
         C           -1.511931852115     0.396196542532    -0.333819149844    12.000000000000
         C            2.270826547885    -0.136999357468    -0.523345949844    12.000000000000
         C           -0.158712452115    -0.296722357468    -0.248299949844    12.000000000000
         C           -1.584826452115     1.624465642532     0.564804050156    12.000000000000
         C            2.852772547885     0.066820642532     0.868937050156    12.000000000000
         H           -1.667283452115     0.711361642532    -1.391193949844     1.007825032230
         H            2.204160547885    -1.202023357468    -0.753551949844     1.007825032230
         H            2.893132547885     0.336631642532    -1.287781949844     1.007825032230
         H            0.809797547885     1.378008642532    -0.903372949844     1.007825032230
         H           -1.355638552115     1.318813342532     1.588187550156     1.007825032230
         H           -2.598627452115     2.027758642532     0.538502050156     1.007825032230
         H           -0.892244452115     2.414683642532     0.258616050156     1.007825032230
         H            2.903933547885     1.129794642532     1.118982050156     1.007825032230
         H            2.225787547885    -0.439009357468     1.606447050156     1.007825032230
         H            3.862824547885    -0.349293357468     0.928169050156     1.007825032230
         H           -2.032934452115    -1.341389357468     0.228108050156     1.007825032230

  Basis Set: AUG-CC-PVTZ
    Blend: AUG-CC-PVTZ
  Basis Set: (AUG-CC-PVTZ AUX)
    Blend: AUG-CC-PVTZ-JKFIT
	 Reference Energy          =    -400.0875226808650496 [Eh]
	 Singles Energy            =      -0.0000000000000000 [Eh]
	 Same-Spin Energy          =      -0.4021694492100301 [Eh]
	 Opposite-Spin Energy      =      -1.3076359168589471 [Eh]
	 Correlation Energy        =      -1.7098053660689772 [Eh]
	 Total Energy              =    -401.7973280469340125 [Eh]

	 ================> DF-SCS-MP2 Energies <==================
	-----------------------------------------------------------
	 SCS Same-Spin Scale       =       0.3333333333333333 [-]
	 SCS Opposite-Spin Scale   =       1.2000000000000000 [-]
	 SCS Same-Spin Energy      =      -0.1340564830700100 [Eh]
	 SCS Opposite-Spin Energy  =      -1.5691631002307365 [Eh]
	 SCS Correlation Energy    =      -1.7032195833007464 [Eh]
	 SCS Total Energy          =    -401.7907422641657718 [Eh]
	-----------------------------------------------------------

  Dipole Moment: [D]
     X:     3.0839      Y:     3.1598      Z:    -1.0292     Total:     4.5336

*** Psi4 exiting successfully. Buy a developer a beer!
