                               Psi4 1.3.2 release

  ==> Input File <==

--------------------------------------------------------------------------
#psi4
#
memory 32 gb

molecule  {
0 1
  O       -2.5211540    -0.5137840     0.0284240
  O       -0.0903380    -1.4616610     0.1717700
  N        0.9348609     0.4286170    -0.6392584
  C       -1.5147550     0.4028960    -0.3432490
  C        2.2711600    -0.1378510    -0.5222970
  C       -0.1583790    -0.2975740    -0.2472510
  C       -1.5844930     1.6236140     0.5658530
  C        2.8531060     0.0659690     0.8699860
  H       -1.6669500     0.7105100    -1.3901450
  H        2.2232477    -1.2045133    -0.7495663
  H        2.8934660     0.3357800    -1.2867330
  H        0.8101310     1.3771570    -0.9023240
  H       -1.3564630     1.3269670     1.5921410
  H       -2.5982940     2.0269070     0.5395510
  H       -0.8919110     2.4138320     0.2596650
  H        2.9042670     1.1289430     1.1200310
  H        2.2261210    -0.4398610     1.6074960
  H        3.8631580    -0.3501450     0.9292180
  H       -2.0326010    -1.3422410     0.2291570
units angstrom
no_reorient  #important for SAPT in psi4, default
symmetry c1  #important for SAPT in psi4, default
}

set PROPERTIES_ORIGIN ["COM"]
properties('MP2/aug-cc-pvtz', properties = ['dipole'])
--------------------------------------------------------------------------

    Molecular point group: c1
  Charge       = 0
  Multiplicity = 1
  Basis Set: AUG-CC-PVTZ
    Blend: AUG-CC-PVTZ
  Basis Set: (AUG-CC-PVTZ AUX)
    Blend: AUG-CC-PVTZ-JKFIT

    Orbital Energies [Eh]
    ---------------------

    Doubly Occupied:

       1A    -20.549033     2A    -20.536810     3A    -15.596793
       4A    -11.362045     5A    -11.298636     6A    -11.273101
       7A    -11.231575     8A    -11.223216     9A     -1.398808
      10A     -1.347117    11A     -1.244717    12A     -1.052288
      13A     -1.012266    14A     -0.901986    15A     -0.849195
      16A     -0.796204    17A     -0.744196    18A     -0.677652
      19A     -0.650208    20A     -0.643121    21A     -0.609514
      22A     -0.600374    23A     -0.575477    24A     -0.563057
      25A     -0.543659    26A     -0.534675    27A     -0.520984
      28A     -0.517008    29A     -0.501372    30A     -0.446578
      31A     -0.437022    32A     -0.403211

  @DF-RHF Final Energy:  -400.08697307965946

   => Energetics <=

    Nuclear Repulsion Energy =            400.1336721985033478
    One-Electron Energy =               -1339.1575000159398314
    Two-Electron Energy =                 538.9368547377771392
    Total Energy =                       -400.0869730796594013
  Basis Set: (AUG-CC-PVTZ AUX)
    Blend: AUG-CC-PVTZ-RI
    Molecular point group: c1

    Geometry (in Angstrom), charge = 0, multiplicity = 1:

       Center              X                  Y                   Z               Mass
    ------------   -----------------  -----------------  -----------------  -----------------
         O           -2.522384388218    -0.516514506863     0.027648925279    15.994914619570
         O           -0.091568388218    -1.464391506863     0.170994925279    15.994914619570
         N            0.933630511782     0.425886493137    -0.640033474721    14.003074004430
         C           -1.515985388218     0.400165493137    -0.344024074721    12.000000000000
         C            2.269929611782    -0.140581506863    -0.523072074721    12.000000000000
         C           -0.159609388218    -0.300304506863    -0.248026074721    12.000000000000
         C           -1.585723388218     1.620883493137     0.565077925279    12.000000000000
         C            2.851875611782     0.063238493137     0.869210925279    12.000000000000
         H           -1.668180388218     0.707779493137    -1.390920074721     1.007825032230
         H            2.222017311782    -1.207243806863    -0.750341374721     1.007825032230
         H            2.892235611782     0.333049493137    -1.287508074721     1.007825032230
         H            0.808900611782     1.374426493137    -0.903099074721     1.007825032230
         H           -1.357693388218     1.324236493137     1.591365925279     1.007825032230
         H           -2.599524388218     2.024176493137     0.538775925279     1.007825032230
         H           -0.893141388218     2.411101493137     0.258889925279     1.007825032230
         H            2.903036611782     1.126212493137     1.119255925279     1.007825032230
         H            2.224890611782    -0.442591506863     1.606720925279     1.007825032230
         H            3.861927611782    -0.352875506863     0.928442925279     1.007825032230
         H           -2.033831388218    -1.344971506863     0.228381925279     1.007825032230

  Basis Set: AUG-CC-PVTZ
    Blend: AUG-CC-PVTZ
  Basis Set: (AUG-CC-PVTZ AUX)
    Blend: AUG-CC-PVTZ-JKFIT
	 Reference Energy          =    -400.0869730796594581 [Eh]
	 Singles Energy            =      -0.0000000000000000 [Eh]
	 Same-Spin Energy          =      -0.4020577826479980 [Eh]
	 Opposite-Spin Energy      =      -1.3076783926872628 [Eh]
	 Correlation Energy        =      -1.7097361753352609 [Eh]
	 Total Energy              =    -401.7967092549947097 [Eh]

	 ================> DF-SCS-MP2 Energies <==================
	-----------------------------------------------------------
	 SCS Same-Spin Scale       =       0.3333333333333333 [-]
	 SCS Opposite-Spin Scale   =       1.2000000000000000 [-]
	 SCS Same-Spin Energy      =      -0.1340192608826660 [Eh]
	 SCS Opposite-Spin Energy  =      -1.5692140712247153 [Eh]
	 SCS Correlation Energy    =      -1.7032333321073814 [Eh]
	 SCS Total Energy          =    -401.7902064117668601 [Eh]
	-----------------------------------------------------------

  Dipole Moment: [D]
     X:     3.0256      Y:     3.1075      Z:    -1.0470     Total:     4.4617

*** Psi4 exiting successfully. Buy a developer a beer!
