                               Psi4 1.3.2 release

  ==> Input File <==

--------------------------------------------------------------------------
#psi4
#
memory 32 gb

molecule  {
0 1
  O       -2.5211540    -0.5137840     0.0284240
  O       -0.0903380    -1.4616610     0.1717700
  N        0.9259230     0.4056680    -0.6455280
  C       -1.5147550     0.4028960    -0.3432490
  C        2.2711600    -0.1378510    -0.5222970
  C       -0.1666993    -0.3156197    -0.2650779
  C       -1.6093793     1.6280500     0.5575985
  C        2.8531060     0.0659690     0.8699860
  H       -1.6669500     0.7105100    -1.3901450
  H        2.2044940    -1.2028750    -0.7525030
  H        2.8934660     0.3357800    -1.2867330
  H        0.8101310     1.3771570    -0.9023240
  H       -1.3564630     1.3269670     1.5921410
  H       -2.5982940     2.0269070     0.5395510
  H       -0.8919110     2.4138320     0.2596650
  H        2.9042670     1.1289430     1.1200310
  H        2.2261210    -0.4398610     1.6074960
  H        3.8631580    -0.3501450     0.9292180
  H       -2.0326010    -1.3422410     0.2291570
units angstrom
no_reorient  #important for SAPT in psi4, default
symmetry c1  #important for SAPT in psi4, default
}

set PROPERTIES_ORIGIN ["COM"]
properties('MP2/aug-cc-pvtz', properties = ['dipole'])
--------------------------------------------------------------------------

    Molecular point group: c1
  Charge       = 0
  Multiplicity = 1
  Basis Set: AUG-CC-PVTZ
    Blend: AUG-CC-PVTZ
  Basis Set: (AUG-CC-PVTZ AUX)
    Blend: AUG-CC-PVTZ-JKFIT

    Orbital Energies [Eh]
    ---------------------

    Doubly Occupied:

       1A    -20.548420     2A    -20.536605     3A    -15.596531
       4A    -11.360242     5A    -11.298063     6A    -11.272673
       7A    -11.231815     8A    -11.223544     9A     -1.403968
      10A     -1.348473    11A     -1.243058    12A     -1.051391
      13A     -1.011743    14A     -0.903363    15A     -0.848546
      16A     -0.792283    17A     -0.744205    18A     -0.676983
      19A     -0.648157    20A     -0.645336    21A     -0.610366
      22A     -0.599336    23A     -0.575733    24A     -0.568391
      25A     -0.542639    26A     -0.530768    27A     -0.523467
      28A     -0.516327    29A     -0.502516    30A     -0.446152
      31A     -0.437727    32A     -0.402492

  @DF-RHF Final Energy:  -400.08710077035983

   => Energetics <=

    Nuclear Repulsion Energy =            400.2426229543332283
    One-Electron Energy =               -1339.3768278998479673
    Two-Electron Energy =                 539.0471041751549137
    Total Energy =                       -400.0871007703598252
  Basis Set: (AUG-CC-PVTZ AUX)
    Blend: AUG-CC-PVTZ-RI
    Molecular point group: c1

    Geometry (in Angstrom), charge = 0, multiplicity = 1:

       Center              X                  Y                   Z               Mass
    ------------   -----------------  -----------------  -----------------  -----------------
         O           -2.517750441715    -0.512388900103     0.031097282596    15.994914619570
         O           -0.086934441715    -1.460265900103     0.174443282596    15.994914619570
         N            0.929326558285     0.407063099897    -0.642854717404    14.003074004430
         C           -1.511351441715     0.404291099897    -0.340575717404    12.000000000000
         C            2.274563558285    -0.136455900103    -0.519623717404    12.000000000000
         C           -0.163295741715    -0.314224600103    -0.262404617404    12.000000000000
         C           -1.605975741715     1.629445099897     0.560271782596    12.000000000000
         C            2.856509558285     0.067364099897     0.872659282596    12.000000000000
         H           -1.663546441715     0.711905099897    -1.387471717404     1.007825032230
         H            2.207897558285    -1.201479900103    -0.749829717404     1.007825032230
         H            2.896869558285     0.337175099897    -1.284059717404     1.007825032230
         H            0.813534558285     1.378552099897    -0.899650717404     1.007825032230
         H           -1.353059441715     1.328362099897     1.594814282596     1.007825032230
         H           -2.594890441715     2.028302099897     0.542224282596     1.007825032230
         H           -0.888507441715     2.415227099897     0.262338282596     1.007825032230
         H            2.907670558285     1.130338099897     1.122704282596     1.007825032230
         H            2.229524558285    -0.438465900103     1.610169282596     1.007825032230
         H            3.866561558285    -0.348749900103     0.931891282596     1.007825032230
         H           -2.029197441715    -1.340845900103     0.231830282596     1.007825032230

  Basis Set: AUG-CC-PVTZ
    Blend: AUG-CC-PVTZ
  Basis Set: (AUG-CC-PVTZ AUX)
    Blend: AUG-CC-PVTZ-JKFIT
	 Reference Energy          =    -400.0871007703598252 [Eh]
	 Singles Energy            =      -0.0000000000000000 [Eh]
	 Same-Spin Energy          =      -0.4018994808045067 [Eh]
	 Opposite-Spin Energy      =      -1.3073268089028010 [Eh]
	 Correlation Energy        =      -1.7092262897073076 [Eh]
	 Total Energy              =    -401.7963270600671422 [Eh]

	 ================> DF-SCS-MP2 Energies <==================
	-----------------------------------------------------------
	 SCS Same-Spin Scale       =       0.3333333333333333 [-]
	 SCS Opposite-Spin Scale   =       1.2000000000000000 [-]
	 SCS Same-Spin Energy      =      -0.1339664936015022 [Eh]
	 SCS Opposite-Spin Energy  =      -1.5687921706833612 [Eh]
	 SCS Correlation Energy    =      -1.7027586642848633 [Eh]
	 SCS Total Energy          =    -401.7898594346447112 [Eh]
	-----------------------------------------------------------

  Dipole Moment: [D]
     X:     3.0252      Y:     3.0980      Z:    -1.0300     Total:     4.4509

*** Psi4 exiting successfully. Buy a developer a beer!
