                               Psi4 1.3.2 release

  ==> Input File <==

--------------------------------------------------------------------------
#psi4
#
memory 32 gb

molecule  {
0 1
  O       -2.5211540    -0.5137840     0.0284240
  O       -0.0903380    -1.4616610     0.1717700
  N        0.9259230     0.4056680    -0.6455280
  C       -1.5147550     0.4028960    -0.3432490
  C        2.2711600    -0.1378510    -0.5222970
  C       -0.1583790    -0.2975740    -0.2472510
  C       -1.5823217     1.6158121     0.5763984
  C        2.8531060     0.0659690     0.8699860
  H       -1.6660015     0.7013565    -1.3929284
  H        2.2044940    -1.2028750    -0.7525030
  H        2.8934660     0.3357800    -1.2867330
  H        0.8101310     1.3771570    -0.9023240
  H       -1.3564630     1.3269670     1.5921410
  H       -2.5982940     2.0269070     0.5395510
  H       -0.8919110     2.4138320     0.2596650
  H        2.9042670     1.1289430     1.1200310
  H        2.2261210    -0.4398610     1.6074960
  H        3.8631580    -0.3501450     0.9292180
  H       -2.0326010    -1.3422410     0.2291570
units angstrom
no_reorient  #important for SAPT in psi4, default
symmetry c1  #important for SAPT in psi4, default
}

set PROPERTIES_ORIGIN ["COM"]
properties('MP2/aug-cc-pvtz', properties = ['dipole'])
--------------------------------------------------------------------------

    Molecular point group: c1
  Charge       = 0
  Multiplicity = 1
  Basis Set: AUG-CC-PVTZ
    Blend: AUG-CC-PVTZ
  Basis Set: (AUG-CC-PVTZ AUX)
    Blend: AUG-CC-PVTZ-JKFIT

    Orbital Energies [Eh]
    ---------------------

    Doubly Occupied:

       1A    -20.548174     2A    -20.533327     3A    -15.598588
       4A    -11.358940     5A    -11.298187     6A    -11.273692
       7A    -11.231567     8A    -11.224332     9A     -1.398354
      10A     -1.346640    11A     -1.245840    12A     -1.052841
      13A     -1.012766    14A     -0.903076    15A     -0.849557
      16A     -0.794267    17A     -0.744066    18A     -0.677182
      19A     -0.649208    20A     -0.642069    21A     -0.611193
      22A     -0.599322    23A     -0.576352    24A     -0.561807
      25A     -0.543907    26A     -0.536012    27A     -0.520808
      28A     -0.514928    29A     -0.502466    30A     -0.446459
      31A     -0.435778    32A     -0.403435

  @DF-RHF Final Energy:  -400.08756990628160

   => Energetics <=

    Nuclear Repulsion Energy =            400.4944125543704558
    One-Electron Energy =               -1339.8936860487560807
    Two-Electron Energy =                 539.3117035881040238
    Total Energy =                       -400.0875699062816011
  Basis Set: (AUG-CC-PVTZ AUX)
    Blend: AUG-CC-PVTZ-RI
    Molecular point group: c1

    Geometry (in Angstrom), charge = 0, multiplicity = 1:

       Center              X                  Y                   Z               Mass
    ------------   -----------------  -----------------  -----------------  -----------------
         O           -2.521384661343    -0.512905376026     0.027367181556    15.994914619570
         O           -0.090568661343    -1.460782376026     0.170713181556    15.994914619570
         N            0.925692338657     0.406546623974    -0.646584818444    14.003074004430
         C           -1.514985661343     0.403774623974    -0.344305818444    12.000000000000
         C            2.270929338657    -0.136972376026    -0.523353818444    12.000000000000
         C           -0.158609661343    -0.296695376026    -0.248307818444    12.000000000000
         C           -1.582552361343     1.616690723974     0.575341581556    12.000000000000
         C            2.852875338657     0.066847623974     0.868929181556    12.000000000000
         H           -1.666232161343     0.702235123974    -1.393985218444     1.007825032230
         H            2.204263338657    -1.201996376026    -0.753559818444     1.007825032230
         H            2.893235338657     0.336658623974    -1.287789818444     1.007825032230
         H            0.809900338657     1.378035623974    -0.903380818444     1.007825032230
         H           -1.356693661343     1.327845623974     1.591084181556     1.007825032230
         H           -2.598524661343     2.027785623974     0.538494181556     1.007825032230
         H           -0.892141661343     2.414710623974     0.258608181556     1.007825032230
         H            2.904036338657     1.129821623974     1.118974181556     1.007825032230
         H            2.225890338657    -0.438982376026     1.606439181556     1.007825032230
         H            3.862927338657    -0.349266376026     0.928161181556     1.007825032230
         H           -2.032831661343    -1.341362376026     0.228100181556     1.007825032230

  Basis Set: AUG-CC-PVTZ
    Blend: AUG-CC-PVTZ
  Basis Set: (AUG-CC-PVTZ AUX)
    Blend: AUG-CC-PVTZ-JKFIT
	 Reference Energy          =    -400.0875699062816011 [Eh]
	 Singles Energy            =      -0.0000000000000000 [Eh]
	 Same-Spin Energy          =      -0.4021215271108082 [Eh]
	 Opposite-Spin Energy      =      -1.3076515646240723 [Eh]
	 Correlation Energy        =      -1.7097730917348803 [Eh]
	 Total Energy              =    -401.7973429980164610 [Eh]

	 ================> DF-SCS-MP2 Energies <==================
	-----------------------------------------------------------
	 SCS Same-Spin Scale       =       0.3333333333333333 [-]
	 SCS Opposite-Spin Scale   =       1.2000000000000000 [-]
	 SCS Same-Spin Energy      =      -0.1340405090369360 [Eh]
	 SCS Opposite-Spin Energy  =      -1.5691818775488866 [Eh]
	 SCS Correlation Energy    =      -1.7032223865858227 [Eh]
	 SCS Total Energy          =    -401.7907922928674225 [Eh]
	-----------------------------------------------------------

  Dipole Moment: [D]
     X:     3.0951      Y:     3.1721      Z:    -1.0409     Total:     4.5525

*** Psi4 exiting successfully. Buy a developer a beer!
