                               Psi4 1.3.2 release

  ==> Input File <==

--------------------------------------------------------------------------
#psi4
#
memory 32 gb

molecule  {
0 1
  O       -2.5211540    -0.5137840     0.0284240
  O       -0.0261516    -1.4593829     0.1626549
  N        0.9658705     0.3493203    -0.6299724
  C       -1.5147550     0.4028960    -0.3432490
  C        2.2711600    -0.1378510    -0.5222970
  C       -0.1583790    -0.2975740    -0.2472510
  C       -1.5844930     1.6236140     0.5658530
  C        2.8531060     0.0659690     0.8699860
  H       -1.6669500     0.7105100    -1.3901450
  H        2.2044940    -1.2028750    -0.7525030
  H        2.8934660     0.3357800    -1.2867330
  H        0.8101310     1.3771570    -0.9023240
  H       -1.3564630     1.3269670     1.5921410
  H       -2.5982940     2.0269070     0.5395510
  H       -0.8919110     2.4138320     0.2596650
  H        2.9042670     1.1289430     1.1200310
  H        2.2261210    -0.4398610     1.6074960
  H        3.8631580    -0.3501450     0.9292180
  H       -2.0326010    -1.3422410     0.2291570
units angstrom
no_reorient  #important for SAPT in psi4, default
symmetry c1  #important for SAPT in psi4, default
}

set PROPERTIES_ORIGIN ["COM"]
properties('MP2/aug-cc-pvtz', properties = ['dipole'])
--------------------------------------------------------------------------

    Molecular point group: c1
  Charge       = 0
  Multiplicity = 1
  Basis Set: AUG-CC-PVTZ
    Blend: AUG-CC-PVTZ
  Basis Set: (AUG-CC-PVTZ AUX)
    Blend: AUG-CC-PVTZ-JKFIT

    Orbital Energies [Eh]
    ---------------------

    Doubly Occupied:

       1A    -20.555074     2A    -20.529475     3A    -15.598540
       4A    -11.358731     5A    -11.305600     6A    -11.266134
       7A    -11.234700     8A    -11.220246     9A     -1.399752
      10A     -1.353508    11A     -1.244981    12A     -1.056160
      13A     -1.011418    14A     -0.907559    15A     -0.852782
      16A     -0.775341    17A     -0.748432    18A     -0.681190
      19A     -0.657121    20A     -0.641923    21A     -0.613430
      22A     -0.589375    23A     -0.578627    24A     -0.566690
      25A     -0.544894    26A     -0.536101    27A     -0.519901
      28A     -0.517932    29A     -0.497086    30A     -0.450490
      31A     -0.437382    32A     -0.394708

  @DF-RHF Final Energy:  -400.07713526872425

   => Energetics <=

    Nuclear Repulsion Energy =            401.0466272133921279
    One-Electron Energy =               -1340.9569559813428441
    Two-Electron Energy =                 539.8331934992264678
    Total Energy =                       -400.0771352687241915
  Basis Set: (AUG-CC-PVTZ AUX)
    Blend: AUG-CC-PVTZ-RI
    Molecular point group: c1

    Geometry (in Angstrom), charge = 0, multiplicity = 1:

       Center              X                  Y                   Z               Mass
    ------------   -----------------  -----------------  -----------------  -----------------
         O           -2.534700734674    -0.507355660104     0.027808837682    15.994914619570
         O           -0.039698334674    -1.452954560104     0.162039737682    15.994914619570
         N            0.952323765326     0.355748639896    -0.630587562318    14.003074004430
         C           -1.528301734674     0.409324339896    -0.343864162318    12.000000000000
         C            2.257613265326    -0.131422660104    -0.522912162318    12.000000000000
         C           -0.171925734674    -0.291145660104    -0.247866162318    12.000000000000
         C           -1.598039734674     1.630042339896     0.565237837682    12.000000000000
         C            2.839559265326     0.072397339896     0.869370837682    12.000000000000
         H           -1.680496734674     0.716938339896    -1.390760162318     1.007825032230
         H            2.190947265326    -1.196446660104    -0.753118162318     1.007825032230
         H            2.879919265326     0.342208339896    -1.287348162318     1.007825032230
         H            0.796584265326     1.383585339896    -0.902939162318     1.007825032230
         H           -1.370009734674     1.333395339896     1.591525837682     1.007825032230
         H           -2.611840734674     2.033335339896     0.538935837682     1.007825032230
         H           -0.905457734674     2.420260339896     0.259049837682     1.007825032230
         H            2.890720265326     1.135371339896     1.119415837682     1.007825032230
         H            2.212574265326    -0.433432660104     1.606880837682     1.007825032230
         H            3.849611265326    -0.343716660104     0.928602837682     1.007825032230
         H           -2.046147734674    -1.335812660104     0.228541837682     1.007825032230

  Basis Set: AUG-CC-PVTZ
    Blend: AUG-CC-PVTZ
  Basis Set: (AUG-CC-PVTZ AUX)
    Blend: AUG-CC-PVTZ-JKFIT
	 Reference Energy          =    -400.0771352687242484 [Eh]
	 Singles Energy            =      -0.0000000000000000 [Eh]
	 Same-Spin Energy          =      -0.4030294510204293 [Eh]
	 Opposite-Spin Energy      =      -1.3090146446619984 [Eh]
	 Correlation Energy        =      -1.7120440956824277 [Eh]
	 Total Energy              =    -401.7891793644066638 [Eh]

	 ================> DF-SCS-MP2 Energies <==================
	-----------------------------------------------------------
	 SCS Same-Spin Scale       =       0.3333333333333333 [-]
	 SCS Opposite-Spin Scale   =       1.2000000000000000 [-]
	 SCS Same-Spin Energy      =      -0.1343431503401431 [Eh]
	 SCS Opposite-Spin Energy  =      -1.5708175735943979 [Eh]
	 SCS Correlation Energy    =      -1.7051607239345410 [Eh]
	 SCS Total Energy          =    -401.7822959926588169 [Eh]
	-----------------------------------------------------------

  Dipole Moment: [D]
     X:     2.7049      Y:     3.2576      Z:    -1.0553     Total:     4.3637

*** Psi4 exiting successfully. Buy a developer a beer!
