                               Psi4 1.3.2 release

  ==> Input File <==

--------------------------------------------------------------------------
#psi4
#
memory 32 gb

molecule  {
0 1
  O       -2.5211540    -0.5137840     0.0284240
  O       -0.0903380    -1.4616610     0.1717700
  N        0.9259230     0.4056680    -0.6455280
  C       -1.5147550     0.4028960    -0.3432490
  C        2.2711600    -0.1378510    -0.5222970
  C       -0.1583790    -0.2975740    -0.2472510
  C       -1.5753389     1.4633771     0.4465202
  C        2.8531060     0.0659690     0.8699860
  H       -1.6669500     0.7105100    -1.3901450
  H        2.2044940    -1.2028750    -0.7525030
  H        2.8934660     0.3357800    -1.2867330
  H        0.8101310     1.3771570    -0.9023240
  H       -1.3564630     1.3269670     1.5921410
  H       -2.5982940     2.0269070     0.5395510
  H       -0.8919110     2.4138320     0.2596650
  H        2.9042670     1.1289430     1.1200310
  H        2.2261210    -0.4398610     1.6074960
  H        3.8631580    -0.3501450     0.9292180
  H       -2.0326010    -1.3422410     0.2291570
units angstrom
no_reorient  #important for SAPT in psi4, default
symmetry c1  #important for SAPT in psi4, default
}

set PROPERTIES_ORIGIN ["COM"]
properties('MP2/aug-cc-pvtz', properties = ['dipole'])
--------------------------------------------------------------------------

    Molecular point group: c1
  Charge       = 0
  Multiplicity = 1
  Basis Set: AUG-CC-PVTZ
    Blend: AUG-CC-PVTZ
  Basis Set: (AUG-CC-PVTZ AUX)
    Blend: AUG-CC-PVTZ-JKFIT

    Orbital Energies [Eh]
    ---------------------

    Doubly Occupied:

       1A    -20.548755     2A    -20.534987     3A    -15.599286
       4A    -11.360907     5A    -11.288164     6A    -11.274071
       7A    -11.243293     8A    -11.224448     9A     -1.401674
      10A     -1.351377    11A     -1.247303    12A     -1.085435
      13A     -1.023467    14A     -0.896477    15A     -0.842385
      16A     -0.794002    17A     -0.752609    18A     -0.686430
      19A     -0.658175    20A     -0.652146    21A     -0.618653
      22A     -0.601090    23A     -0.598016    24A     -0.546892
      25A     -0.537252    26A     -0.521565    27A     -0.514002
      28A     -0.502014    29A     -0.488688    30A     -0.460766
      31A     -0.426774    32A     -0.404313

  @DF-RHF Final Energy:  -400.03685717211022

   => Energetics <=

    Nuclear Repulsion Energy =            404.0509092113077827
    One-Electron Energy =               -1346.8046990670736704
    Two-Electron Energy =                 542.7169326836557275
    Total Energy =                       -400.0368571721102171
  Basis Set: (AUG-CC-PVTZ AUX)
    Blend: AUG-CC-PVTZ-RI
    Molecular point group: c1

    Geometry (in Angstrom), charge = 0, multiplicity = 1:

       Center              X                  Y                   Z               Mass
    ------------   -----------------  -----------------  -----------------  -----------------
         O           -2.522092198075    -0.497360357652     0.040655076945    15.994914619570
         O           -0.091276198075    -1.445237357652     0.184001076945    15.994914619570
         N            0.924984801925     0.422091642348    -0.633296923055    14.003074004430
         C           -1.515693198075     0.419319642348    -0.331017923055    12.000000000000
         C            2.270221801925    -0.121427357652    -0.510065923055    12.000000000000
         C           -0.159317198075    -0.281150357652    -0.235019923055    12.000000000000
         C           -1.576277098075     1.479800742348     0.458751276945    12.000000000000
         C            2.852167801925     0.082392642348     0.882217076945    12.000000000000
         H           -1.667888198075     0.726933642348    -1.377913923055     1.007825032230
         H            2.203555801925    -1.186451357652    -0.740271923055     1.007825032230
         H            2.892527801925     0.352203642348    -1.274501923055     1.007825032230
         H            0.809192801925     1.393580642348    -0.890092923055     1.007825032230
         H           -1.357401198075     1.343390642348     1.604372076945     1.007825032230
         H           -2.599232198075     2.043330642348     0.551782076945     1.007825032230
         H           -0.892849198075     2.430255642348     0.271896076945     1.007825032230
         H            2.903328801925     1.145366642348     1.132262076945     1.007825032230
         H            2.225182801925    -0.423437357652     1.619727076945     1.007825032230
         H            3.862219801925    -0.333721357652     0.941449076945     1.007825032230
         H           -2.033539198075    -1.325817357652     0.241388076945     1.007825032230

  Basis Set: AUG-CC-PVTZ
    Blend: AUG-CC-PVTZ
  Basis Set: (AUG-CC-PVTZ AUX)
    Blend: AUG-CC-PVTZ-JKFIT
	 Reference Energy          =    -400.0368571721102171 [Eh]
	 Singles Energy            =      -0.0000000000000000 [Eh]
	 Same-Spin Energy          =      -0.4051816034238090 [Eh]
	 Opposite-Spin Energy      =      -1.3117676287153017 [Eh]
	 Correlation Energy        =      -1.7169492321391107 [Eh]
	 Total Energy              =    -401.7538064042493033 [Eh]

	 ================> DF-SCS-MP2 Energies <==================
	-----------------------------------------------------------
	 SCS Same-Spin Scale       =       0.3333333333333333 [-]
	 SCS Opposite-Spin Scale   =       1.2000000000000000 [-]
	 SCS Same-Spin Energy      =      -0.1350605344746030 [Eh]
	 SCS Opposite-Spin Energy  =      -1.5741211544583620 [Eh]
	 SCS Correlation Energy    =      -1.7091816889329650 [Eh]
	 SCS Total Energy          =    -401.7460388610431892 [Eh]
	-----------------------------------------------------------

  Dipole Moment: [D]
     X:     3.1466      Y:     3.2035      Z:    -1.0234     Total:     4.6055

*** Psi4 exiting successfully. Buy a developer a beer!
