                               Psi4 1.4a3.dev225

  ==> Input File <==

--------------------------------------------------------------------------
#psi4
#
memory 32 gb

molecule  {
0 1
  O       -1.5707600    -1.5123310    -0.2332890
  O        0.1382410     1.6075510    -0.3059650
  N        0.6999210    -0.4896500     0.4239600
  C       -1.5456480    -0.0933390    -0.4361750
  C        2.0783650    -0.1398720     0.7271540
  C       -0.1286796     0.4264960    -0.1079156
  C       -2.5680410     0.6261290     0.4306590
  C        2.9727550    -0.1683320    -0.5071050
  H       -1.7217520     0.1422920    -1.4952760
  H        2.0695770     0.8628690     1.1612900
  H        2.4371510    -0.8367210     1.4904630
  H        0.3848370    -1.4513440     0.4597870
  H       -2.3944150     0.3774590     1.4809910
  H       -3.5869010     0.3276930     0.1608950
  H       -2.4702460     1.7050790     0.2962630
  H        2.9788310    -1.1637080    -0.9596270
  H        2.6039680     0.5505970    -1.2414500
  H        4.0012360     0.0983730    -0.2444710
  H       -2.4840080    -1.8129070    -0.3767550
units angstrom
no_reorient  #important for SAPT in psi4, default
symmetry c1  #important for SAPT in psi4, default
}

set PROPERTIES_ORIGIN ["COM"]
properties('MP2/aug-cc-pvtz', properties = ['dipole'])
--------------------------------------------------------------------------

    Molecular point group: c1
  Charge       = 0
  Multiplicity = 1
  Basis Set: AUG-CC-PVTZ
    Blend: AUG-CC-PVTZ
  Basis Set: (AUG-CC-PVTZ AUX)
    Blend: AUG-CC-PVTZ-JKFIT

    Orbital Energies [Eh]
    ---------------------

    Doubly Occupied:

       1A    -20.580330     2A    -20.511145     3A    -15.578535
       4A    -11.342481     5A    -11.300328     6A    -11.260198
       7A    -11.228103     8A    -11.212628     9A     -1.388420
      10A     -1.364309    11A     -1.229191    12A     -1.042360
      13A     -1.010223    14A     -0.899225    15A     -0.842651
      16A     -0.779234    17A     -0.715964    18A     -0.695584
      19A     -0.641052    20A     -0.635154    21A     -0.610113
      22A     -0.590672    23A     -0.584593    24A     -0.557669
      25A     -0.538770    26A     -0.525575    27A     -0.520213
      28A     -0.510330    29A     -0.491358    30A     -0.460541
      31A     -0.413318    32A     -0.386288

  @DF-RHF Final Energy:  -400.08854246900091

   => Energetics <=

    Nuclear Repulsion Energy =            400.0069681325483657
    One-Electron Energy =               -1339.2979055311536740
    Two-Electron Energy =                 539.2023949296044520
    Total Energy =                       -400.0885424690009131
  Basis Set: (AUG-CC-PVTZ AUX)
    Blend: AUG-CC-PVTZ-RI
    Molecular point group: c1

    Geometry (in Angstrom), charge = 0, multiplicity = 1:

       Center              X                  Y                   Z               Mass
    ------------   -----------------  -----------------  -----------------  -----------------
         O           -1.557312234478    -1.523175850818    -0.227555000122    15.994914619570
         O            0.151688765522     1.596706149182    -0.300231000122    15.994914619570
         N            0.713368765522    -0.500494850818     0.429693999878    14.003074004430
         C           -1.532200234478    -0.104183850818    -0.430441000122    12.000000000000
         C            2.091812765522    -0.150716850818     0.732887999878    12.000000000000
         C           -0.115231834478     0.415651149182    -0.102181600122    12.000000000000
         C           -2.554593234478     0.615284149182     0.436392999878    12.000000000000
         C            2.986202765522    -0.179176850818    -0.501371000122    12.000000000000
         H           -1.708304234478     0.131447149182    -1.489542000122     1.007825032230
         H            2.083024765522     0.852024149182     1.167023999878     1.007825032230
         H            2.450598765522    -0.847565850818     1.496196999878     1.007825032230
         H            0.398284765522    -1.462188850818     0.465520999878     1.007825032230
         H           -2.380967234478     0.366614149182     1.486724999878     1.007825032230
         H           -3.573453234478     0.316848149182     0.166628999878     1.007825032230
         H           -2.456798234478     1.694234149182     0.301996999878     1.007825032230
         H            2.992278765522    -1.174552850818    -0.953893000122     1.007825032230
         H            2.617415765522     0.539752149182    -1.235716000122     1.007825032230
         H            4.014683765522     0.087528149182    -0.238737000122     1.007825032230
         H           -2.470560234478    -1.823751850818    -0.371021000122     1.007825032230

  Basis Set: AUG-CC-PVTZ
    Blend: AUG-CC-PVTZ
  Basis Set: (AUG-CC-PVTZ AUX)
    Blend: AUG-CC-PVTZ-JKFIT
	 Reference Energy          =    -400.0885424690009131 [Eh]
	 Singles Energy            =      -0.0000000000000000 [Eh]
	 Same-Spin Energy          =      -0.4013061808044771 [Eh]
	 Opposite-Spin Energy      =      -1.3068669779421380 [Eh]
	 Correlation Energy        =      -1.7081731587466151 [Eh]
	 Total Energy              =    -401.7967156277475169 [Eh]

	 ================> DF-SCS-MP2 Energies <==================
	-----------------------------------------------------------
	 SCS Same-Spin Scale       =       0.3333333333333333 [-]
	 SCS Opposite-Spin Scale   =       1.2000000000000000 [-]
	 SCS Same-Spin Energy      =      -0.1337687269348257 [Eh]
	 SCS Opposite-Spin Energy  =      -1.5682403735305657 [Eh]
	 SCS Correlation Energy    =      -1.7020091004653914 [Eh]
	 SCS Total Energy          =    -401.7905515694662881 [Eh]
	-----------------------------------------------------------

  Dipole Moment: [D]
     X:    -1.0696      Y:    -2.7379      Z:     0.4902     Total:     2.9800

*** Psi4 exiting successfully. Buy a developer a beer!
