                               Psi4 1.3.2 release

  ==> Input File <==

--------------------------------------------------------------------------
#psi4
#
memory 32 gb

molecule  {
0 1
  O       -2.4977389    -0.5584151    -0.0255923
  O       -0.0903380    -1.4616610     0.1717700
  N        0.9259230     0.4056680    -0.6455280
  C       -1.5147550     0.4028960    -0.3432490
  C        2.2711600    -0.1378510    -0.5222970
  C       -0.1583790    -0.2975740    -0.2472510
  C       -1.5228586     1.6544449     0.5256824
  C        2.8531060     0.0659690     0.8699860
  H       -1.6669500     0.7105100    -1.3901450
  H        2.2044940    -1.2028750    -0.7525030
  H        2.8934660     0.3357800    -1.2867330
  H        0.8101310     1.3771570    -0.9023240
  H       -1.3564630     1.3269670     1.5921410
  H       -2.5982940     2.0269070     0.5395510
  H       -0.8919110     2.4138320     0.2596650
  H        2.9042670     1.1289430     1.1200310
  H        2.2261210    -0.4398610     1.6074960
  H        3.8631580    -0.3501450     0.9292180
  H       -2.0326010    -1.3422410     0.2291570
units angstrom
no_reorient  #important for SAPT in psi4, default
symmetry c1  #important for SAPT in psi4, default
}

set PROPERTIES_ORIGIN ["COM"]
properties('MP2/aug-cc-pvtz', properties = ['dipole'])
--------------------------------------------------------------------------

    Molecular point group: c1
  Charge       = 0
  Multiplicity = 1
  Basis Set: AUG-CC-PVTZ
    Blend: AUG-CC-PVTZ
  Basis Set: (AUG-CC-PVTZ AUX)
    Blend: AUG-CC-PVTZ-JKFIT

    Orbital Energies [Eh]
    ---------------------

    Doubly Occupied:

       1A    -20.547468     2A    -20.531334     3A    -15.597631
       4A    -11.357085     5A    -11.300308     6A    -11.273069
       7A    -11.234882     8A    -11.223897     9A     -1.399740
      10A     -1.351126    11A     -1.245046    12A     -1.056249
      13A     -1.014366    14A     -0.902724    15A     -0.851545
      16A     -0.793831    17A     -0.749232    18A     -0.678736
      19A     -0.649784    20A     -0.643786    21A     -0.611028
      22A     -0.603197    23A     -0.585455    24A     -0.562944
      25A     -0.543995    26A     -0.532436    27A     -0.518924
      28A     -0.511987    29A     -0.501463    30A     -0.447461
      31A     -0.432528    32A     -0.402447

  @DF-RHF Final Energy:  -400.08019968892734

   => Energetics <=

    Nuclear Repulsion Energy =            400.9113445969841223
    One-Electron Energy =               -1340.6716750470984607
    Two-Electron Energy =                 539.6801307611870016
    Total Energy =                       -400.0801996889273369
  Basis Set: (AUG-CC-PVTZ AUX)
    Blend: AUG-CC-PVTZ-RI
    Molecular point group: c1

    Geometry (in Angstrom), charge = 0, multiplicity = 1:

       Center              X                  Y                   Z               Mass
    ------------   -----------------  -----------------  -----------------  -----------------
         O           -2.507254949858    -0.555477593122    -0.014095430805    15.994914619570
         O           -0.099854049858    -1.458723493122     0.183266869195    15.994914619570
         N            0.916406950142     0.408605506878    -0.634031130805    14.003074004430
         C           -1.524271049858     0.405833506878    -0.331752130805    12.000000000000
         C            2.261643950142    -0.134913493122    -0.510800130805    12.000000000000
         C           -0.167895049858    -0.294636493122    -0.235754130805    12.000000000000
         C           -1.532374649858     1.657382406878     0.537179269195    12.000000000000
         C            2.843589950142     0.068906506878     0.881482869195    12.000000000000
         H           -1.676466049858     0.713447506878    -1.378648130805     1.007825032230
         H            2.194977950142    -1.199937493122    -0.741006130805     1.007825032230
         H            2.883949950142     0.338717506878    -1.275236130805     1.007825032230
         H            0.800614950142     1.380094506878    -0.890827130805     1.007825032230
         H           -1.365979049858     1.329904506878     1.603637869195     1.007825032230
         H           -2.607810049858     2.029844506878     0.551047869195     1.007825032230
         H           -0.901427049858     2.416769506878     0.271161869195     1.007825032230
         H            2.894750950142     1.131880506878     1.131527869195     1.007825032230
         H            2.216604950142    -0.436923493122     1.618992869195     1.007825032230
         H            3.853641950142    -0.347207493122     0.940714869195     1.007825032230
         H           -2.042117049858    -1.339303493122     0.240653869195     1.007825032230

  Basis Set: AUG-CC-PVTZ
    Blend: AUG-CC-PVTZ
  Basis Set: (AUG-CC-PVTZ AUX)
    Blend: AUG-CC-PVTZ-JKFIT
	 Reference Energy          =    -400.0801996889273369 [Eh]
	 Singles Energy            =      -0.0000000000000000 [Eh]
	 Same-Spin Energy          =      -0.4017632706150001 [Eh]
	 Opposite-Spin Energy      =      -1.3068432660382170 [Eh]
	 Correlation Energy        =      -1.7086065366532170 [Eh]
	 Total Energy              =    -401.7888062255805721 [Eh]

	 ================> DF-SCS-MP2 Energies <==================
	-----------------------------------------------------------
	 SCS Same-Spin Scale       =       0.3333333333333333 [-]
	 SCS Opposite-Spin Scale   =       1.2000000000000000 [-]
	 SCS Same-Spin Energy      =      -0.1339210902050000 [Eh]
	 SCS Opposite-Spin Energy  =      -1.5682119192458603 [Eh]
	 SCS Correlation Energy    =      -1.7021330094508604 [Eh]
	 SCS Total Energy          =    -401.7823326983781840 [Eh]
	-----------------------------------------------------------

  Dipole Moment: [D]
     X:     3.0316      Y:     3.2952      Z:    -0.9426     Total:     4.5758

*** Psi4 exiting successfully. Buy a developer a beer!
