                               Psi4 1.4a3.dev225

  ==> Input File <==

--------------------------------------------------------------------------
#psi4
#
memory 32 gb

molecule  {
0 1
  O       -1.5707600    -1.5123310    -0.2332890
  O        0.1382410     1.6075510    -0.3059650
  N        0.6999210    -0.4896500     0.4239600
  C       -1.5456480    -0.0933390    -0.4361750
  C        2.0309662    -0.1518994     0.7167284
  C       -0.1470270     0.4197650    -0.1121660
  C       -2.5680410     0.6261290     0.4306590
  C        2.9727550    -0.1683320    -0.5071050
  H       -1.7217520     0.1422920    -1.4952760
  H        2.0695770     0.8628690     1.1612900
  H        2.4371510    -0.8367210     1.4904630
  H        0.3848370    -1.4513440     0.4597870
  H       -2.3944150     0.3774590     1.4809910
  H       -3.5869010     0.3276930     0.1608950
  H       -2.4702460     1.7050790     0.2962630
  H        2.9788310    -1.1637080    -0.9596270
  H        2.6039680     0.5505970    -1.2414500
  H        4.0012360     0.0983730    -0.2444710
  H       -2.4840080    -1.8129070    -0.3767550
units angstrom
no_reorient  #important for SAPT in psi4, default
symmetry c1  #important for SAPT in psi4, default
}

set PROPERTIES_ORIGIN ["COM"]
properties('MP2/aug-cc-pvtz', properties = ['dipole'])
--------------------------------------------------------------------------

    Molecular point group: c1
  Charge       = 0
  Multiplicity = 1
  Basis Set: AUG-CC-PVTZ
    Blend: AUG-CC-PVTZ
  Basis Set: (AUG-CC-PVTZ AUX)
    Blend: AUG-CC-PVTZ-JKFIT

    Orbital Energies [Eh]
    ---------------------

    Doubly Occupied:

       1A    -20.582954     2A    -20.512926     3A    -15.580268
       4A    -11.345952     5A    -11.303139     6A    -11.258757
       7A    -11.230563     8A    -11.210804     9A     -1.390540
      10A     -1.362706    11A     -1.237188    12A     -1.046515
      13A     -1.005150    14A     -0.905472    15A     -0.843555
      16A     -0.780665    17A     -0.719533    18A     -0.699015
      19A     -0.644315    20A     -0.640913    21A     -0.608714
      22A     -0.591675    23A     -0.580214    24A     -0.560092
      25A     -0.540869    26A     -0.526806    27A     -0.523212
      28A     -0.503864    29A     -0.484208    30A     -0.461292
      31A     -0.418126    32A     -0.382803

  @DF-RHF Final Energy:  -400.08527263063195

   => Energetics <=

    Nuclear Repulsion Energy =            400.6925419069902432
    One-Electron Energy =               -1340.5900162303410070
    Two-Electron Energy =                 539.8122016927187587
    Total Energy =                       -400.0852726306319482
  Basis Set: (AUG-CC-PVTZ AUX)
    Blend: AUG-CC-PVTZ-RI
    Molecular point group: c1

    Geometry (in Angstrom), charge = 0, multiplicity = 1:

       Center              X                  Y                   Z               Mass
    ------------   -----------------  -----------------  -----------------  -----------------
         O           -1.550573583275    -1.521253210198    -0.226050784744    15.994914619570
         O            0.158427416725     1.598628789802    -0.298726784744    15.994914619570
         N            0.720107416725    -0.498572210198     0.431198215256    14.003074004430
         C           -1.525461583275    -0.102261210198    -0.428936784744    12.000000000000
         C            2.051152616725    -0.160821610198     0.723966615256    12.000000000000
         C           -0.126840583275     0.410842789802    -0.104927784744    12.000000000000
         C           -2.547854583275     0.617206789802     0.437897215256    12.000000000000
         C            2.992941416725    -0.177254210198    -0.499866784744    12.000000000000
         H           -1.701565583275     0.133369789802    -1.488037784744     1.007825032230
         H            2.089763416725     0.853946789802     1.168528215256     1.007825032230
         H            2.457337416725    -0.845643210198     1.497701215256     1.007825032230
         H            0.405023416725    -1.460266210198     0.467025215256     1.007825032230
         H           -2.374228583275     0.368536789802     1.488229215256     1.007825032230
         H           -3.566714583275     0.318770789802     0.168133215256     1.007825032230
         H           -2.450059583275     1.696156789802     0.303501215256     1.007825032230
         H            2.999017416725    -1.172630210198    -0.952388784744     1.007825032230
         H            2.624154416725     0.541674789802    -1.234211784744     1.007825032230
         H            4.021422416725     0.089450789802    -0.237232784744     1.007825032230
         H           -2.463821583275    -1.821829210198    -0.369516784744     1.007825032230

  Basis Set: AUG-CC-PVTZ
    Blend: AUG-CC-PVTZ
  Basis Set: (AUG-CC-PVTZ AUX)
    Blend: AUG-CC-PVTZ-JKFIT
	 Reference Energy          =    -400.0852726306319482 [Eh]
	 Singles Energy            =      -0.0000000000000000 [Eh]
	 Same-Spin Energy          =      -0.4018968345712348 [Eh]
	 Opposite-Spin Energy      =      -1.3075887814936158 [Eh]
	 Correlation Energy        =      -1.7094856160648506 [Eh]
	 Total Energy              =    -401.7947582466968015 [Eh]

	 ================> DF-SCS-MP2 Energies <==================
	-----------------------------------------------------------
	 SCS Same-Spin Scale       =       0.3333333333333333 [-]
	 SCS Opposite-Spin Scale   =       1.2000000000000000 [-]
	 SCS Same-Spin Energy      =      -0.1339656115237449 [Eh]
	 SCS Opposite-Spin Energy  =      -1.5691065377923390 [Eh]
	 SCS Correlation Energy    =      -1.7030721493160839 [Eh]
	 SCS Total Energy          =    -401.7883447799480336 [Eh]
	-----------------------------------------------------------

  Dipole Moment: [D]
     X:    -1.3377      Y:    -2.7533      Z:     0.4586     Total:     3.0952

*** Psi4 exiting successfully. Buy a developer a beer!
