                               Psi4 1.3.2 release

  ==> Input File <==

--------------------------------------------------------------------------
#psi4
#
memory 32 gb

molecule  {
0 1
  O       -2.5211540    -0.5137840     0.0284240
  O       -0.0903380    -1.4616610     0.1717700
  N        0.9259230     0.4056680    -0.6455280
  C       -1.5147550     0.4028960    -0.3432490
  C        2.2711600    -0.1378510    -0.5222970
  C       -0.1603506    -0.2994742    -0.2341868
  C       -1.5844930     1.6236140     0.5658530
  C        2.8531060     0.0659690     0.8699860
  H       -1.6754784     0.7142539    -1.3877609
  H        2.2044940    -1.2028750    -0.7525030
  H        2.8934660     0.3357800    -1.2867330
  H        0.8101310     1.3771570    -0.9023240
  H       -1.3564630     1.3269670     1.5921410
  H       -2.5982940     2.0269070     0.5395510
  H       -0.8919110     2.4138320     0.2596650
  H        2.9042670     1.1289430     1.1200310
  H        2.2261210    -0.4398610     1.6074960
  H        3.8631580    -0.3501450     0.9292180
  H       -2.0326010    -1.3422410     0.2291570
units angstrom
no_reorient  #important for SAPT in psi4, default
symmetry c1  #important for SAPT in psi4, default
}

set PROPERTIES_ORIGIN ["COM"]
properties('MP2/aug-cc-pvtz', properties = ['dipole'])
--------------------------------------------------------------------------

    Molecular point group: c1
  Charge       = 0
  Multiplicity = 1
  Basis Set: AUG-CC-PVTZ
    Blend: AUG-CC-PVTZ
  Basis Set: (AUG-CC-PVTZ AUX)
    Blend: AUG-CC-PVTZ-JKFIT

    Orbital Energies [Eh]
    ---------------------

    Doubly Occupied:

       1A    -20.548585     2A    -20.535202     3A    -15.597399
       4A    -11.359522     5A    -11.298117     6A    -11.273077
       7A    -11.231212     8A    -11.224017     9A     -1.401556
      10A     -1.347774    11A     -1.244341    12A     -1.052481
      13A     -1.012309    14A     -0.902289    15A     -0.848755
      16A     -0.792932    17A     -0.745085    18A     -0.677360
      19A     -0.648527    20A     -0.643637    21A     -0.611128
      22A     -0.599551    23A     -0.575926    24A     -0.563264
      25A     -0.543739    26A     -0.534880    27A     -0.521946
      28A     -0.516132    29A     -0.502484    30A     -0.445940
      31A     -0.437046    32A     -0.403108

  @DF-RHF Final Energy:  -400.08796343889031

   => Energetics <=

    Nuclear Repulsion Energy =            400.4726910289800230
    One-Electron Energy =               -1339.8426627195060519
    Two-Electron Energy =                 539.2820082516356024
    Total Energy =                       -400.0879634388903696
  Basis Set: (AUG-CC-PVTZ AUX)
    Blend: AUG-CC-PVTZ-RI
    Molecular point group: c1

    Geometry (in Angstrom), charge = 0, multiplicity = 1:

       Center              X                  Y                   Z               Mass
    ------------   -----------------  -----------------  -----------------  -----------------
         O           -2.520878457260    -0.513621292099     0.027064535118    15.994914619570
         O           -0.090062457260    -1.461498292099     0.170410535118    15.994914619570
         N            0.926198542740     0.405830707901    -0.646887464882    14.003074004430
         C           -1.514479457260     0.403058707901    -0.344608464882    12.000000000000
         C            2.271435542740    -0.137688292099    -0.523656464882    12.000000000000
         C           -0.160075057260    -0.299311492099    -0.235546264882    12.000000000000
         C           -1.584217457260     1.623776707901     0.564493535118    12.000000000000
         C            2.853381542740     0.066131707901     0.868626535118    12.000000000000
         H           -1.675202857260     0.714416607901    -1.389120364882     1.007825032230
         H            2.204769542740    -1.202712292099    -0.753862464882     1.007825032230
         H            2.893741542740     0.335942707901    -1.288092464882     1.007825032230
         H            0.810406542740     1.377319707901    -0.903683464882     1.007825032230
         H           -1.356187457260     1.327129707901     1.590781535118     1.007825032230
         H           -2.598018457260     2.027069707901     0.538191535118     1.007825032230
         H           -0.891635457260     2.413994707901     0.258305535118     1.007825032230
         H            2.904542542740     1.129105707901     1.118671535118     1.007825032230
         H            2.226396542740    -0.439698292099     1.606136535118     1.007825032230
         H            3.863433542740    -0.349982292099     0.927858535118     1.007825032230
         H           -2.032325457260    -1.342078292099     0.227797535118     1.007825032230

  Basis Set: AUG-CC-PVTZ
    Blend: AUG-CC-PVTZ
  Basis Set: (AUG-CC-PVTZ AUX)
    Blend: AUG-CC-PVTZ-JKFIT
	 Reference Energy          =    -400.0879634388903128 [Eh]
	 Singles Energy            =      -0.0000000000000000 [Eh]
	 Same-Spin Energy          =      -0.4020226276218370 [Eh]
	 Opposite-Spin Energy      =      -1.3074885340173246 [Eh]
	 Correlation Energy        =      -1.7095111616391616 [Eh]
	 Total Energy              =    -401.7974746005294833 [Eh]

	 ================> DF-SCS-MP2 Energies <==================
	-----------------------------------------------------------
	 SCS Same-Spin Scale       =       0.3333333333333333 [-]
	 SCS Opposite-Spin Scale   =       1.2000000000000000 [-]
	 SCS Same-Spin Energy      =      -0.1340075425406123 [Eh]
	 SCS Opposite-Spin Energy  =      -1.5689862408207895 [Eh]
	 SCS Correlation Energy    =      -1.7029937833614019 [Eh]
	 SCS Total Energy          =    -401.7909572222517340 [Eh]
	-----------------------------------------------------------

  Dipole Moment: [D]
     X:     3.0595      Y:     3.1371      Z:    -1.0241     Total:     4.5001

*** Psi4 exiting successfully. Buy a developer a beer!
