                               Psi4 1.4a3.dev225

  ==> Input File <==

--------------------------------------------------------------------------
#psi4
#
memory 32 gb

molecule  {
0 1
  O       -1.5707600    -1.5123310    -0.2332890
  O        0.1382410     1.6075510    -0.3059650
  N        0.6999210    -0.4896500     0.4239600
  C       -1.5456480    -0.0933390    -0.4361750
  C        2.0783650    -0.1398720     0.7271540
  C       -0.1470270     0.4197650    -0.1121660
  C       -2.5680410     0.6261290     0.4306590
  C        2.9727550    -0.1683320    -0.5071050
  H       -1.7217520     0.1422920    -1.4952760
  H        2.0695770     0.8628690     1.1612900
  H        2.4371510    -0.8367210     1.4904630
  H        0.3848370    -1.4513440     0.4597870
  H       -2.3944150     0.3774590     1.4809910
  H       -3.5869010     0.3276930     0.1608950
  H       -2.4702460     1.7050790     0.2962630
  H        2.9788310    -1.1637080    -0.9596270
  H        2.6039680     0.5505970    -1.2414500
  H        4.0012360     0.0983730    -0.2444710
  H       -2.5027975    -1.8190911    -0.3797067
units angstrom
no_reorient  #important for SAPT in psi4, default
symmetry c1  #important for SAPT in psi4, default
}

set PROPERTIES_ORIGIN ["COM"]
properties('MP2/aug-cc-pvtz', properties = ['dipole'])
--------------------------------------------------------------------------

    Molecular point group: c1
  Charge       = 0
  Multiplicity = 1
  Basis Set: AUG-CC-PVTZ
    Blend: AUG-CC-PVTZ
  Basis Set: (AUG-CC-PVTZ AUX)
    Blend: AUG-CC-PVTZ-JKFIT

    Orbital Energies [Eh]
    ---------------------

    Doubly Occupied:

       1A    -20.583224     2A    -20.510380     3A    -15.578170
       4A    -11.343695     5A    -11.301419     6A    -11.259810
       7A    -11.229317     8A    -11.211966     9A     -1.385494
      10A     -1.358642    11A     -1.225046    12A     -1.044520
      13A     -1.009798    14A     -0.901579    15A     -0.842901
      16A     -0.775620    17A     -0.716102    18A     -0.694627
      19A     -0.641802    20A     -0.633326    21A     -0.609959
      22A     -0.588145    23A     -0.582667    24A     -0.558313
      25A     -0.539471    26A     -0.524962    27A     -0.519736
      28A     -0.508636    29A     -0.490480    30A     -0.460750
      31A     -0.415357    32A     -0.384277

  @DF-RHF Final Energy:  -400.08633240755398

   => Energetics <=

    Nuclear Repulsion Energy =            399.8198437299618604
    One-Electron Energy =               -1338.9519723673806766
    Two-Electron Energy =                 539.0457962298648908
    Total Energy =                       -400.0863324075539822
  Basis Set: (AUG-CC-PVTZ AUX)
    Blend: AUG-CC-PVTZ-RI
    Molecular point group: c1

    Geometry (in Angstrom), charge = 0, multiplicity = 1:

       Center              X                  Y                   Z               Mass
    ------------   -----------------  -----------------  -----------------  -----------------
         O           -1.555269977779    -1.522432724324    -0.227093947269    15.994914619570
         O            0.153731022221     1.597449275676    -0.299769947269    15.994914619570
         N            0.715411022221    -0.499751724324     0.430155052731    14.003074004430
         C           -1.530157977779    -0.103440724324    -0.429979947269    12.000000000000
         C            2.093855022221    -0.149973724324     0.733349052731    12.000000000000
         C           -0.131536977779     0.409663275676    -0.105970947269    12.000000000000
         C           -2.552550977779     0.616027275676     0.436854052731    12.000000000000
         C            2.988245022221    -0.178433724324    -0.500909947269    12.000000000000
         H           -1.706261977779     0.132190275676    -1.489080947269     1.007825032230
         H            2.085067022221     0.852767275676     1.167485052731     1.007825032230
         H            2.452641022221    -0.846822724324     1.496658052731     1.007825032230
         H            0.400327022221    -1.461445724324     0.465982052731     1.007825032230
         H           -2.378924977779     0.367357275676     1.487186052731     1.007825032230
         H           -3.571410977779     0.317591275676     0.167090052731     1.007825032230
         H           -2.454755977779     1.694977275676     0.302458052731     1.007825032230
         H            2.994321022221    -1.173809724324    -0.953431947269     1.007825032230
         H            2.619458022221     0.540495275676    -1.235254947269     1.007825032230
         H            4.016726022221     0.088271275676    -0.238275947269     1.007825032230
         H           -2.487307477779    -1.829192824324    -0.373511647269     1.007825032230

  Basis Set: AUG-CC-PVTZ
    Blend: AUG-CC-PVTZ
  Basis Set: (AUG-CC-PVTZ AUX)
    Blend: AUG-CC-PVTZ-JKFIT
	 Reference Energy          =    -400.0863324075539822 [Eh]
	 Singles Energy            =      -0.0000000000000000 [Eh]
	 Same-Spin Energy          =      -0.4018289747761612 [Eh]
	 Opposite-Spin Energy      =      -1.3080652157206352 [Eh]
	 Correlation Energy        =      -1.7098941904967964 [Eh]
	 Total Energy              =    -401.7962265980507937 [Eh]

	 ================> DF-SCS-MP2 Energies <==================
	-----------------------------------------------------------
	 SCS Same-Spin Scale       =       0.3333333333333333 [-]
	 SCS Opposite-Spin Scale   =       1.2000000000000000 [-]
	 SCS Same-Spin Energy      =      -0.1339429915920537 [Eh]
	 SCS Opposite-Spin Energy  =      -1.5696782588647622 [Eh]
	 SCS Correlation Energy    =      -1.7036212504568160 [Eh]
	 SCS Total Energy          =    -401.7899536580108020 [Eh]
	-----------------------------------------------------------

  Dipole Moment: [D]
     X:    -1.1771      Y:    -2.7693      Z:     0.4744     Total:     3.0462

*** Psi4 exiting successfully. Buy a developer a beer!
