                               Psi4 1.3.2 release

  ==> Input File <==

--------------------------------------------------------------------------
#psi4
#
memory 32 gb

molecule  {
0 1
  O       -2.5211540    -0.5137840     0.0284240
  O       -0.0903380    -1.4616610     0.1717700
  N        0.9259230     0.4056680    -0.6455280
  C       -1.5147550     0.4028960    -0.3432490
  C        2.2711600    -0.1378510    -0.5222970
  C       -0.1359066    -0.2421789    -0.1939674
  C       -1.5097369     1.6080809     0.5889455
  C        2.8531060     0.0659690     0.8699860
  H       -1.6669500     0.7105100    -1.3901450
  H        2.2044940    -1.2028750    -0.7525030
  H        2.8934660     0.3357800    -1.2867330
  H        0.8101310     1.3771570    -0.9023240
  H       -1.3564630     1.3269670     1.5921410
  H       -2.5982940     2.0269070     0.5395510
  H       -0.8919110     2.4138320     0.2596650
  H        2.9042670     1.1289430     1.1200310
  H        2.2261210    -0.4398610     1.6074960
  H        3.8631580    -0.3501450     0.9292180
  H       -2.0326010    -1.3422410     0.2291570
units angstrom
no_reorient  #important for SAPT in psi4, default
symmetry c1  #important for SAPT in psi4, default
}

set PROPERTIES_ORIGIN ["COM"]
properties('MP2/aug-cc-pvtz', properties = ['dipole'])
--------------------------------------------------------------------------

    Molecular point group: c1
  Charge       = 0
  Multiplicity = 1
  Basis Set: AUG-CC-PVTZ
    Blend: AUG-CC-PVTZ
  Basis Set: (AUG-CC-PVTZ AUX)
    Blend: AUG-CC-PVTZ-JKFIT

    Orbital Energies [Eh]
    ---------------------

    Doubly Occupied:

       1A    -20.549102     2A    -20.524673     3A    -15.605245
       4A    -11.357395     5A    -11.299848     6A    -11.276870
       7A    -11.231910     8A    -11.226775     9A     -1.384609
      10A     -1.340979    11A     -1.251073    12A     -1.058245
      13A     -1.016784    14A     -0.903217    15A     -0.852293
      16A     -0.799842    17A     -0.744248    18A     -0.679689
      19A     -0.653164    20A     -0.634058    21A     -0.615253
      22A     -0.599022    23A     -0.579926    24A     -0.553458
      25A     -0.548921    26A     -0.539193    27A     -0.516601
      28A     -0.508982    29A     -0.496142    30A     -0.447921
      31A     -0.427238    32A     -0.404620

  @DF-RHF Final Energy:  -400.07304424933920

   => Energetics <=

    Nuclear Repulsion Energy =            400.9819657342677601
    One-Electron Energy =               -1340.8554307744650487
    Two-Electron Energy =                 539.8004207908580838
    Total Energy =                       -400.0730442493392047
  Basis Set: (AUG-CC-PVTZ AUX)
    Blend: AUG-CC-PVTZ-RI
    Molecular point group: c1

    Geometry (in Angstrom), charge = 0, multiplicity = 1:

       Center              X                  Y                   Z               Mass
    ------------   -----------------  -----------------  -----------------  -----------------
         O           -2.531119376247    -0.517869477468     0.020595909807    15.994914619570
         O           -0.100303376247    -1.465746477468     0.163941909807    15.994914619570
         N            0.915957623753     0.401582522532    -0.653356090193    14.003074004430
         C           -1.524720376247     0.398810522532    -0.351077090193    12.000000000000
         C            2.261194623753    -0.141936477468    -0.530125090193    12.000000000000
         C           -0.145871976247    -0.246264377468    -0.201795490193    12.000000000000
         C           -1.519702276247     1.603995422532     0.581117409807    12.000000000000
         C            2.843140623753     0.061883522532     0.862157909807    12.000000000000
         H           -1.676915376247     0.706424522532    -1.397973090193     1.007825032230
         H            2.194528623753    -1.206960477468    -0.760331090193     1.007825032230
         H            2.883500623753     0.331694522532    -1.294561090193     1.007825032230
         H            0.800165623753     1.373071522532    -0.910152090193     1.007825032230
         H           -1.366428376247     1.322881522532     1.584312909807     1.007825032230
         H           -2.608259376247     2.022821522532     0.531722909807     1.007825032230
         H           -0.901876376247     2.409746522532     0.251836909807     1.007825032230
         H            2.894301623753     1.124857522532     1.112202909807     1.007825032230
         H            2.216155623753    -0.443946477468     1.599667909807     1.007825032230
         H            3.853192623753    -0.354230477468     0.921389909807     1.007825032230
         H           -2.042566376247    -1.346326477468     0.221328909807     1.007825032230

  Basis Set: AUG-CC-PVTZ
    Blend: AUG-CC-PVTZ
  Basis Set: (AUG-CC-PVTZ AUX)
    Blend: AUG-CC-PVTZ-JKFIT
	 Reference Energy          =    -400.0730442493392047 [Eh]
	 Singles Energy            =      -0.0000000000000000 [Eh]
	 Same-Spin Energy          =      -0.4032848001370748 [Eh]
	 Opposite-Spin Energy      =      -1.3098718802348408 [Eh]
	 Correlation Energy        =      -1.7131566803719156 [Eh]
	 Total Energy              =    -401.7862009297111285 [Eh]

	 ================> DF-SCS-MP2 Energies <==================
	-----------------------------------------------------------
	 SCS Same-Spin Scale       =       0.3333333333333333 [-]
	 SCS Opposite-Spin Scale   =       1.2000000000000000 [-]
	 SCS Same-Spin Energy      =      -0.1344282667123582 [Eh]
	 SCS Opposite-Spin Energy  =      -1.5718462562818090 [Eh]
	 SCS Correlation Energy    =      -1.7062745229941672 [Eh]
	 SCS Total Energy          =    -401.7793187723333972 [Eh]
	-----------------------------------------------------------

  Dipole Moment: [D]
     X:     3.3017      Y:     3.3800      Z:    -1.0978     Total:     4.8508

*** Psi4 exiting successfully. Buy a developer a beer!
