                               Psi4 1.3.2 release

  ==> Input File <==

--------------------------------------------------------------------------
#psi4
#
memory 32 gb

molecule  {
0 1
  O       -2.5211540    -0.5137840     0.0284240
  O       -0.0903380    -1.4616610     0.1717700
  N        0.9259230     0.4056680    -0.6455280
  C       -1.5147550     0.4028960    -0.3432490
  C        2.2711600    -0.1378510    -0.5222970
  C        0.0189732    -0.3891636    -0.2346988
  C       -1.5844930     1.6236140     0.5658530
  C        2.8531060     0.0659690     0.8699860
  H       -1.6669500     0.7105100    -1.3901450
  H        2.2044940    -1.2028750    -0.7525030
  H        2.8934660     0.3357800    -1.2867330
  H        0.8101310     1.3771570    -0.9023240
  H       -1.3564630     1.3269670     1.5921410
  H       -2.5982940     2.0269070     0.5395510
  H       -0.8919110     2.4138320     0.2596650
  H        2.9042670     1.1289430     1.1200310
  H        2.2261210    -0.4398610     1.6074960
  H        3.8631580    -0.3501450     0.9292180
  H       -2.0326010    -1.3422410     0.2291570
units angstrom
no_reorient  #important for SAPT in psi4, default
symmetry c1  #important for SAPT in psi4, default
}

set PROPERTIES_ORIGIN ["COM"]
properties('MP2/aug-cc-pvtz', properties = ['dipole'])
--------------------------------------------------------------------------

    Molecular point group: c1
  Charge       = 0
  Multiplicity = 1
  Basis Set: AUG-CC-PVTZ
    Blend: AUG-CC-PVTZ
  Basis Set: (AUG-CC-PVTZ AUX)
    Blend: AUG-CC-PVTZ-JKFIT

    Orbital Energies [Eh]
    ---------------------

    Doubly Occupied:

       1A    -20.542013     2A    -20.538277     3A    -15.605700
       4A    -11.350885     5A    -11.278707     6A    -11.278411
       7A    -11.231121     8A    -11.217447     9A     -1.446522
      10A     -1.339826    11A     -1.288273    12A     -1.044889
      13A     -1.001797    14A     -0.893447    15A     -0.834485
      16A     -0.821680    17A     -0.727303    18A     -0.687489
      19A     -0.658008    20A     -0.641579    21A     -0.621089
      22A     -0.618127    23A     -0.569976    24A     -0.554768
      25A     -0.552081    26A     -0.538376    27A     -0.525261
      28A     -0.523671    29A     -0.511554    30A     -0.436686
      31A     -0.418922    32A     -0.381055

  @DF-RHF Final Energy:  -400.05030890231808

   => Energetics <=

    Nuclear Repulsion Energy =            401.1761467171477307
    One-Electron Energy =               -1341.0940625261334844
    Two-Electron Energy =                 539.8676069066676746
    Total Energy =                       -400.0503089023180792
  Basis Set: (AUG-CC-PVTZ AUX)
    Blend: AUG-CC-PVTZ-RI
    Molecular point group: c1

    Geometry (in Angstrom), charge = 0, multiplicity = 1:

       Center              X                  Y                   Z               Mass
    ------------   -----------------  -----------------  -----------------  -----------------
         O           -2.539331648096    -0.504396356854     0.027137535034    15.994914619570
         O           -0.108515648096    -1.452273356854     0.170483535034    15.994914619570
         N            0.907745351904     0.415055643146    -0.646814464966    14.003074004430
         C           -1.532932648096     0.412283643146    -0.344535464966    12.000000000000
         C            2.252982351904    -0.128463356854    -0.523583464966    12.000000000000
         C            0.000795551904    -0.379775956854    -0.235985264966    12.000000000000
         C           -1.602670648096     1.633001643146     0.564566535034    12.000000000000
         C            2.834928351904     0.075356643146     0.868699535034    12.000000000000
         H           -1.685127648096     0.719897643146    -1.391431464966     1.007825032230
         H            2.186316351904    -1.193487356854    -0.753789464966     1.007825032230
         H            2.875288351904     0.345167643146    -1.288019464966     1.007825032230
         H            0.791953351904     1.386544643146    -0.903610464966     1.007825032230
         H           -1.374640648096     1.336354643146     1.590854535034     1.007825032230
         H           -2.616471648096     2.036294643146     0.538264535034     1.007825032230
         H           -0.910088648096     2.423219643146     0.258378535034     1.007825032230
         H            2.886089351904     1.138330643146     1.118744535034     1.007825032230
         H            2.207943351904    -0.430473356854     1.606209535034     1.007825032230
         H            3.844980351904    -0.340757356854     0.927931535034     1.007825032230
         H           -2.050778648096    -1.332853356854     0.227870535034     1.007825032230

  Basis Set: AUG-CC-PVTZ
    Blend: AUG-CC-PVTZ
  Basis Set: (AUG-CC-PVTZ AUX)
    Blend: AUG-CC-PVTZ-JKFIT
	 Reference Energy          =    -400.0503089023180792 [Eh]
	 Singles Energy            =      -0.0000000000000000 [Eh]
	 Same-Spin Energy          =      -0.4015703777203754 [Eh]
	 Opposite-Spin Energy      =      -1.3060688823007869 [Eh]
	 Correlation Energy        =      -1.7076392600211623 [Eh]
	 Total Energy              =    -401.7579481623392326 [Eh]

	 ================> DF-SCS-MP2 Energies <==================
	-----------------------------------------------------------
	 SCS Same-Spin Scale       =       0.3333333333333333 [-]
	 SCS Opposite-Spin Scale   =       1.2000000000000000 [-]
	 SCS Same-Spin Energy      =      -0.1338567925734584 [Eh]
	 SCS Opposite-Spin Energy  =      -1.5672826587609443 [Eh]
	 SCS Correlation Energy    =      -1.7011394513344027 [Eh]
	 SCS Total Energy          =    -401.7514483536525063 [Eh]
	-----------------------------------------------------------

  Dipole Moment: [D]
     X:     4.0544      Y:     2.7054      Z:    -1.0495     Total:     4.9859

*** Psi4 exiting successfully. Buy a developer a beer!
