                               Psi4 1.3.2 release

  ==> Input File <==

--------------------------------------------------------------------------
#psi4
#
memory 32 gb

molecule  {
0 1
  O       -2.5211540    -0.5137840     0.0284240
  O       -0.0903380    -1.4616610     0.1717700
  N        0.9259230     0.4056680    -0.6455280
  C       -1.3721175     0.5328176    -0.3959264
  C        2.2711600    -0.1378510    -0.5222970
  C       -0.1583790    -0.2975740    -0.2472510
  C       -1.5844930     1.6236140     0.5658530
  C        2.8531060     0.0659690     0.8699860
  H       -1.6669500     0.7105100    -1.3901450
  H        2.2044940    -1.2028750    -0.7525030
  H        2.8934660     0.3357800    -1.2867330
  H        0.8101310     1.3771570    -0.9023240
  H       -1.3564630     1.3269670     1.5921410
  H       -2.5982940     2.0269070     0.5395510
  H       -0.8919110     2.4138320     0.2596650
  H        2.9042670     1.1289430     1.1200310
  H        2.2261210    -0.4398610     1.6074960
  H        3.8631580    -0.3501450     0.9292180
  H       -2.0326010    -1.3422410     0.2291570
units angstrom
no_reorient  #important for SAPT in psi4, default
symmetry c1  #important for SAPT in psi4, default
}

set PROPERTIES_ORIGIN ["COM"]
properties('MP2/aug-cc-pvtz', properties = ['dipole'])
--------------------------------------------------------------------------

    Molecular point group: c1
  Charge       = 0
  Multiplicity = 1
  Basis Set: AUG-CC-PVTZ
    Blend: AUG-CC-PVTZ
  Basis Set: (AUG-CC-PVTZ AUX)
    Blend: AUG-CC-PVTZ-JKFIT

    Orbital Energies [Eh]
    ---------------------

    Doubly Occupied:

       1A    -20.538441     2A    -20.528578     3A    -15.600654
       4A    -11.365851     5A    -11.301910     6A    -11.274466
       7A    -11.238277     8A    -11.225875     9A     -1.395489
      10A     -1.287089    11A     -1.252591    12A     -1.073994
      13A     -1.020967    14A     -0.917662    15A     -0.852120
      16A     -0.799131    17A     -0.736040    18A     -0.673757
      19A     -0.649310    20A     -0.635531    21A     -0.612114
      22A     -0.602542    23A     -0.583933    24A     -0.561835
      25A     -0.540389    26A     -0.528352    27A     -0.523403
      28A     -0.506004    29A     -0.475905    30A     -0.447463
      31A     -0.444882    32A     -0.406044

  @DF-RHF Final Energy:  -400.05054760937577

   => Energetics <=

    Nuclear Repulsion Energy =            400.0526313611809996
    One-Electron Energy =               -1339.0051600561262148
    Two-Electron Energy =                 538.9019810855694459
    Total Energy =                       -400.0505476093757125
  Basis Set: (AUG-CC-PVTZ AUX)
    Blend: AUG-CC-PVTZ-RI
    Molecular point group: c1

    Geometry (in Angstrom), charge = 0, multiplicity = 1:

       Center              X                  Y                   Z               Mass
    ------------   -----------------  -----------------  -----------------  -----------------
         O           -2.535773567858    -0.527100128546     0.033823237364    15.994914619570
         O           -0.104957567858    -1.474977128546     0.177169237364    15.994914619570
         N            0.911303432142     0.392351871454    -0.640128762636    14.003074004430
         C           -1.386737067858     0.519501471454    -0.390527162636    12.000000000000
         C            2.256540432142    -0.151167128546    -0.516897762636    12.000000000000
         C           -0.172998567858    -0.310890128546    -0.241851762636    12.000000000000
         C           -1.599112567858     1.610297871454     0.571252237364    12.000000000000
         C            2.838486432142     0.052652871454     0.875385237364    12.000000000000
         H           -1.681569567858     0.697193871454    -1.384745762636     1.007825032230
         H            2.189874432142    -1.216191128546    -0.747103762636     1.007825032230
         H            2.878846432142     0.322463871454    -1.281333762636     1.007825032230
         H            0.795511432142     1.363840871454    -0.896924762636     1.007825032230
         H           -1.371082567858     1.313650871454     1.597540237364     1.007825032230
         H           -2.612913567858     2.013590871454     0.544950237364     1.007825032230
         H           -0.906530567858     2.400515871454     0.265064237364     1.007825032230
         H            2.889647432142     1.115626871454     1.125430237364     1.007825032230
         H            2.211501432142    -0.453177128546     1.612895237364     1.007825032230
         H            3.848538432142    -0.363461128546     0.934617237364     1.007825032230
         H           -2.047220567858    -1.355557128546     0.234556237364     1.007825032230

  Basis Set: AUG-CC-PVTZ
    Blend: AUG-CC-PVTZ
  Basis Set: (AUG-CC-PVTZ AUX)
    Blend: AUG-CC-PVTZ-JKFIT
	 Reference Energy          =    -400.0505476093757693 [Eh]
	 Singles Energy            =      -0.0000000000000000 [Eh]
	 Same-Spin Energy          =      -0.4044478320144707 [Eh]
	 Opposite-Spin Energy      =      -1.3146047040749544 [Eh]
	 Correlation Energy        =      -1.7190525360894251 [Eh]
	 Total Energy              =    -401.7696001454651764 [Eh]

	 ================> DF-SCS-MP2 Energies <==================
	-----------------------------------------------------------
	 SCS Same-Spin Scale       =       0.3333333333333333 [-]
	 SCS Opposite-Spin Scale   =       1.2000000000000000 [-]
	 SCS Same-Spin Energy      =      -0.1348159440048236 [Eh]
	 SCS Opposite-Spin Energy  =      -1.5775256448899453 [Eh]
	 SCS Correlation Energy    =      -1.7123415888947688 [Eh]
	 SCS Total Energy          =    -401.7628891982705568 [Eh]
	-----------------------------------------------------------

  Dipole Moment: [D]
     X:     3.4510      Y:     3.5622      Z:    -1.1111     Total:     5.0827

*** Psi4 exiting successfully. Buy a developer a beer!
