                               Psi4 1.3.2 release

  ==> Input File <==

--------------------------------------------------------------------------
#psi4
#
memory 32 gb

molecule  {
0 1
  O       -2.5211540    -0.5137840     0.0284240
  O       -0.1547820    -1.4609594     0.1791621
  N        0.9259230     0.4056680    -0.6455280
  C       -1.5488208     0.3362591    -0.3147567
  C        2.2711600    -0.1378510    -0.5222970
  C       -0.1583790    -0.2975740    -0.2472510
  C       -1.5844930     1.6236140     0.5658530
  C        2.8531060     0.0659690     0.8699860
  H       -1.6669500     0.7105100    -1.3901450
  H        2.2044940    -1.2028750    -0.7525030
  H        2.8934660     0.3357800    -1.2867330
  H        0.8101310     1.3771570    -0.9023240
  H       -1.3564630     1.3269670     1.5921410
  H       -2.5982940     2.0269070     0.5395510
  H       -0.8919110     2.4138320     0.2596650
  H        2.9042670     1.1289430     1.1200310
  H        2.2261210    -0.4398610     1.6074960
  H        3.8631580    -0.3501450     0.9292180
  H       -2.0326010    -1.3422410     0.2291570
units angstrom
no_reorient  #important for SAPT in psi4, default
symmetry c1  #important for SAPT in psi4, default
}

set PROPERTIES_ORIGIN ["COM"]
properties('MP2/aug-cc-pvtz', properties = ['dipole'])
--------------------------------------------------------------------------

    Molecular point group: c1
  Charge       = 0
  Multiplicity = 1
  Basis Set: AUG-CC-PVTZ
    Blend: AUG-CC-PVTZ
  Basis Set: (AUG-CC-PVTZ AUX)
    Blend: AUG-CC-PVTZ-JKFIT

    Orbital Energies [Eh]
    ---------------------

    Doubly Occupied:

       1A    -20.552802     2A    -20.533382     3A    -15.601806
       4A    -11.358207     5A    -11.297274     6A    -11.276182
       7A    -11.227773     8A    -11.225766     9A     -1.412526
      10A     -1.365404    11A     -1.249030    12A     -1.046702
      13A     -1.007080    14A     -0.899973    15A     -0.849295
      16A     -0.795727    17A     -0.756426    18A     -0.678647
      19A     -0.651858    20A     -0.642814    21A     -0.615276
      22A     -0.602469    23A     -0.583901    24A     -0.560186
      25A     -0.548005    26A     -0.536507    27A     -0.522138
      28A     -0.513262    29A     -0.505178    30A     -0.433423
      31A     -0.429624    32A     -0.404444

  @DF-RHF Final Energy:  -400.08076203910139

   => Energetics <=

    Nuclear Repulsion Energy =            401.0455083085219030
    One-Electron Energy =               -1340.8863679779524318
    Two-Electron Energy =                 539.7600976303291418
    Total Energy =                       -400.0807620391013870
  Basis Set: (AUG-CC-PVTZ AUX)
    Blend: AUG-CC-PVTZ-RI
    Molecular point group: c1

    Geometry (in Angstrom), charge = 0, multiplicity = 1:

       Center              X                  Y                   Z               Mass
    ------------   -----------------  -----------------  -----------------  -----------------
         O           -2.508858267473    -0.507049731831     0.024493873362    15.994914619570
         O           -0.142486267473    -1.454225131831     0.175231973362    15.994914619570
         N            0.938218732527     0.412402268169    -0.649458126638    14.003074004430
         C           -1.536525067473     0.342993368169    -0.318686826638    12.000000000000
         C            2.283455732527    -0.131116731831    -0.526227126638    12.000000000000
         C           -0.146083267473    -0.290839731831    -0.251181126638    12.000000000000
         C           -1.572197267473     1.630348268169     0.561922873362    12.000000000000
         C            2.865401732527     0.072703268169     0.866055873362    12.000000000000
         H           -1.654654267473     0.717244268169    -1.394075126638     1.007825032230
         H            2.216789732527    -1.196140731831    -0.756433126638     1.007825032230
         H            2.905761732527     0.342514268169    -1.290663126638     1.007825032230
         H            0.822426732527     1.383891268169    -0.906254126638     1.007825032230
         H           -1.344167267473     1.333701268169     1.588210873362     1.007825032230
         H           -2.585998267473     2.033641268169     0.535620873362     1.007825032230
         H           -0.879615267473     2.420566268169     0.255734873362     1.007825032230
         H            2.916562732527     1.135677268169     1.116100873362     1.007825032230
         H            2.238416732527    -0.433126731831     1.603565873362     1.007825032230
         H            3.875453732527    -0.343410731831     0.925287873362     1.007825032230
         H           -2.020305267473    -1.335506731831     0.225226873362     1.007825032230

  Basis Set: AUG-CC-PVTZ
    Blend: AUG-CC-PVTZ
  Basis Set: (AUG-CC-PVTZ AUX)
    Blend: AUG-CC-PVTZ-JKFIT
	 Reference Energy          =    -400.0807620391013870 [Eh]
	 Singles Energy            =      -0.0000000000000000 [Eh]
	 Same-Spin Energy          =      -0.4022791437421872 [Eh]
	 Opposite-Spin Energy      =      -1.3067983702649928 [Eh]
	 Correlation Energy        =      -1.7090775140071801 [Eh]
	 Total Energy              =    -401.7898395531085498 [Eh]

	 ================> DF-SCS-MP2 Energies <==================
	-----------------------------------------------------------
	 SCS Same-Spin Scale       =       0.3333333333333333 [-]
	 SCS Opposite-Spin Scale   =       1.2000000000000000 [-]
	 SCS Same-Spin Energy      =      -0.1340930479140624 [Eh]
	 SCS Opposite-Spin Energy  =      -1.5681580443179912 [Eh]
	 SCS Correlation Energy    =      -1.7022510922320535 [Eh]
	 SCS Total Energy          =    -401.7830131313334618 [Eh]
	-----------------------------------------------------------

  Dipole Moment: [D]
     X:     3.1653      Y:     2.9329      Z:    -0.9963     Total:     4.4287

*** Psi4 exiting successfully. Buy a developer a beer!
