                               Psi4 1.3.2 release

  ==> Input File <==

--------------------------------------------------------------------------
#psi4
#
memory 32 gb

molecule  {
0 1
  O       -2.5211540    -0.5137840     0.0284240
  O       -0.0903380    -1.4616610     0.1717700
  N        0.9015783     0.3358557    -0.6641041
  C       -1.5147550     0.4028960    -0.3432490
  C        2.2711600    -0.1378510    -0.5222970
  C       -0.1583790    -0.2975740    -0.2472510
  C       -1.5844930     1.6236140     0.5658530
  C        2.8531060     0.0659690     0.8699860
  H       -1.6669500     0.7105100    -1.3901450
  H        2.1483777    -1.1960162    -0.7608890
  H        2.8934660     0.3357800    -1.2867330
  H        0.8101310     1.3771570    -0.9023240
  H       -1.3564630     1.3269670     1.5921410
  H       -2.5982940     2.0269070     0.5395510
  H       -0.8919110     2.4138320     0.2596650
  H        2.9042670     1.1289430     1.1200310
  H        2.2261210    -0.4398610     1.6074960
  H        3.8631580    -0.3501450     0.9292180
  H       -2.0326010    -1.3422410     0.2291570
units angstrom
no_reorient  #important for SAPT in psi4, default
symmetry c1  #important for SAPT in psi4, default
}

set PROPERTIES_ORIGIN ["COM"]
properties('MP2/aug-cc-pvtz', properties = ['dipole'])
--------------------------------------------------------------------------

    Molecular point group: c1
  Charge       = 0
  Multiplicity = 1
  Basis Set: AUG-CC-PVTZ
    Blend: AUG-CC-PVTZ
  Basis Set: (AUG-CC-PVTZ AUX)
    Blend: AUG-CC-PVTZ-JKFIT

    Orbital Energies [Eh]
    ---------------------

    Doubly Occupied:

       1A    -20.547113     2A    -20.523847     3A    -15.604201
       4A    -11.350830     5A    -11.297266     6A    -11.276029
       7A    -11.230944     8A    -11.227787     9A     -1.398697
      10A     -1.346279    11A     -1.249399    12A     -1.055396
      13A     -1.015205    14A     -0.906889    15A     -0.851616
      16A     -0.785400    17A     -0.744151    18A     -0.676497
      19A     -0.649574    20A     -0.639849    21A     -0.616745
      22A     -0.593943    23A     -0.576500    24A     -0.563791
      25A     -0.545391    26A     -0.535381    27A     -0.521674
      28A     -0.509634    29A     -0.503659    30A     -0.444707
      31A     -0.433091    32A     -0.403987

  @DF-RHF Final Energy:  -400.07986859435732

   => Energetics <=

    Nuclear Repulsion Energy =            401.3518202113398843
    One-Electron Energy =               -1341.6124322273674352
    Two-Electron Energy =                 540.1807434216702859
    Total Energy =                       -400.0798685943573219
  Basis Set: (AUG-CC-PVTZ AUX)
    Blend: AUG-CC-PVTZ-RI
    Molecular point group: c1

    Geometry (in Angstrom), charge = 0, multiplicity = 1:

       Center              X                  Y                   Z               Mass
    ------------   -----------------  -----------------  -----------------  -----------------
         O           -2.517759180709    -0.505493059854     0.030718028550    15.994914619570
         O           -0.086943180709    -1.453370059854     0.174064028550    15.994914619570
         N            0.904973119291     0.344146640146    -0.661810071450    14.003074004430
         C           -1.511360180709     0.411186940146    -0.340954971450    12.000000000000
         C            2.274554819291    -0.129560059854    -0.520002971450    12.000000000000
         C           -0.154984180709    -0.289283059854    -0.244956971450    12.000000000000
         C           -1.581098180709     1.631904940146     0.568147028550    12.000000000000
         C            2.856500819291     0.074259940146     0.872280028550    12.000000000000
         H           -1.663555180709     0.718800940146    -1.387850971450     1.007825032230
         H            2.151772519291    -1.187725259854    -0.758594971450     1.007825032230
         H            2.896860819291     0.344070940146    -1.284438971450     1.007825032230
         H            0.813525819291     1.385447940146    -0.900029971450     1.007825032230
         H           -1.353068180709     1.335257940146     1.594435028550     1.007825032230
         H           -2.594899180709     2.035197940146     0.541845028550     1.007825032230
         H           -0.888516180709     2.422122940146     0.261959028550     1.007825032230
         H            2.907661819291     1.137233940146     1.122325028550     1.007825032230
         H            2.229515819291    -0.431570059854     1.609790028550     1.007825032230
         H            3.866552819291    -0.341854059854     0.931512028550     1.007825032230
         H           -2.029206180709    -1.333950059854     0.231451028550     1.007825032230

  Basis Set: AUG-CC-PVTZ
    Blend: AUG-CC-PVTZ
  Basis Set: (AUG-CC-PVTZ AUX)
    Blend: AUG-CC-PVTZ-JKFIT
	 Reference Energy          =    -400.0798685943573219 [Eh]
	 Singles Energy            =      -0.0000000000000000 [Eh]
	 Same-Spin Energy          =      -0.4025259114508768 [Eh]
	 Opposite-Spin Energy      =      -1.3081501613492552 [Eh]
	 Correlation Energy        =      -1.7106760728001320 [Eh]
	 Total Energy              =    -401.7905446671574623 [Eh]

	 ================> DF-SCS-MP2 Energies <==================
	-----------------------------------------------------------
	 SCS Same-Spin Scale       =       0.3333333333333333 [-]
	 SCS Opposite-Spin Scale   =       1.2000000000000000 [-]
	 SCS Same-Spin Energy      =      -0.1341753038169589 [Eh]
	 SCS Opposite-Spin Energy  =      -1.5697801936191063 [Eh]
	 SCS Correlation Energy    =      -1.7039554974360651 [Eh]
	 SCS Total Energy          =    -401.7838240917934058 [Eh]
	-----------------------------------------------------------

  Dipole Moment: [D]
     X:     3.2887      Y:     3.3533      Z:    -1.0331     Total:     4.8091

*** Psi4 exiting successfully. Buy a developer a beer!
