                               Psi4 1.3.2 release

  ==> Input File <==

--------------------------------------------------------------------------
#psi4
#
memory 32 gb

molecule  {
0 1
  O       -2.5211540    -0.5137840     0.0284240
  O       -0.0903380    -1.4616610     0.1717700
  N        0.9259230     0.4056680    -0.6455280
  C       -1.5147550     0.4028960    -0.3432490
  C        2.2893900    -0.0949451    -0.5425446
  C       -0.1856872    -0.2614872    -0.2606755
  C       -1.5844930     1.6236140     0.5658530
  C        2.8531060     0.0659690     0.8699860
  H       -1.6669500     0.7105100    -1.3901450
  H        2.2044940    -1.2028750    -0.7525030
  H        2.8934660     0.3357800    -1.2867330
  H        0.8101310     1.3771570    -0.9023240
  H       -1.3564630     1.3269670     1.5921410
  H       -2.5982940     2.0269070     0.5395510
  H       -0.8919110     2.4138320     0.2596650
  H        2.9042670     1.1289430     1.1200310
  H        2.2261210    -0.4398610     1.6074960
  H        3.8631580    -0.3501450     0.9292180
  H       -2.0326010    -1.3422410     0.2291570
units angstrom
no_reorient  #important for SAPT in psi4, default
symmetry c1  #important for SAPT in psi4, default
}

set PROPERTIES_ORIGIN ["COM"]
properties('MP2/aug-cc-pvtz', properties = ['dipole'])
--------------------------------------------------------------------------

    Molecular point group: c1
  Charge       = 0
  Multiplicity = 1
  Basis Set: AUG-CC-PVTZ
    Blend: AUG-CC-PVTZ
  Basis Set: (AUG-CC-PVTZ AUX)
    Blend: AUG-CC-PVTZ-JKFIT

    Orbital Energies [Eh]
    ---------------------

    Doubly Occupied:

       1A    -20.550076     2A    -20.527753     3A    -15.602289
       4A    -11.363142     5A    -11.300397     6A    -11.275194
       7A    -11.234142     8A    -11.224892     9A     -1.385477
      10A     -1.339819    11A     -1.241609    12A     -1.059608
      13A     -1.014748    14A     -0.910284    15A     -0.855804
      16A     -0.789327    17A     -0.748044    18A     -0.678599
      19A     -0.655877    20A     -0.635198    21A     -0.610501
      22A     -0.591369    23A     -0.574846    24A     -0.564942
      25A     -0.544748    26A     -0.536194    27A     -0.521016
      28A     -0.512279    29A     -0.493173    30A     -0.447313
      31A     -0.438345    32A     -0.400143

  @DF-RHF Final Energy:  -400.07734739948017

   => Energetics <=

    Nuclear Repulsion Energy =            399.9908373512761841
    One-Electron Energy =               -1338.8820683189569536
    Two-Electron Energy =                 538.8138835682005947
    Total Energy =                       -400.0773473994801179
  Basis Set: (AUG-CC-PVTZ AUX)
    Blend: AUG-CC-PVTZ-RI
    Molecular point group: c1

    Geometry (in Angstrom), charge = 0, multiplicity = 1:

       Center              X                  Y                   Z               Mass
    ------------   -----------------  -----------------  -----------------  -----------------
         O           -2.520223480030    -0.521880175252     0.031875290750    15.994914619570
         O           -0.089407480030    -1.469757175252     0.175221290750    15.994914619570
         N            0.926853519970     0.397571824748    -0.642076709250    14.003074004430
         C           -1.513824480030     0.394799824748    -0.339797709250    12.000000000000
         C            2.290320519970    -0.103041275252    -0.539093309250    12.000000000000
         C           -0.184756680030    -0.269583375252    -0.257224209250    12.000000000000
         C           -1.583562480030     1.615517824748     0.569304290750    12.000000000000
         C            2.854036519970     0.057872824748     0.873437290750    12.000000000000
         H           -1.666019480030     0.702413824748    -1.386693709250     1.007825032230
         H            2.205424519970    -1.210971175252    -0.749051709250     1.007825032230
         H            2.894396519970     0.327683824748    -1.283281709250     1.007825032230
         H            0.811061519970     1.369060824748    -0.898872709250     1.007825032230
         H           -1.355532480030     1.318870824748     1.595592290750     1.007825032230
         H           -2.597363480030     2.018810824748     0.543002290750     1.007825032230
         H           -0.890980480030     2.405735824748     0.263116290750     1.007825032230
         H            2.905197519970     1.120846824748     1.123482290750     1.007825032230
         H            2.227051519970    -0.447957175252     1.610947290750     1.007825032230
         H            3.864088519970    -0.358241175252     0.932669290750     1.007825032230
         H           -2.031670480030    -1.350337175252     0.232608290750     1.007825032230

  Basis Set: AUG-CC-PVTZ
    Blend: AUG-CC-PVTZ
  Basis Set: (AUG-CC-PVTZ AUX)
    Blend: AUG-CC-PVTZ-JKFIT
	 Reference Energy          =    -400.0773473994801748 [Eh]
	 Singles Energy            =      -0.0000000000000000 [Eh]
	 Same-Spin Energy          =      -0.4032907882905424 [Eh]
	 Opposite-Spin Energy      =      -1.3099905350062500 [Eh]
	 Correlation Energy        =      -1.7132813232967923 [Eh]
	 Total Energy              =    -401.7906287227769440 [Eh]

	 ================> DF-SCS-MP2 Energies <==================
	-----------------------------------------------------------
	 SCS Same-Spin Scale       =       0.3333333333333333 [-]
	 SCS Opposite-Spin Scale   =       1.2000000000000000 [-]
	 SCS Same-Spin Energy      =      -0.1344302627635141 [Eh]
	 SCS Opposite-Spin Energy  =      -1.5719886420075000 [Eh]
	 SCS Correlation Energy    =      -1.7064189047710141 [Eh]
	 SCS Total Energy          =    -401.7837663042511736 [Eh]
	-----------------------------------------------------------

  Dipole Moment: [D]
     X:     3.0545      Y:     3.3901      Z:    -1.1067     Total:     4.6955

*** Psi4 exiting successfully. Buy a developer a beer!
