                               Psi4 1.3.2 release

  ==> Input File <==

--------------------------------------------------------------------------
#psi4
#
memory 32 gb

molecule  {
0 1
  O       -2.5125463    -0.5223850     0.0303146
  O       -0.0903380    -1.4616610     0.1717700
  N        0.9259230     0.4056680    -0.6455280
  C       -1.5147550     0.4028960    -0.3432490
  C        2.2711600    -0.1378510    -0.5222970
  C       -0.1644972    -0.3087476    -0.2432646
  C       -1.5844930     1.6236140     0.5658530
  C        2.8531060     0.0659690     0.8699860
  H       -1.6669500     0.7105100    -1.3901450
  H        2.2044940    -1.2028750    -0.7525030
  H        2.8934660     0.3357800    -1.2867330
  H        0.8101310     1.3771570    -0.9023240
  H       -1.3564630     1.3269670     1.5921410
  H       -2.5982940     2.0269070     0.5395510
  H       -0.8919110     2.4138320     0.2596650
  H        2.9042670     1.1289430     1.1200310
  H        2.2261210    -0.4398610     1.6074960
  H        3.8631580    -0.3501450     0.9292180
  H       -2.0326010    -1.3422410     0.2291570
units angstrom
no_reorient  #important for SAPT in psi4, default
symmetry c1  #important for SAPT in psi4, default
}

set PROPERTIES_ORIGIN ["COM"]
properties('MP2/aug-cc-pvtz', properties = ['dipole'])
--------------------------------------------------------------------------

    Molecular point group: c1
  Charge       = 0
  Multiplicity = 1
  Basis Set: AUG-CC-PVTZ
    Blend: AUG-CC-PVTZ
  Basis Set: (AUG-CC-PVTZ AUX)
    Blend: AUG-CC-PVTZ-JKFIT

    Orbital Energies [Eh]
    ---------------------

    Doubly Occupied:

       1A    -20.547703     2A    -20.535981     3A    -15.595839
       4A    -11.359090     5A    -11.298460     6A    -11.272282
       7A    -11.231754     8A    -11.223423     9A     -1.404658
      10A     -1.350118    11A     -1.242528    12A     -1.052292
      13A     -1.011878    14A     -0.902293    15A     -0.848672
      16A     -0.791714    17A     -0.746015    18A     -0.678270
      19A     -0.648660    20A     -0.644748    21A     -0.610683
      22A     -0.599455    23A     -0.576881    24A     -0.563559
      25A     -0.543655    26A     -0.535077    27A     -0.522575
      28A     -0.516652    29A     -0.502135    30A     -0.447078
      31A     -0.436869    32A     -0.402283

  @DF-RHF Final Energy:  -400.08892379803717

   => Energetics <=

    Nuclear Repulsion Energy =            400.6107370481977341
    One-Electron Energy =               -1340.1127625562021422
    Two-Electron Energy =                 539.4131017099672363
    Total Energy =                       -400.0889237980371718
  Basis Set: (AUG-CC-PVTZ AUX)
    Blend: AUG-CC-PVTZ-RI
    Molecular point group: c1

    Geometry (in Angstrom), charge = 0, multiplicity = 1:

       Center              X                  Y                   Z               Mass
    ------------   -----------------  -----------------  -----------------  -----------------
         O           -2.513095118411    -0.520064549866     0.029647798917    15.994914619570
         O           -0.090886818411    -1.459340549866     0.171103198917    15.994914619570
         N            0.925374181589     0.407988450134    -0.646194801083    14.003074004430
         C           -1.515303818411     0.405216450134    -0.343915801083    12.000000000000
         C            2.270611181589    -0.135530549866    -0.522963801083    12.000000000000
         C           -0.165046018411    -0.306427149866    -0.243931401083    12.000000000000
         C           -1.585041818411     1.625934450134     0.565186198917    12.000000000000
         C            2.852557181589     0.068289450134     0.869319198917    12.000000000000
         H           -1.667498818411     0.712830450134    -1.390811801083     1.007825032230
         H            2.203945181589    -1.200554549866    -0.753169801083     1.007825032230
         H            2.892917181589     0.338100450134    -1.287399801083     1.007825032230
         H            0.809582181589     1.379477450134    -0.902990801083     1.007825032230
         H           -1.357011818411     1.329287450134     1.591474198917     1.007825032230
         H           -2.598842818411     2.029227450134     0.538884198917     1.007825032230
         H           -0.892459818411     2.416152450134     0.258998198917     1.007825032230
         H            2.903718181589     1.131263450134     1.119364198917     1.007825032230
         H            2.225572181589    -0.437540549866     1.606829198917     1.007825032230
         H            3.862609181589    -0.347824549866     0.928551198917     1.007825032230
         H           -2.033149818411    -1.339920549866     0.228490198917     1.007825032230

  Basis Set: AUG-CC-PVTZ
    Blend: AUG-CC-PVTZ
  Basis Set: (AUG-CC-PVTZ AUX)
    Blend: AUG-CC-PVTZ-JKFIT
	 Reference Energy          =    -400.0889237980371718 [Eh]
	 Singles Energy            =      -0.0000000000000000 [Eh]
	 Same-Spin Energy          =      -0.4017152337303291 [Eh]
	 Opposite-Spin Energy      =      -1.3068484918069052 [Eh]
	 Correlation Energy        =      -1.7085637255372343 [Eh]
	 Total Energy              =    -401.7974875235744321 [Eh]

	 ================> DF-SCS-MP2 Energies <==================
	-----------------------------------------------------------
	 SCS Same-Spin Scale       =       0.3333333333333333 [-]
	 SCS Opposite-Spin Scale   =       1.2000000000000000 [-]
	 SCS Same-Spin Energy      =      -0.1339050779101097 [Eh]
	 SCS Opposite-Spin Energy  =      -1.5682181901682861 [Eh]
	 SCS Correlation Energy    =      -1.7021232680783958 [Eh]
	 SCS Total Energy          =    -401.7910470661155955 [Eh]
	-----------------------------------------------------------

  Dipole Moment: [D]
     X:     2.9978      Y:     3.1195      Z:    -1.0167     Total:     4.4443

*** Psi4 exiting successfully. Buy a developer a beer!
