                               Psi4 1.4a3.dev225

  ==> Input File <==

--------------------------------------------------------------------------
#psi4
#
memory 32 gb

molecule  {
0 1
  O       -1.5707600    -1.5123310    -0.2332890
  O        0.1382410     1.6075510    -0.3059650
  N        0.6999210    -0.4896500     0.4239600
  C       -1.5456480    -0.0933390    -0.4361750
  C        2.0783650    -0.1398720     0.7271540
  C       -0.1354949     0.4677820    -0.1200004
  C       -2.5680410     0.6261290     0.4306590
  C        2.9727550    -0.1683320    -0.5071050
  H       -1.7217520     0.1422920    -1.4952760
  H        2.0695770     0.8628690     1.1612900
  H        2.4371510    -0.8367210     1.4904630
  H        0.3848370    -1.4513440     0.4597870
  H       -2.3944150     0.3774590     1.4809910
  H       -3.5869010     0.3276930     0.1608950
  H       -2.4702460     1.7050790     0.2962630
  H        2.9788310    -1.1637080    -0.9596270
  H        2.6039680     0.5505970    -1.2414500
  H        4.0012360     0.0983730    -0.2444710
  H       -2.4840080    -1.8129070    -0.3767550
units angstrom
no_reorient  #important for SAPT in psi4, default
symmetry c1  #important for SAPT in psi4, default
}

set PROPERTIES_ORIGIN ["COM"]
properties('MP2/aug-cc-pvtz', properties = ['dipole'])
--------------------------------------------------------------------------

    Molecular point group: c1
  Charge       = 0
  Multiplicity = 1
  Basis Set: AUG-CC-PVTZ
    Blend: AUG-CC-PVTZ
  Basis Set: (AUG-CC-PVTZ AUX)
    Blend: AUG-CC-PVTZ-JKFIT

    Orbital Energies [Eh]
    ---------------------

    Doubly Occupied:

       1A    -20.580126     2A    -20.521302     3A    -15.570258
       4A    -11.343425     5A    -11.299565     6A    -11.256168
       7A    -11.228460     8A    -11.210314     9A     -1.403499
      10A     -1.376489    11A     -1.218455    12A     -1.041687
      13A     -1.005114    14A     -0.896629    15A     -0.838050
      16A     -0.772374    17A     -0.713237    18A     -0.699533
      19A     -0.640908    20A     -0.636799    21A     -0.613923
      22A     -0.593114    23A     -0.584733    24A     -0.557426
      25A     -0.541149    26A     -0.527911    27A     -0.522866
      28A     -0.514406    29A     -0.489953    30A     -0.461108
      31A     -0.414430    32A     -0.383857

  @DF-RHF Final Energy:  -400.08708869408071

   => Energetics <=

    Nuclear Repulsion Energy =            399.9823430757259075
    One-Electron Energy =               -1339.2243306401339851
    Two-Electron Energy =                 539.1548988703273153
    Total Energy =                       -400.0870886940807623
  Basis Set: (AUG-CC-PVTZ AUX)
    Blend: AUG-CC-PVTZ-RI
    Molecular point group: c1

    Geometry (in Angstrom), charge = 0, multiplicity = 1:

       Center              X                  Y                   Z               Mass
    ------------   -----------------  -----------------  -----------------  -----------------
         O           -1.556613700882    -1.527407455892    -0.226316369569    15.994914619570
         O            0.152387299118     1.592474544108    -0.298992369569    15.994914619570
         N            0.714067299118    -0.504726455892     0.430932630431    14.003074004430
         C           -1.531501700882    -0.108415455892    -0.429202369569    12.000000000000
         C            2.092511299118    -0.154948455892     0.734126630431    12.000000000000
         C           -0.121348600882     0.452705544108    -0.113027769569    12.000000000000
         C           -2.553894700882     0.611052544108     0.437631630431    12.000000000000
         C            2.986901299118    -0.183408455892    -0.500132369569    12.000000000000
         H           -1.707605700882     0.127215544108    -1.488303369569     1.007825032230
         H            2.083723299118     0.847792544108     1.168262630431     1.007825032230
         H            2.451297299118    -0.851797455892     1.497435630431     1.007825032230
         H            0.398983299118    -1.466420455892     0.466759630431     1.007825032230
         H           -2.380268700882     0.362382544108     1.487963630431     1.007825032230
         H           -3.572754700882     0.312616544108     0.167867630431     1.007825032230
         H           -2.456099700882     1.690002544108     0.303235630431     1.007825032230
         H            2.992977299118    -1.178784455892    -0.952654369569     1.007825032230
         H            2.618114299118     0.535520544108    -1.234477369569     1.007825032230
         H            4.015382299118     0.083296544108    -0.237498369569     1.007825032230
         H           -2.469861700882    -1.827983455892    -0.369782369569     1.007825032230

  Basis Set: AUG-CC-PVTZ
    Blend: AUG-CC-PVTZ
  Basis Set: (AUG-CC-PVTZ AUX)
    Blend: AUG-CC-PVTZ-JKFIT
	 Reference Energy          =    -400.0870886940807054 [Eh]
	 Singles Energy            =      -0.0000000000000000 [Eh]
	 Same-Spin Energy          =      -0.4006720414729808 [Eh]
	 Opposite-Spin Energy      =      -1.3056605350038550 [Eh]
	 Correlation Energy        =      -1.7063325764768358 [Eh]
	 Total Energy              =    -401.7934212705575305 [Eh]

	 ================> DF-SCS-MP2 Energies <==================
	-----------------------------------------------------------
	 SCS Same-Spin Scale       =       0.3333333333333333 [-]
	 SCS Opposite-Spin Scale   =       1.2000000000000000 [-]
	 SCS Same-Spin Energy      =      -0.1335573471576603 [Eh]
	 SCS Opposite-Spin Energy  =      -1.5667926420046261 [Eh]
	 SCS Correlation Energy    =      -1.7003499891622864 [Eh]
	 SCS Total Energy          =    -401.7874386832430105 [Eh]
	-----------------------------------------------------------

  Dipole Moment: [D]
     X:    -1.2085      Y:    -2.4261      Z:     0.3816     Total:     2.7371

*** Psi4 exiting successfully. Buy a developer a beer!
