                               Psi4 1.3.2 release

  ==> Input File <==

--------------------------------------------------------------------------
#psi4
#
memory 32 gb

molecule  {
0 1
  O       -2.5211540    -0.5137840     0.0284240
  O       -0.0903380    -1.4616610     0.1717700
  N        0.9259230     0.4056680    -0.6455280
  C       -1.5147550     0.4028960    -0.3432490
  C        2.2897747    -0.0922239    -0.5347417
  C       -0.1583790    -0.2975740    -0.2472510
  C       -1.5844930     1.6236140     0.5658530
  C        2.8531060     0.0659690     0.8699860
  H       -1.6669500     0.7105100    -1.3901450
  H        2.2044940    -1.2028750    -0.7525030
  H        2.8934660     0.3357800    -1.2867330
  H        0.8452663     1.3803316    -0.9037300
  H       -1.3564630     1.3269670     1.5921410
  H       -2.5982940     2.0269070     0.5395510
  H       -0.8919110     2.4138320     0.2596650
  H        2.9042670     1.1289430     1.1200310
  H        2.2261210    -0.4398610     1.6074960
  H        3.8631580    -0.3501450     0.9292180
  H       -2.0326010    -1.3422410     0.2291570
units angstrom
no_reorient  #important for SAPT in psi4, default
symmetry c1  #important for SAPT in psi4, default
}

set PROPERTIES_ORIGIN ["COM"]
properties('MP2/aug-cc-pvtz', properties = ['dipole'])
--------------------------------------------------------------------------

    Molecular point group: c1
  Charge       = 0
  Multiplicity = 1
  Basis Set: AUG-CC-PVTZ
    Blend: AUG-CC-PVTZ
  Basis Set: (AUG-CC-PVTZ AUX)
    Blend: AUG-CC-PVTZ-JKFIT

    Orbital Energies [Eh]
    ---------------------

    Doubly Occupied:

       1A    -20.548542     2A    -20.533938     3A    -15.598870
       4A    -11.360754     5A    -11.298351     6A    -11.273350
       7A    -11.231077     8A    -11.224588     9A     -1.398415
      10A     -1.346717    11A     -1.245928    12A     -1.052938
      13A     -1.012829    14A     -0.904202    15A     -0.849879
      16A     -0.793961    17A     -0.745228    18A     -0.676584
      19A     -0.652469    20A     -0.641728    21A     -0.611154
      22A     -0.596211    23A     -0.576076    24A     -0.563030
      25A     -0.543617    26A     -0.535107    27A     -0.526831
      28A     -0.514306    29A     -0.494658    30A     -0.446009
      31A     -0.436702    32A     -0.403277

  @DF-RHF Final Energy:  -400.08404236921353

   => Energetics <=

    Nuclear Repulsion Energy =            400.1732033743629700
    One-Electron Energy =               -1339.2398403353263348
    Two-Electron Energy =                 538.9825945917498302
    Total Energy =                       -400.0840423692135346
  Basis Set: (AUG-CC-PVTZ AUX)
    Blend: AUG-CC-PVTZ-RI
    Molecular point group: c1

    Geometry (in Angstrom), charge = 0, multiplicity = 1:

       Center              X                  Y                   Z               Mass
    ------------   -----------------  -----------------  -----------------  -----------------
         O           -2.523364308890    -0.518487698110     0.029711693142    15.994914619570
         O           -0.092548308890    -1.466364698110     0.173057693142    15.994914619570
         N            0.923712691110     0.400964301890    -0.644240306858    14.003074004430
         C           -1.516965308890     0.398192301890    -0.341961306858    12.000000000000
         C            2.287564391110    -0.096927598110    -0.533454006858    12.000000000000
         C           -0.160589308890    -0.302277698110    -0.245963306858    12.000000000000
         C           -1.586703308890     1.618910301890     0.567140693142    12.000000000000
         C            2.850895691110     0.061265301890     0.871273693142    12.000000000000
         H           -1.669160308890     0.705806301890    -1.388857306858     1.007825032230
         H            2.202283691110    -1.207578698110    -0.751215306858     1.007825032230
         H            2.891255691110     0.331076301890    -1.285445306858     1.007825032230
         H            0.843055991110     1.375627901890    -0.902442306858     1.007825032230
         H           -1.358673308890     1.322263301890     1.593428693142     1.007825032230
         H           -2.600504308890     2.022203301890     0.540838693142     1.007825032230
         H           -0.894121308890     2.409128301890     0.260952693142     1.007825032230
         H            2.902056691110     1.124239301890     1.121318693142     1.007825032230
         H            2.223910691110    -0.444564698110     1.608783693142     1.007825032230
         H            3.860947691110    -0.354848698110     0.930505693142     1.007825032230
         H           -2.034811308890    -1.346944698110     0.230444693142     1.007825032230

  Basis Set: AUG-CC-PVTZ
    Blend: AUG-CC-PVTZ
  Basis Set: (AUG-CC-PVTZ AUX)
    Blend: AUG-CC-PVTZ-JKFIT
	 Reference Energy          =    -400.0840423692135346 [Eh]
	 Singles Energy            =      -0.0000000000000000 [Eh]
	 Same-Spin Energy          =      -0.4022516314131311 [Eh]
	 Opposite-Spin Energy      =      -1.3079623643850637 [Eh]
	 Correlation Energy        =      -1.7102139957981948 [Eh]
	 Total Energy              =    -401.7942563650117336 [Eh]

	 ================> DF-SCS-MP2 Energies <==================
	-----------------------------------------------------------
	 SCS Same-Spin Scale       =       0.3333333333333333 [-]
	 SCS Opposite-Spin Scale   =       1.2000000000000000 [-]
	 SCS Same-Spin Energy      =      -0.1340838771377104 [Eh]
	 SCS Opposite-Spin Energy  =      -1.5695548372620765 [Eh]
	 SCS Correlation Energy    =      -1.7036387143997869 [Eh]
	 SCS Total Energy          =    -401.7876810836133359 [Eh]
	-----------------------------------------------------------

  Dipole Moment: [D]
     X:     3.1227      Y:     3.2035      Z:    -1.0539     Total:     4.5961

*** Psi4 exiting successfully. Buy a developer a beer!
