                               Psi4 1.3.2 release

  ==> Input File <==

--------------------------------------------------------------------------
#psi4
#
memory 32 gb

molecule  {
0 1
  O       -2.5211540    -0.5137840     0.0284240
  O       -0.1332434    -1.4614072     0.1772101
  N        0.8976331     0.4421716    -0.6552944
  C       -1.5147550     0.4028960    -0.3432490
  C        2.2711600    -0.1378510    -0.5222970
  C       -0.1583790    -0.2975740    -0.2472510
  C       -1.5844930     1.6236140     0.5658530
  C        2.8531060     0.0659690     0.8699860
  H       -1.6669500     0.7105100    -1.3901450
  H        2.2044940    -1.2028750    -0.7525030
  H        2.8934660     0.3357800    -1.2867330
  H        0.8101310     1.3771570    -0.9023240
  H       -1.3564630     1.3269670     1.5921410
  H       -2.5982940     2.0269070     0.5395510
  H       -0.8919110     2.4138320     0.2596650
  H        2.9042670     1.1289430     1.1200310
  H        2.2261210    -0.4398610     1.6074960
  H        3.8631580    -0.3501450     0.9292180
  H       -2.0326010    -1.3422410     0.2291570
units angstrom
no_reorient  #important for SAPT in psi4, default
symmetry c1  #important for SAPT in psi4, default
}

set PROPERTIES_ORIGIN ["COM"]
properties('MP2/aug-cc-pvtz', properties = ['dipole'])
--------------------------------------------------------------------------

    Molecular point group: c1
  Charge       = 0
  Multiplicity = 1
  Basis Set: AUG-CC-PVTZ
    Blend: AUG-CC-PVTZ
  Basis Set: (AUG-CC-PVTZ AUX)
    Blend: AUG-CC-PVTZ-JKFIT

    Orbital Energies [Eh]
    ---------------------

    Doubly Occupied:

       1A    -20.544014     2A    -20.536210     3A    -15.598672
       4A    -11.360286     5A    -11.293223     6A    -11.278945
       7A    -11.229133     8A    -11.227147     9A     -1.398452
      10A     -1.342340    11A     -1.247771    12A     -1.051173
      13A     -1.013602    14A     -0.900581    15A     -0.848842
      16A     -0.806848    17A     -0.741391    18A     -0.675365
      19A     -0.643871    20A     -0.642378    21A     -0.613248
      22A     -0.603038    23A     -0.572982    24A     -0.561123
      25A     -0.544087    26A     -0.533577    27A     -0.522327
      28A     -0.513233    29A     -0.504084    30A     -0.443362
      31A     -0.434106    32A     -0.408590

  @DF-RHF Final Energy:  -400.08467506795097

   => Energetics <=

    Nuclear Repulsion Energy =            400.1396838703282128
    One-Electron Energy =               -1339.1807158658732533
    Two-Electron Energy =                 538.9563569275941290
    Total Energy =                       -400.0846750679509114
  Basis Set: (AUG-CC-PVTZ AUX)
    Blend: AUG-CC-PVTZ-RI
    Molecular point group: c1

    Geometry (in Angstrom), charge = 0, multiplicity = 1:

       Center              X                  Y                   Z               Mass
    ------------   -----------------  -----------------  -----------------  -----------------
         O           -2.511908790368    -0.518184462463     0.028848961708    15.994914619570
         O           -0.123998190368    -1.465807662463     0.177635061708    15.994914619570
         N            0.906878309632     0.437771137537    -0.654869438292    14.003074004430
         C           -1.505509790368     0.398495537537    -0.342824038292    12.000000000000
         C            2.280405209632    -0.142251462463    -0.521872038292    12.000000000000
         C           -0.149133790368    -0.301974462463    -0.246826038292    12.000000000000
         C           -1.575247790368     1.619213537537     0.566277961708    12.000000000000
         C            2.862351209632     0.061568537537     0.870410961708    12.000000000000
         H           -1.657704790368     0.706109537537    -1.389720038292     1.007825032230
         H            2.213739209632    -1.207275462463    -0.752078038292     1.007825032230
         H            2.902711209632     0.331379537537    -1.286308038292     1.007825032230
         H            0.819376209632     1.372756537537    -0.901899038292     1.007825032230
         H           -1.347217790368     1.322566537537     1.592565961708     1.007825032230
         H           -2.589048790368     2.022506537537     0.539975961708     1.007825032230
         H           -0.882665790368     2.409431537537     0.260089961708     1.007825032230
         H            2.913512209632     1.124542537537     1.120455961708     1.007825032230
         H            2.235366209632    -0.444261462463     1.607920961708     1.007825032230
         H            3.872403209632    -0.354545462463     0.929642961708     1.007825032230
         H           -2.023355790368    -1.346641462463     0.229581961708     1.007825032230

  Basis Set: AUG-CC-PVTZ
    Blend: AUG-CC-PVTZ
  Basis Set: (AUG-CC-PVTZ AUX)
    Blend: AUG-CC-PVTZ-JKFIT
	 Reference Energy          =    -400.0846750679509682 [Eh]
	 Singles Energy            =      -0.0000000000000000 [Eh]
	 Same-Spin Energy          =      -0.4018251832500892 [Eh]
	 Opposite-Spin Energy      =      -1.3074259907372943 [Eh]
	 Correlation Energy        =      -1.7092511739873835 [Eh]
	 Total Energy              =    -401.7939262419383795 [Eh]

	 ================> DF-SCS-MP2 Energies <==================
	-----------------------------------------------------------
	 SCS Same-Spin Scale       =       0.3333333333333333 [-]
	 SCS Opposite-Spin Scale   =       1.2000000000000000 [-]
	 SCS Same-Spin Energy      =      -0.1339417277500297 [Eh]
	 SCS Opposite-Spin Energy  =      -1.5689111888847531 [Eh]
	 SCS Correlation Energy    =      -1.7028529166347828 [Eh]
	 SCS Total Energy          =    -401.7875279845857790 [Eh]
	-----------------------------------------------------------

  Dipole Moment: [D]
     X:     3.3597      Y:     3.1011      Z:    -1.0314     Total:     4.6870

*** Psi4 exiting successfully. Buy a developer a beer!
