                               Psi4 1.3.2 release

  ==> Input File <==

--------------------------------------------------------------------------
#psi4
#
memory 32 gb

molecule  {
0 1
  O       -2.5711684    -0.4607356     0.0164914
  O       -0.0903380    -1.4616610     0.1717700
  N        0.9259230     0.4056680    -0.6455280
  C       -1.5147550     0.4028960    -0.3432490
  C        2.2711600    -0.1378510    -0.5222970
  C       -0.1238550    -0.2294425    -0.2713125
  C       -1.5844930     1.6236140     0.5658530
  C        2.8531060     0.0659690     0.8699860
  H       -1.6669500     0.7105100    -1.3901450
  H        2.2044940    -1.2028750    -0.7525030
  H        2.8934660     0.3357800    -1.2867330
  H        0.8101310     1.3771570    -0.9023240
  H       -1.3564630     1.3269670     1.5921410
  H       -2.5982940     2.0269070     0.5395510
  H       -0.8919110     2.4138320     0.2596650
  H        2.9042670     1.1289430     1.1200310
  H        2.2261210    -0.4398610     1.6074960
  H        3.8631580    -0.3501450     0.9292180
  H       -2.0326010    -1.3422410     0.2291570
units angstrom
no_reorient  #important for SAPT in psi4, default
symmetry c1  #important for SAPT in psi4, default
}

set PROPERTIES_ORIGIN ["COM"]
properties('MP2/aug-cc-pvtz', properties = ['dipole'])
--------------------------------------------------------------------------

    Molecular point group: c1
  Charge       = 0
  Multiplicity = 1
  Basis Set: AUG-CC-PVTZ
    Blend: AUG-CC-PVTZ
  Basis Set: (AUG-CC-PVTZ AUX)
    Blend: AUG-CC-PVTZ-JKFIT

    Orbital Energies [Eh]
    ---------------------

    Doubly Occupied:

       1A    -20.552570     2A    -20.518193     3A    -15.614991
       4A    -11.358595     5A    -11.297669     6A    -11.282387
       7A    -11.229911     8A    -11.229444     9A     -1.372443
      10A     -1.332509    11A     -1.255048    12A     -1.059305
      13A     -1.017318    14A     -0.908786    15A     -0.853775
      16A     -0.810895    17A     -0.734074    18A     -0.679484
      19A     -0.648053    20A     -0.631714    21A     -0.616953
      22A     -0.594291    23A     -0.570921    24A     -0.559422
      25A     -0.548307    26A     -0.534913    27A     -0.517164
      28A     -0.506087    29A     -0.498652    30A     -0.439723
      31A     -0.427112    32A     -0.406383

  @DF-RHF Final Energy:  -400.06346360322607

   => Energetics <=

    Nuclear Repulsion Energy =            399.5683541224940996
    One-Electron Energy =               -1338.0494499313906545
    Two-Electron Energy =                 538.4176322056704294
    Total Energy =                       -400.0634636032260687
  Basis Set: (AUG-CC-PVTZ AUX)
    Blend: AUG-CC-PVTZ-RI
    Molecular point group: c1

    Geometry (in Angstrom), charge = 0, multiplicity = 1:

       Center              X                  Y                   Z               Mass
    ------------   -----------------  -----------------  -----------------  -----------------
         O           -2.567874093969    -0.474965841651     0.020587842587    15.994914619570
         O           -0.087043693969    -1.475891241651     0.175866442587    15.994914619570
         N            0.929217306031     0.391437758349    -0.641431557413    14.003074004430
         C           -1.511460693969     0.388665758349    -0.339152557413    12.000000000000
         C            2.274454306031    -0.152081241651    -0.518200557413    12.000000000000
         C           -0.120560693969    -0.243672741651    -0.267216057413    12.000000000000
         C           -1.581198693969     1.609383758349     0.569949442587    12.000000000000
         C            2.856400306031     0.051738758349     0.874082442587    12.000000000000
         H           -1.663655693969     0.696279758349    -1.386048557413     1.007825032230
         H            2.207788306031    -1.217105241651    -0.748406557413     1.007825032230
         H            2.896760306031     0.321549758349    -1.282636557413     1.007825032230
         H            0.813425306031     1.362926758349    -0.898227557413     1.007825032230
         H           -1.353168693969     1.312736758349     1.596237442587     1.007825032230
         H           -2.594999693969     2.012676758349     0.543647442587     1.007825032230
         H           -0.888616693969     2.399601758349     0.263761442587     1.007825032230
         H            2.907561306031     1.114712758349     1.124127442587     1.007825032230
         H            2.229415306031    -0.454091241651     1.611592442587     1.007825032230
         H            3.866452306031    -0.364375241651     0.933314442587     1.007825032230
         H           -2.029306693969    -1.356471241651     0.233253442587     1.007825032230

  Basis Set: AUG-CC-PVTZ
    Blend: AUG-CC-PVTZ
  Basis Set: (AUG-CC-PVTZ AUX)
    Blend: AUG-CC-PVTZ-JKFIT
	 Reference Energy          =    -400.0634636032260687 [Eh]
	 Singles Energy            =      -0.0000000000000000 [Eh]
	 Same-Spin Energy          =      -0.4046212649861246 [Eh]
	 Opposite-Spin Energy      =      -1.3126987595111310 [Eh]
	 Correlation Energy        =      -1.7173200244972557 [Eh]
	 Total Energy              =    -401.7807836277233378 [Eh]

	 ================> DF-SCS-MP2 Energies <==================
	-----------------------------------------------------------
	 SCS Same-Spin Scale       =       0.3333333333333333 [-]
	 SCS Opposite-Spin Scale   =       1.2000000000000000 [-]
	 SCS Same-Spin Energy      =      -0.1348737549953749 [Eh]
	 SCS Opposite-Spin Energy  =      -1.5752385114133571 [Eh]
	 SCS Correlation Energy    =      -1.7101122664087320 [Eh]
	 SCS Total Energy          =    -401.7735758696347830 [Eh]
	-----------------------------------------------------------

  Dipole Moment: [D]
     X:     3.6576      Y:     3.4979      Z:    -1.2027     Total:     5.2019

*** Psi4 exiting successfully. Buy a developer a beer!
