                               Psi4 1.3.2 release

  ==> Input File <==

--------------------------------------------------------------------------
#psi4
#
memory 32 gb

molecule  {
0 1
  O       -2.5211540    -0.5137840     0.0284240
  O       -0.0903380    -1.4616610     0.1717700
  N        0.9259230     0.4056680    -0.6455280
  C       -1.5147550     0.4028960    -0.3432490
  C        2.2401725    -0.2050329    -0.5039162
  C       -0.1583790    -0.2975740    -0.2472510
  C       -1.5844930     1.6236140     0.5658530
  C        2.8531060     0.0659690     0.8699860
  H       -1.6669500     0.7105100    -1.3901450
  H        2.2044940    -1.2028750    -0.7525030
  H        2.8934660     0.3357800    -1.2867330
  H        0.7577059     1.3701775    -0.8996290
  H       -1.3564630     1.3269670     1.5921410
  H       -2.5982940     2.0269070     0.5395510
  H       -0.8919110     2.4138320     0.2596650
  H        2.9042670     1.1289430     1.1200310
  H        2.2261210    -0.4398610     1.6074960
  H        3.8631580    -0.3501450     0.9292180
  H       -2.0326010    -1.3422410     0.2291570
units angstrom
no_reorient  #important for SAPT in psi4, default
symmetry c1  #important for SAPT in psi4, default
}

set PROPERTIES_ORIGIN ["COM"]
properties('MP2/aug-cc-pvtz', properties = ['dipole'])
--------------------------------------------------------------------------

    Molecular point group: c1
  Charge       = 0
  Multiplicity = 1
  Basis Set: AUG-CC-PVTZ
    Blend: AUG-CC-PVTZ
  Basis Set: (AUG-CC-PVTZ AUX)
    Blend: AUG-CC-PVTZ-JKFIT

    Orbital Energies [Eh]
    ---------------------

    Doubly Occupied:

       1A    -20.548627     2A    -20.533079     3A    -15.599030
       4A    -11.357182     5A    -11.298228     6A    -11.275879
       7A    -11.232070     8A    -11.224978     9A     -1.398854
      10A     -1.347011    11A     -1.246576    12A     -1.053275
      13A     -1.013054    14A     -0.902075    15A     -0.851554
      16A     -0.793853    17A     -0.743203    18A     -0.681423
      19A     -0.652048    20A     -0.640214    21A     -0.608863
      22A     -0.601919    23A     -0.575541    24A     -0.564148
      25A     -0.544919    26A     -0.537686    27A     -0.521166
      28A     -0.515721    29A     -0.499024    30A     -0.446305
      31A     -0.435536    32A     -0.402627

  @DF-RHF Final Energy:  -400.08008804659352

   => Energetics <=

    Nuclear Repulsion Energy =            400.8554953614944907
    One-Electron Energy =               -1340.5798324917313948
    Two-Electron Energy =                 539.6442490836434445
    Total Energy =                       -400.0800880465934597
  Basis Set: (AUG-CC-PVTZ AUX)
    Blend: AUG-CC-PVTZ-RI
    Molecular point group: c1

    Geometry (in Angstrom), charge = 0, multiplicity = 1:

       Center              X                  Y                   Z               Mass
    ------------   -----------------  -----------------  -----------------  -----------------
         O           -2.517526608808    -0.506837941916     0.026516934399    15.994914619570
         O           -0.086710608808    -1.454714941916     0.169862934399    15.994914619570
         N            0.929550391192     0.412614058084    -0.647435065601    14.003074004430
         C           -1.511127608808     0.409842058084    -0.345156065601    12.000000000000
         C            2.243799891192    -0.198086841916    -0.505823265601    12.000000000000
         C           -0.154751608808    -0.290627941916    -0.249158065601    12.000000000000
         C           -1.580865608808     1.630560058084     0.563945934399    12.000000000000
         C            2.856733391192     0.072915058084     0.868078934399    12.000000000000
         H           -1.663322608808     0.717456058084    -1.392052065601     1.007825032230
         H            2.208121391192    -1.195928941916    -0.754410065601     1.007825032230
         H            2.897093391192     0.342726058084    -1.288640065601     1.007825032230
         H            0.761333291192     1.377123558084    -0.901536065601     1.007825032230
         H           -1.352835608808     1.333913058084     1.590233934399     1.007825032230
         H           -2.594666608808     2.033853058084     0.537643934399     1.007825032230
         H           -0.888283608808     2.420778058084     0.257757934399     1.007825032230
         H            2.907894391192     1.135889058084     1.118123934399     1.007825032230
         H            2.229748391192    -0.432914941916     1.605588934399     1.007825032230
         H            3.866785391192    -0.343198941916     0.927310934399     1.007825032230
         H           -2.028973608808    -1.335294941916     0.227249934399     1.007825032230

  Basis Set: AUG-CC-PVTZ
    Blend: AUG-CC-PVTZ
  Basis Set: (AUG-CC-PVTZ AUX)
    Blend: AUG-CC-PVTZ-JKFIT
	 Reference Energy          =    -400.0800880465935165 [Eh]
	 Singles Energy            =      -0.0000000000000000 [Eh]
	 Same-Spin Energy          =      -0.4021929564138635 [Eh]
	 Opposite-Spin Energy      =      -1.3079296577796860 [Eh]
	 Correlation Energy        =      -1.7101226141935495 [Eh]
	 Total Energy              =    -401.7902106607870678 [Eh]

	 ================> DF-SCS-MP2 Energies <==================
	-----------------------------------------------------------
	 SCS Same-Spin Scale       =       0.3333333333333333 [-]
	 SCS Opposite-Spin Scale   =       1.2000000000000000 [-]
	 SCS Same-Spin Energy      =      -0.1340643188046212 [Eh]
	 SCS Opposite-Spin Energy  =      -1.5695155893356232 [Eh]
	 SCS Correlation Energy    =      -1.7035799081402443 [Eh]
	 SCS Total Energy          =    -401.7836679547337440 [Eh]
	-----------------------------------------------------------

  Dipole Moment: [D]
     X:     3.0347      Y:     3.1347      Z:    -1.0147     Total:     4.4794

*** Psi4 exiting successfully. Buy a developer a beer!
