                               Psi4 1.3.2 release

  ==> Input File <==

--------------------------------------------------------------------------
#psi4
#
memory 32 gb

molecule  {
0 1
  O       -2.5211540    -0.5137840     0.0284240
  O       -0.0903380    -1.4616610     0.1717700
  N        0.9259230     0.4056680    -0.6455280
  C       -1.5147550     0.4028960    -0.3432490
  C        2.2758721    -0.1271846    -0.5273458
  C       -0.1653312    -0.2886309    -0.2505623
  C       -1.5844930     1.6236140     0.5658530
  C        2.8531060     0.0659690     0.8699860
  H       -1.6669500     0.7105100    -1.3901450
  H        2.2044940    -1.2028750    -0.7525030
  H        2.8934660     0.3357800    -1.2867330
  H        0.8101310     1.3771570    -0.9023240
  H       -1.3564630     1.3269670     1.5921410
  H       -2.5982940     2.0269070     0.5395510
  H       -0.8919110     2.4138320     0.2596650
  H        2.9042670     1.1289430     1.1200310
  H        2.2261210    -0.4398610     1.6074960
  H        3.8631580    -0.3501450     0.9292180
  H       -2.0326010    -1.3422410     0.2291570
units angstrom
no_reorient  #important for SAPT in psi4, default
symmetry c1  #important for SAPT in psi4, default
}

set PROPERTIES_ORIGIN ["COM"]
properties('MP2/aug-cc-pvtz', properties = ['dipole'])
--------------------------------------------------------------------------

    Molecular point group: c1
  Charge       = 0
  Multiplicity = 1
  Basis Set: AUG-CC-PVTZ
    Blend: AUG-CC-PVTZ
  Basis Set: (AUG-CC-PVTZ AUX)
    Blend: AUG-CC-PVTZ-JKFIT

    Orbital Energies [Eh]
    ---------------------

    Doubly Occupied:

       1A    -20.548898     2A    -20.532026     3A    -15.599515
       4A    -11.360149     5A    -11.298837     6A    -11.274011
       7A    -11.232089     8A    -11.224425     9A     -1.394455
      10A     -1.345461    11A     -1.244952    12A     -1.054506
      13A     -1.013359    14A     -0.904807    15A     -0.850897
      16A     -0.793032    17A     -0.745113    18A     -0.677195
      19A     -0.650636    20A     -0.640483    21A     -0.611134
      22A     -0.597359    23A     -0.575677    24A     -0.563738
      25A     -0.544027    26A     -0.535102    27A     -0.520659
      28A     -0.514159    29A     -0.500962    30A     -0.446437
      31A     -0.437153    32A     -0.402725

  @DF-RHF Final Energy:  -400.08643214568917

   => Energetics <=

    Nuclear Repulsion Energy =            400.3239379933048099
    One-Electron Energy =               -1339.5527886714178294
    Two-Electron Energy =                 539.1424185324239033
    Total Energy =                       -400.0864321456891730
  Basis Set: (AUG-CC-PVTZ AUX)
    Blend: AUG-CC-PVTZ-RI
    Molecular point group: c1

    Geometry (in Angstrom), charge = 0, multiplicity = 1:

       Center              X                  Y                   Z               Mass
    ------------   -----------------  -----------------  -----------------  -----------------
         O           -2.520924350511    -0.515793699195     0.029280939453    15.994914619570
         O           -0.090108350511    -1.463670699195     0.172626939453    15.994914619570
         N            0.926152649489     0.403658300805    -0.644671060547    14.003074004430
         C           -1.514525350511     0.400886300805    -0.342392060547    12.000000000000
         C            2.276101749489    -0.129194299195    -0.526488860547    12.000000000000
         C           -0.165101550511    -0.290640599195    -0.249705360547    12.000000000000
         C           -1.584263350511     1.621604300805     0.566709939453    12.000000000000
         C            2.853335649489     0.063959300805     0.870842939453    12.000000000000
         H           -1.666720350511     0.708500300805    -1.389288060547     1.007825032230
         H            2.204723649489    -1.204884699195    -0.751646060547     1.007825032230
         H            2.893695649489     0.333770300805    -1.285876060547     1.007825032230
         H            0.810360649489     1.375147300805    -0.901467060547     1.007825032230
         H           -1.356233350511     1.324957300805     1.592997939453     1.007825032230
         H           -2.598064350511     2.024897300805     0.540407939453     1.007825032230
         H           -0.891681350511     2.411822300805     0.260521939453     1.007825032230
         H            2.904496649489     1.126933300805     1.120887939453     1.007825032230
         H            2.226350649489    -0.441870699195     1.608352939453     1.007825032230
         H            3.863387649489    -0.352154699195     0.930074939453     1.007825032230
         H           -2.032371350511    -1.344250699195     0.230013939453     1.007825032230

  Basis Set: AUG-CC-PVTZ
    Blend: AUG-CC-PVTZ
  Basis Set: (AUG-CC-PVTZ AUX)
    Blend: AUG-CC-PVTZ-JKFIT
	 Reference Energy          =    -400.0864321456891730 [Eh]
	 Singles Energy            =      -0.0000000000000000 [Eh]
	 Same-Spin Energy          =      -0.4023773640739678 [Eh]
	 Opposite-Spin Energy      =      -1.3081544973041606 [Eh]
	 Correlation Energy        =      -1.7105318613781284 [Eh]
	 Total Energy              =    -401.7969640070672881 [Eh]

	 ================> DF-SCS-MP2 Energies <==================
	-----------------------------------------------------------
	 SCS Same-Spin Scale       =       0.3333333333333333 [-]
	 SCS Opposite-Spin Scale   =       1.2000000000000000 [-]
	 SCS Same-Spin Energy      =      -0.1341257880246559 [Eh]
	 SCS Opposite-Spin Energy  =      -1.5697853967649926 [Eh]
	 SCS Correlation Energy    =      -1.7039111847896486 [Eh]
	 SCS Total Energy          =    -401.7903433304788336 [Eh]
	-----------------------------------------------------------

  Dipole Moment: [D]
     X:     3.0853      Y:     3.2292      Z:    -1.0609     Total:     4.5905

*** Psi4 exiting successfully. Buy a developer a beer!
