                               Psi4 1.3.2 release

  ==> Input File <==

--------------------------------------------------------------------------
#psi4
#
memory 32 gb

molecule  {
0 1
  O       -2.5211540    -0.5137840     0.0284240
  O       -0.0903380    -1.4616610     0.1717700
  N        0.9259230     0.4056680    -0.6455280
  C       -1.4648155     0.3496017    -0.3321256
  C        2.2711600    -0.1378510    -0.5222970
  C       -0.1583790    -0.2975740    -0.2472510
  C       -1.5844930     1.6236140     0.5658530
  C        2.8531060     0.0659690     0.8699860
  H       -1.6669500     0.7105100    -1.3901450
  H        2.2044940    -1.2028750    -0.7525030
  H        2.8934660     0.3357800    -1.2867330
  H        0.8101310     1.3771570    -0.9023240
  H       -1.3564630     1.3269670     1.5921410
  H       -2.5982940     2.0269070     0.5395510
  H       -0.8919110     2.4138320     0.2596650
  H        2.9042670     1.1289430     1.1200310
  H        2.2261210    -0.4398610     1.6074960
  H        3.8631580    -0.3501450     0.9292180
  H       -1.9889106    -1.3176837     0.2175827
units angstrom
no_reorient  #important for SAPT in psi4, default
symmetry c1  #important for SAPT in psi4, default
}

set PROPERTIES_ORIGIN ["COM"]
properties('MP2/aug-cc-pvtz', properties = ['dipole'])
--------------------------------------------------------------------------

    Molecular point group: c1
  Charge       = 0
  Multiplicity = 1
  Basis Set: AUG-CC-PVTZ
    Blend: AUG-CC-PVTZ
  Basis Set: (AUG-CC-PVTZ AUX)
    Blend: AUG-CC-PVTZ-JKFIT

    Orbital Energies [Eh]
    ---------------------

    Doubly Occupied:

       1A    -20.551128     2A    -20.535326     3A    -15.600017
       4A    -11.359701     5A    -11.298316     6A    -11.274970
       7A    -11.233930     8A    -11.225073     9A     -1.405204
      10A     -1.349927    11A     -1.248326    12A     -1.055200
      13A     -1.009111    14A     -0.911586    15A     -0.852283
      16A     -0.795063    17A     -0.748021    18A     -0.677310
      19A     -0.646417    20A     -0.644231    21A     -0.612506
      22A     -0.600471    23A     -0.569779    24A     -0.560113
      25A     -0.549406    26A     -0.533186    27A     -0.523922
      28A     -0.520586    29A     -0.504005    30A     -0.446620
      31A     -0.437074    32A     -0.404389

  @DF-RHF Final Energy:  -400.07993172350649

   => Energetics <=

    Nuclear Repulsion Energy =            401.4480824194012598
    One-Electron Energy =               -1341.6896374809973622
    Two-Electron Energy =                 540.1616233380896119
    Total Energy =                       -400.0799317235064336
  Basis Set: (AUG-CC-PVTZ AUX)
    Blend: AUG-CC-PVTZ-RI
    Molecular point group: c1

    Geometry (in Angstrom), charge = 0, multiplicity = 1:

       Center              X                  Y                   Z               Mass
    ------------   -----------------  -----------------  -----------------  -----------------
         O           -2.526648584586    -0.508532821550     0.027383612252    15.994914619570
         O           -0.095832584586    -1.456409821550     0.170729612252    15.994914619570
         N            0.920428415414     0.410919178450    -0.646568387748    14.003074004430
         C           -1.470310084586     0.354852878450    -0.333165987748    12.000000000000
         C            2.265665415414    -0.132599821550    -0.523337387748    12.000000000000
         C           -0.163873584586    -0.292322821550    -0.248291387748    12.000000000000
         C           -1.589987584586     1.628865178450     0.564812612252    12.000000000000
         C            2.847611415414     0.071220178450     0.868945612252    12.000000000000
         H           -1.672444584586     0.715761178450    -1.391185387748     1.007825032230
         H            2.198999415414    -1.197623821550    -0.753543387748     1.007825032230
         H            2.887971415414     0.341031178450    -1.287773387748     1.007825032230
         H            0.804636415414     1.382408178450    -0.903364387748     1.007825032230
         H           -1.361957584586     1.332218178450     1.591100612252     1.007825032230
         H           -2.603788584586     2.032158178450     0.538510612252     1.007825032230
         H           -0.897405584586     2.419083178450     0.258624612252     1.007825032230
         H            2.898772415414     1.134194178450     1.118990612252     1.007825032230
         H            2.220626415414    -0.434609821550     1.606455612252     1.007825032230
         H            3.857663415414    -0.344893821550     0.928177612252     1.007825032230
         H           -1.994405184586    -1.312432521550     0.216542312252     1.007825032230

  Basis Set: AUG-CC-PVTZ
    Blend: AUG-CC-PVTZ
  Basis Set: (AUG-CC-PVTZ AUX)
    Blend: AUG-CC-PVTZ-JKFIT
	 Reference Energy          =    -400.0799317235064905 [Eh]
	 Singles Energy            =      -0.0000000000000000 [Eh]
	 Same-Spin Energy          =      -0.4028263464404360 [Eh]
	 Opposite-Spin Energy      =      -1.3088315079040289 [Eh]
	 Correlation Energy        =      -1.7116578543444649 [Eh]
	 Total Energy              =    -401.7915895778509707 [Eh]

	 ================> DF-SCS-MP2 Energies <==================
	-----------------------------------------------------------
	 SCS Same-Spin Scale       =       0.3333333333333333 [-]
	 SCS Opposite-Spin Scale   =       1.2000000000000000 [-]
	 SCS Same-Spin Energy      =      -0.1342754488134787 [Eh]
	 SCS Opposite-Spin Energy  =      -1.5705978094848347 [Eh]
	 SCS Correlation Energy    =      -1.7048732582983135 [Eh]
	 SCS Total Energy          =    -401.7848049818048253 [Eh]
	-----------------------------------------------------------

  Dipole Moment: [D]
     X:     3.1471      Y:     3.1759      Z:    -1.0516     Total:     4.5931

*** Psi4 exiting successfully. Buy a developer a beer!
