                               Psi4 1.3.2 release

  ==> Input File <==

--------------------------------------------------------------------------
#psi4
#
memory 32 gb

molecule  {
0 1
  O       -2.5211540    -0.5137840     0.0284240
  O       -0.0903380    -1.4616610     0.1717700
  N        0.9259230     0.4056680    -0.6455280
  C       -1.4959033     0.3590035    -0.2793656
  C        2.2711600    -0.1378510    -0.5222970
  C       -0.1583790    -0.2975740    -0.2472510
  C       -1.5844930     1.6236140     0.5658530
  C        2.8531060     0.0659690     0.8699860
  H       -1.6669500     0.7105100    -1.3901450
  H        2.2044940    -1.2028750    -0.7525030
  H        2.8934660     0.3357800    -1.2867330
  H        0.8101310     1.3771570    -0.9023240
  H       -1.3497790     1.2732982     1.5735496
  H       -2.5982940     2.0269070     0.5395510
  H       -0.8919110     2.4138320     0.2596650
  H        2.9042670     1.1289430     1.1200310
  H        2.2261210    -0.4398610     1.6074960
  H        3.8631580    -0.3501450     0.9292180
  H       -2.0326010    -1.3422410     0.2291570
units angstrom
no_reorient  #important for SAPT in psi4, default
symmetry c1  #important for SAPT in psi4, default
}

set PROPERTIES_ORIGIN ["COM"]
properties('MP2/aug-cc-pvtz', properties = ['dipole'])
--------------------------------------------------------------------------

    Molecular point group: c1
  Charge       = 0
  Multiplicity = 1
  Basis Set: AUG-CC-PVTZ
    Blend: AUG-CC-PVTZ
  Basis Set: (AUG-CC-PVTZ AUX)
    Blend: AUG-CC-PVTZ-JKFIT

    Orbital Energies [Eh]
    ---------------------

    Doubly Occupied:

       1A    -20.554143     2A    -20.533090     3A    -15.598985
       4A    -11.358626     5A    -11.300340     6A    -11.274277
       7A    -11.231741     8A    -11.224589     9A     -1.405381
      10A     -1.358249    11A     -1.246287    12A     -1.054592
      13A     -1.013049    14A     -0.906347    15A     -0.849120
      16A     -0.793358    17A     -0.750448    18A     -0.677337
      19A     -0.646974    20A     -0.645391    21A     -0.612802
      22A     -0.600428    23A     -0.577508    24A     -0.563461
      25A     -0.548477    26A     -0.534155    27A     -0.523968
      28A     -0.518054    29A     -0.503675    30A     -0.443098
      31A     -0.430865    32A     -0.402433

  @DF-RHF Final Energy:  -400.07987466355058

   => Energetics <=

    Nuclear Repulsion Energy =            401.5208197332880786
    One-Electron Energy =               -1341.8388942113863322
    Two-Electron Energy =                 540.2381998145475563
    Total Energy =                       -400.0798746635506404
  Basis Set: (AUG-CC-PVTZ AUX)
    Blend: AUG-CC-PVTZ-RI
    Molecular point group: c1

    Geometry (in Angstrom), charge = 0, multiplicity = 1:

       Center              X                  Y                   Z               Mass
    ------------   -----------------  -----------------  -----------------  -----------------
         O           -2.523143689163    -0.508823081840     0.022036384266    15.994914619570
         O           -0.092327689163    -1.456700081840     0.165382384266    15.994914619570
         N            0.923933310837     0.410628918160    -0.651915615734    14.003074004430
         C           -1.497892989163     0.363964418160    -0.285753215734    12.000000000000
         C            2.269170310837    -0.132890081840    -0.528684615734    12.000000000000
         C           -0.160368689163    -0.292613081840    -0.253638615734    12.000000000000
         C           -1.586482689163     1.628574918160     0.559465384266    12.000000000000
         C            2.851116310837     0.070929918160     0.863598384266    12.000000000000
         H           -1.668939689163     0.715470918160    -1.396532615734     1.007825032230
         H            2.202504310837    -1.197914081840    -0.758890615734     1.007825032230
         H            2.891476310837     0.340740918160    -1.293120615734     1.007825032230
         H            0.808141310837     1.382117918160    -0.908711615734     1.007825032230
         H           -1.351768689163     1.278259118160     1.567161984266     1.007825032230
         H           -2.600283689163     2.031867918160     0.533163384266     1.007825032230
         H           -0.893900689163     2.418792918160     0.253277384266     1.007825032230
         H            2.902277310837     1.133903918160     1.113643384266     1.007825032230
         H            2.224131310837    -0.434900081840     1.601108384266     1.007825032230
         H            3.861168310837    -0.345184081840     0.922830384266     1.007825032230
         H           -2.034590689163    -1.337280081840     0.222769384266     1.007825032230

  Basis Set: AUG-CC-PVTZ
    Blend: AUG-CC-PVTZ
  Basis Set: (AUG-CC-PVTZ AUX)
    Blend: AUG-CC-PVTZ-JKFIT
	 Reference Energy          =    -400.0798746635505836 [Eh]
	 Singles Energy            =      -0.0000000000000000 [Eh]
	 Same-Spin Energy          =      -0.4026172364835888 [Eh]
	 Opposite-Spin Energy      =      -1.3080540116514907 [Eh]
	 Correlation Energy        =      -1.7106712481350796 [Eh]
	 Total Energy              =    -401.7905459116856832 [Eh]

	 ================> DF-SCS-MP2 Energies <==================
	-----------------------------------------------------------
	 SCS Same-Spin Scale       =       0.3333333333333333 [-]
	 SCS Opposite-Spin Scale   =       1.2000000000000000 [-]
	 SCS Same-Spin Energy      =      -0.1342057454945296 [Eh]
	 SCS Opposite-Spin Energy  =      -1.5696648139817888 [Eh]
	 SCS Correlation Energy    =      -1.7038705594763184 [Eh]
	 SCS Total Energy          =    -401.7837452230269264 [Eh]
	-----------------------------------------------------------

  Dipole Moment: [D]
     X:     3.0178      Y:     3.0867      Z:    -0.9412     Total:     4.4183

*** Psi4 exiting successfully. Buy a developer a beer!
