                               Psi4 1.4a3.dev225

  ==> Input File <==

--------------------------------------------------------------------------
#psi4
#
memory 32 gb

molecule  {
0 1
  O       -1.5707600    -1.5123310    -0.2332890
  O        0.1382410     1.6075510    -0.3059650
  N        0.6999210    -0.4896500     0.4239600
  C       -1.5456480    -0.0933390    -0.4361750
  C        2.0783650    -0.1398720     0.7271540
  C       -0.1470270     0.4197650    -0.1121660
  C       -2.5680410     0.6261290     0.4306590
  C        2.9727550    -0.1683320    -0.5071050
  H       -1.7185478     0.1380047    -1.4760055
  H        2.0695770     0.8628690     1.1612900
  H        2.4371510    -0.8367210     1.4904630
  H        0.3848370    -1.4513440     0.4597870
  H       -2.3944150     0.3774590     1.4809910
  H       -3.5869010     0.3276930     0.1608950
  H       -2.4702460     1.7050790     0.2962630
  H        2.9788310    -1.1637080    -0.9596270
  H        2.6039680     0.5505970    -1.2414500
  H        4.0012360     0.0983730    -0.2444710
  H       -2.4840080    -1.8129070    -0.3767550
units angstrom
no_reorient  #important for SAPT in psi4, default
symmetry c1  #important for SAPT in psi4, default
}

set PROPERTIES_ORIGIN ["COM"]
properties('MP2/aug-cc-pvtz', properties = ['dipole'])
--------------------------------------------------------------------------

    Molecular point group: c1
  Charge       = 0
  Multiplicity = 1
  Basis Set: AUG-CC-PVTZ
    Blend: AUG-CC-PVTZ
  Basis Set: (AUG-CC-PVTZ AUX)
    Blend: AUG-CC-PVTZ-JKFIT

    Orbital Energies [Eh]
    ---------------------

    Doubly Occupied:

       1A    -20.581269     2A    -20.510477     3A    -15.578145
       4A    -11.343624     5A    -11.299288     6A    -11.259814
       7A    -11.229291     8A    -11.211994     9A     -1.388462
      10A     -1.359827    11A     -1.225130    12A     -1.046075
      13A     -1.010005    14A     -0.902567    15A     -0.844098
      16A     -0.776106    17A     -0.719715    18A     -0.696964
      19A     -0.642876    20A     -0.633836    21A     -0.610042
      22A     -0.588505    23A     -0.582744    24A     -0.558782
      25A     -0.539555    26A     -0.525810    27A     -0.520194
      28A     -0.508744    29A     -0.490550    30A     -0.462299
      31A     -0.415517    32A     -0.384317

  @DF-RHF Final Energy:  -400.08809821377184

   => Energetics <=

    Nuclear Repulsion Energy =            400.0543793464620990
    One-Electron Energy =               -1339.3917083070236913
    Two-Electron Energy =                 539.2492307467897490
    Total Energy =                       -400.0880982137717865
  Basis Set: (AUG-CC-PVTZ AUX)
    Blend: AUG-CC-PVTZ-RI
    Molecular point group: c1

    Geometry (in Angstrom), charge = 0, multiplicity = 1:

       Center              X                  Y                   Z               Mass
    ------------   -----------------  -----------------  -----------------  -----------------
         O           -1.555459301274    -1.522449052128    -0.227285237710    15.994914619570
         O            0.153541698726     1.597432947872    -0.299961237710    15.994914619570
         N            0.715221698726    -0.499768052128     0.429963762290    14.003074004430
         C           -1.530347301274    -0.103457052128    -0.430171237710    12.000000000000
         C            2.093665698726    -0.149990052128     0.733157762290    12.000000000000
         C           -0.131726301274     0.409646947872    -0.106162237710    12.000000000000
         C           -2.552740301274     0.616010947872     0.436662762290    12.000000000000
         C            2.988055698726    -0.178450052128    -0.501101237710    12.000000000000
         H           -1.703247101274     0.127886647872    -1.470001737710     1.007825032230
         H            2.084877698726     0.852750947872     1.167293762290     1.007825032230
         H            2.452451698726    -0.846839052128     1.496466762290     1.007825032230
         H            0.400137698726    -1.461462052128     0.465790762290     1.007825032230
         H           -2.379114301274     0.367340947872     1.486994762290     1.007825032230
         H           -3.571600301274     0.317574947872     0.166898762290     1.007825032230
         H           -2.454945301274     1.694960947872     0.302266762290     1.007825032230
         H            2.994131698726    -1.173826052128    -0.953623237710     1.007825032230
         H            2.619268698726     0.540478947872    -1.235446237710     1.007825032230
         H            4.016536698726     0.088254947872    -0.238467237710     1.007825032230
         H           -2.468707301274    -1.823025052128    -0.370751237710     1.007825032230

  Basis Set: AUG-CC-PVTZ
    Blend: AUG-CC-PVTZ
  Basis Set: (AUG-CC-PVTZ AUX)
    Blend: AUG-CC-PVTZ-JKFIT
	 Reference Energy          =    -400.0880982137718433 [Eh]
	 Singles Energy            =      -0.0000000000000000 [Eh]
	 Same-Spin Energy          =      -0.4015570516864336 [Eh]
	 Opposite-Spin Energy      =      -1.3072855542451705 [Eh]
	 Correlation Energy        =      -1.7088426059316042 [Eh]
	 Total Energy              =    -401.7969408197034227 [Eh]

	 ================> DF-SCS-MP2 Energies <==================
	-----------------------------------------------------------
	 SCS Same-Spin Scale       =       0.3333333333333333 [-]
	 SCS Opposite-Spin Scale   =       1.2000000000000000 [-]
	 SCS Same-Spin Energy      =      -0.1338523505621445 [Eh]
	 SCS Opposite-Spin Energy  =      -1.5687426650942045 [Eh]
	 SCS Correlation Energy    =      -1.7025950156563490 [Eh]
	 SCS Total Energy          =    -401.7906932294282001 [Eh]
	-----------------------------------------------------------

  Dipole Moment: [D]
     X:    -1.1648      Y:    -2.7559      Z:     0.4676     Total:     3.0283

*** Psi4 exiting successfully. Buy a developer a beer!
