                               Psi4 1.3.2 release

  ==> Input File <==

--------------------------------------------------------------------------
#psi4
#
memory 32 gb

molecule  {
0 1
  O       -2.5211540    -0.5137840     0.0284240
  O       -0.0903380    -1.4616610     0.1717700
  N        0.9259230     0.4056680    -0.6455280
  C       -1.5147550     0.4028960    -0.3432490
  C        2.2711600    -0.1378510    -0.5222970
  C       -0.1583790    -0.2975740    -0.2472510
  C       -1.5844930     1.6236140     0.5658530
  C        2.8531060     0.0659690     0.8699860
  H       -1.6669500     0.7105100    -1.3901450
  H        2.2044940    -1.2028750    -0.7525030
  H        2.8934660     0.3357800    -1.2867330
  H        0.8101310     1.3771570    -0.9023240
  H       -1.3564630     1.3269670     1.5921410
  H       -2.5982940     2.0269070     0.5395510
  H       -0.8919110     2.4138320     0.2596650
  H        2.9042670     1.1289430     1.1200310
  H        2.2261210    -0.4398610     1.6074960
  H        3.8631580    -0.3501450     0.9292180
  H       -1.9331507    -1.5108826     0.2700184
units angstrom
no_reorient  #important for SAPT in psi4, default
symmetry c1  #important for SAPT in psi4, default
}

set PROPERTIES_ORIGIN ["COM"]
properties('MP2/aug-cc-pvtz', properties = ['dipole'])
--------------------------------------------------------------------------

    Molecular point group: c1
  Charge       = 0
  Multiplicity = 1
  Basis Set: AUG-CC-PVTZ
    Blend: AUG-CC-PVTZ
  Basis Set: (AUG-CC-PVTZ AUX)
    Blend: AUG-CC-PVTZ-JKFIT

    Orbital Energies [Eh]
    ---------------------

    Doubly Occupied:

       1A    -20.549012     2A    -20.539774     3A    -15.600705
       4A    -11.361029     5A    -11.293990     6A    -11.275021
       7A    -11.228966     8A    -11.225509     9A     -1.398206
      10A     -1.314496    11A     -1.248247    12A     -1.048779
      13A     -1.008829    14A     -0.902285    15A     -0.845921
      16A     -0.795499    17A     -0.725831    18A     -0.673973
      19A     -0.643932    20A     -0.637423    21A     -0.610790
      22A     -0.600854    23A     -0.568766    24A     -0.557948
      25A     -0.541738    26A     -0.531229    27A     -0.522660
      28A     -0.505126    29A     -0.487102    30A     -0.441798
      31A     -0.435337    32A     -0.405436

  @DF-RHF Final Energy:  -400.05436329408360

   => Energetics <=

    Nuclear Repulsion Energy =            399.6373510337420498
    One-Electron Energy =               -1338.3310052239244214
    Two-Electron Energy =                 538.6392908960987143
    Total Energy =                       -400.0543632940836005
  Basis Set: (AUG-CC-PVTZ AUX)
    Blend: AUG-CC-PVTZ-RI
    Molecular point group: c1

    Geometry (in Angstrom), charge = 0, multiplicity = 1:

       Center              X                  Y                   Z               Mass
    ------------   -----------------  -----------------  -----------------  -----------------
         O           -2.522010025355    -0.512332145030     0.028072333574    15.994914619570
         O           -0.091194025355    -1.460209145030     0.171418333574    15.994914619570
         N            0.925066974645     0.407119854970    -0.645879666426    14.003074004430
         C           -1.515611025355     0.404347854970    -0.343600666426    12.000000000000
         C            2.270303974645    -0.136399145030    -0.522648666426    12.000000000000
         C           -0.159235025355    -0.296122145030    -0.247602666426    12.000000000000
         C           -1.585349025355     1.625065854970     0.565501333574    12.000000000000
         C            2.852249974645     0.067420854970     0.869634333574    12.000000000000
         H           -1.667806025355     0.711961854970    -1.390496666426     1.007825032230
         H            2.203637974645    -1.201423145030    -0.752854666426     1.007825032230
         H            2.892609974645     0.337231854970    -1.287084666426     1.007825032230
         H            0.809274974645     1.378608854970    -0.902675666426     1.007825032230
         H           -1.357319025355     1.328418854970     1.591789333574     1.007825032230
         H           -2.599150025355     2.028358854970     0.539199333574     1.007825032230
         H           -0.892767025355     2.415283854970     0.259313333574     1.007825032230
         H            2.903410974645     1.130394854970     1.119679333574     1.007825032230
         H            2.225264974645    -0.438409145030     1.607144333574     1.007825032230
         H            3.862301974645    -0.348693145030     0.928866333574     1.007825032230
         H           -1.934006725355    -1.509430745030     0.269666733574     1.007825032230

  Basis Set: AUG-CC-PVTZ
    Blend: AUG-CC-PVTZ
  Basis Set: (AUG-CC-PVTZ AUX)
    Blend: AUG-CC-PVTZ-JKFIT
	 Reference Energy          =    -400.0543632940836005 [Eh]
	 Singles Energy            =      -0.0000000000000000 [Eh]
	 Same-Spin Energy          =      -0.4053283111916426 [Eh]
	 Opposite-Spin Energy      =      -1.3142952937876831 [Eh]
	 Correlation Energy        =      -1.7196236049793256 [Eh]
	 Total Energy              =    -401.7739868990629475 [Eh]

	 ================> DF-SCS-MP2 Energies <==================
	-----------------------------------------------------------
	 SCS Same-Spin Scale       =       0.3333333333333333 [-]
	 SCS Opposite-Spin Scale   =       1.2000000000000000 [-]
	 SCS Same-Spin Energy      =      -0.1351094370638809 [Eh]
	 SCS Opposite-Spin Energy  =      -1.5771543525452196 [Eh]
	 SCS Correlation Energy    =      -1.7122637896091004 [Eh]
	 SCS Total Energy          =    -401.7666270836926969 [Eh]
	-----------------------------------------------------------

  Dipole Moment: [D]
     X:     3.4421      Y:     2.9639      Z:    -1.0087     Total:     4.6530

*** Psi4 exiting successfully. Buy a developer a beer!
