                               Psi4 1.4a3.dev225

  ==> Input File <==

--------------------------------------------------------------------------
#psi4
#
memory 32 gb

molecule  {
0 1
  O       -1.5707600    -1.5123310    -0.2332890
  O        0.1382410     1.6075510    -0.3059650
  N        0.6999210    -0.4896500     0.4239600
  C       -1.5456480    -0.0933390    -0.4361750
  C        2.0783650    -0.1398720     0.7271540
  C       -0.1470270     0.4197650    -0.1121660
  C       -2.5814821     0.6355877     0.4420550
  C        2.9727550    -0.1683320    -0.5071050
  H       -1.7217520     0.1422920    -1.4952760
  H        2.0695770     0.8628690     1.1612900
  H        2.4371510    -0.8367210     1.4904630
  H        0.3848370    -1.4513440     0.4597870
  H       -2.3944150     0.3774590     1.4809910
  H       -3.5869010     0.3276930     0.1608950
  H       -2.4702460     1.7050790     0.2962630
  H        2.9788310    -1.1637080    -0.9596270
  H        2.6039680     0.5505970    -1.2414500
  H        4.0012360     0.0983730    -0.2444710
  H       -2.4840080    -1.8129070    -0.3767550
units angstrom
no_reorient  #important for SAPT in psi4, default
symmetry c1  #important for SAPT in psi4, default
}

set PROPERTIES_ORIGIN ["COM"]
properties('MP2/aug-cc-pvtz', properties = ['dipole'])
--------------------------------------------------------------------------

    Molecular point group: c1
  Charge       = 0
  Multiplicity = 1
  Basis Set: AUG-CC-PVTZ
    Blend: AUG-CC-PVTZ
  Basis Set: (AUG-CC-PVTZ AUX)
    Blend: AUG-CC-PVTZ-JKFIT

    Orbital Energies [Eh]
    ---------------------

    Doubly Occupied:

       1A    -20.581688     2A    -20.510293     3A    -15.578117
       4A    -11.343628     5A    -11.302343     6A    -11.259800
       7A    -11.228975     8A    -11.211960     9A     -1.388221
      10A     -1.359717    11A     -1.225088    12A     -1.043026
      13A     -1.009142    14A     -0.903136    15A     -0.843608
      16A     -0.775922    17A     -0.716785    18A     -0.696692
      19A     -0.640675    20A     -0.633570    21A     -0.610062
      22A     -0.588492    23A     -0.583228    24A     -0.559543
      25A     -0.541914    26A     -0.525945    27A     -0.520134
      28A     -0.509283    29A     -0.490451    30A     -0.458821
      31A     -0.415457    32A     -0.384274

  @DF-RHF Final Energy:  -400.08778003477039

   => Energetics <=

    Nuclear Repulsion Energy =            399.6015253804437179
    One-Electron Energy =               -1338.4986315708863458
    Two-Electron Energy =                 538.8093261556722382
    Total Energy =                       -400.0877800347703896
  Basis Set: (AUG-CC-PVTZ AUX)
    Blend: AUG-CC-PVTZ-RI
    Molecular point group: c1

    Geometry (in Angstrom), charge = 0, multiplicity = 1:

       Center              X                  Y                   Z               Mass
    ------------   -----------------  -----------------  -----------------  -----------------
         O           -1.554054074862    -1.523455426198    -0.228287387789    15.994914619570
         O            0.154946925138     1.596426573802    -0.300963387789    15.994914619570
         N            0.716626925138    -0.500774426198     0.428961612211    14.003074004430
         C           -1.528942074862    -0.104463426198    -0.431173387789    12.000000000000
         C            2.095070925138    -0.150996426198     0.732155612211    12.000000000000
         C           -0.130321074862     0.408640573802    -0.107164387789    12.000000000000
         C           -2.564776174862     0.624463273802     0.447056612211    12.000000000000
         C            2.989460925138    -0.179456426198    -0.502103387789    12.000000000000
         H           -1.705046074862     0.131167573802    -1.490274387789     1.007825032230
         H            2.086282925138     0.851744573802     1.166291612211     1.007825032230
         H            2.453856925138    -0.847845426198     1.495464612211     1.007825032230
         H            0.401542925138    -1.462468426198     0.464788612211     1.007825032230
         H           -2.377709074862     0.366334573802     1.485992612211     1.007825032230
         H           -3.570195074862     0.316568573802     0.165896612211     1.007825032230
         H           -2.453540074862     1.693954573802     0.301264612211     1.007825032230
         H            2.995536925138    -1.174832426198    -0.954625387789     1.007825032230
         H            2.620673925138     0.539472573802    -1.236448387789     1.007825032230
         H            4.017941925138     0.087248573802    -0.239469387789     1.007825032230
         H           -2.467302074862    -1.824031426198    -0.371753387789     1.007825032230

  Basis Set: AUG-CC-PVTZ
    Blend: AUG-CC-PVTZ
  Basis Set: (AUG-CC-PVTZ AUX)
    Blend: AUG-CC-PVTZ-JKFIT
	 Reference Energy          =    -400.0877800347703896 [Eh]
	 Singles Energy            =      -0.0000000000000000 [Eh]
	 Same-Spin Energy          =      -0.4014699225583624 [Eh]
	 Opposite-Spin Energy      =      -1.3073567455700670 [Eh]
	 Correlation Energy        =      -1.7088266681284294 [Eh]
	 Total Energy              =    -401.7966067028988277 [Eh]

	 ================> DF-SCS-MP2 Energies <==================
	-----------------------------------------------------------
	 SCS Same-Spin Scale       =       0.3333333333333333 [-]
	 SCS Opposite-Spin Scale   =       1.2000000000000000 [-]
	 SCS Same-Spin Energy      =      -0.1338233075194541 [Eh]
	 SCS Opposite-Spin Energy  =      -1.5688280946840802 [Eh]
	 SCS Correlation Energy    =      -1.7026514022035344 [Eh]
	 SCS Total Energy          =    -401.7904314369739041 [Eh]
	-----------------------------------------------------------

  Dipole Moment: [D]
     X:    -1.1660      Y:    -2.7736      Z:     0.4722     Total:     3.0456

*** Psi4 exiting successfully. Buy a developer a beer!
