                               Psi4 1.3.2 release

  ==> Input File <==

--------------------------------------------------------------------------
#psi4
#
memory 32 gb

molecule  {
0 1
  O       -2.5211540    -0.5137840     0.0284240
  O       -0.0903380    -1.4616610     0.1717700
  N        0.9259230     0.4056680    -0.6455280
  C       -1.5147550     0.4028960    -0.3432490
  C        2.2759682    -0.1265041    -0.5253947
  C       -0.1583790    -0.2975740    -0.2472510
  C       -1.5844930     1.6236140     0.5658530
  C        2.8531060     0.0659690     0.8699860
  H       -1.6669500     0.7105100    -1.3901450
  H        2.2044940    -1.2028750    -0.7525030
  H        2.8934660     0.3357800    -1.2867330
  H        0.8189033     1.3780618    -0.9027049
  H       -1.3564630     1.3269670     1.5921410
  H       -2.5982940     2.0269070     0.5395510
  H       -0.8919110     2.4138320     0.2596650
  H        2.9042670     1.1289430     1.1200310
  H        2.2261210    -0.4398610     1.6074960
  H        3.8631580    -0.3501450     0.9292180
  H       -2.0326010    -1.3422410     0.2291570
units angstrom
no_reorient  #important for SAPT in psi4, default
symmetry c1  #important for SAPT in psi4, default
}

set PROPERTIES_ORIGIN ["COM"]
properties('MP2/aug-cc-pvtz', properties = ['dipole'])
--------------------------------------------------------------------------

    Molecular point group: c1
  Charge       = 0
  Multiplicity = 1
  Basis Set: AUG-CC-PVTZ
    Blend: AUG-CC-PVTZ
  Basis Set: (AUG-CC-PVTZ AUX)
    Blend: AUG-CC-PVTZ-JKFIT

    Orbital Energies [Eh]
    ---------------------

    Doubly Occupied:

       1A    -20.548503     2A    -20.533565     3A    -15.598706
       4A    -11.359567     5A    -11.298240     6A    -11.273562
       7A    -11.231316     8A    -11.224362     9A     -1.398416
      10A     -1.346717    11A     -1.245897    12A     -1.052924
      13A     -1.012869    14A     -0.903268    15A     -0.849419
      16A     -0.794251    17A     -0.744403    18A     -0.676922
      19A     -0.649749    20A     -0.642204    21A     -0.611269
      22A     -0.598698    23A     -0.575820    24A     -0.563247
      25A     -0.543880    26A     -0.534788    27A     -0.522475
      28A     -0.514747    29A     -0.501107    30A     -0.446049
      31A     -0.436271    32A     -0.403478

  @DF-RHF Final Energy:  -400.08749604822549

   => Energetics <=

    Nuclear Repulsion Energy =            400.3727427037156303
    One-Electron Energy =               -1339.6471002648963804
    Two-Electron Energy =                 539.1868615129552609
    Total Energy =                       -400.0874960482254892
  Basis Set: (AUG-CC-PVTZ AUX)
    Blend: AUG-CC-PVTZ-RI
    Molecular point group: c1

    Geometry (in Angstrom), charge = 0, multiplicity = 1:

       Center              X                  Y                   Z               Mass
    ------------   -----------------  -----------------  -----------------  -----------------
         O           -2.521722278069    -0.514954613297     0.028744849027    15.994914619570
         O           -0.090906278069    -1.462831613297     0.172090849027    15.994914619570
         N            0.925354721931     0.404497386703    -0.645207150973    14.003074004430
         C           -1.515323278069     0.401725386703    -0.342928150973    12.000000000000
         C            2.275399921931    -0.127674713297    -0.525073850973    12.000000000000
         C           -0.158947278069    -0.298744613297    -0.246930150973    12.000000000000
         C           -1.585061278069     1.622443386703     0.566173849027    12.000000000000
         C            2.852537721931     0.064798386703     0.870306849027    12.000000000000
         H           -1.667518278069     0.709339386703    -1.389824150973     1.007825032230
         H            2.203925721931    -1.204045613297    -0.752182150973     1.007825032230
         H            2.892897721931     0.334609386703    -1.286412150973     1.007825032230
         H            0.818335021931     1.376891186703    -0.902384050973     1.007825032230
         H           -1.357031278069     1.325796386703     1.592461849027     1.007825032230
         H           -2.598862278069     2.025736386703     0.539871849027     1.007825032230
         H           -0.892479278069     2.412661386703     0.259985849027     1.007825032230
         H            2.903698721931     1.127772386703     1.120351849027     1.007825032230
         H            2.225552721931    -0.441031613297     1.607816849027     1.007825032230
         H            3.862589721931    -0.351315613297     0.929538849027     1.007825032230
         H           -2.033169278069    -1.343411613297     0.229477849027     1.007825032230

  Basis Set: AUG-CC-PVTZ
    Blend: AUG-CC-PVTZ
  Basis Set: (AUG-CC-PVTZ AUX)
    Blend: AUG-CC-PVTZ-JKFIT
	 Reference Energy          =    -400.0874960482254892 [Eh]
	 Singles Energy            =      -0.0000000000000000 [Eh]
	 Same-Spin Energy          =      -0.4021366116847303 [Eh]
	 Opposite-Spin Energy      =      -1.3076835174877370 [Eh]
	 Correlation Energy        =      -1.7098201291724673 [Eh]
	 Total Energy              =    -401.7973161773979314 [Eh]

	 ================> DF-SCS-MP2 Energies <==================
	-----------------------------------------------------------
	 SCS Same-Spin Scale       =       0.3333333333333333 [-]
	 SCS Opposite-Spin Scale   =       1.2000000000000000 [-]
	 SCS Same-Spin Energy      =      -0.1340455372282434 [Eh]
	 SCS Opposite-Spin Energy  =      -1.5692202209852844 [Eh]
	 SCS Correlation Energy    =      -1.7032657582135278 [Eh]
	 SCS Total Energy          =    -401.7907618064390363 [Eh]
	-----------------------------------------------------------

  Dipole Moment: [D]
     X:     3.1041      Y:     3.1815      Z:    -1.0476     Total:     4.5667

*** Psi4 exiting successfully. Buy a developer a beer!
