                               Psi4 1.3.2 release

  ==> Input File <==

--------------------------------------------------------------------------
#psi4
#
memory 32 gb

molecule  {
0 1
  O       -2.5211540    -0.5137840     0.0284240
  O       -0.0903380    -1.4616610     0.1717700
  N        0.9259230     0.4056680    -0.6455280
  C       -1.5147550     0.4028960    -0.3432490
  C        2.2711600    -0.1378510    -0.5222970
  C       -0.2385573    -0.3495750    -0.2178005
  C       -1.5844930     1.6236140     0.5658530
  C        2.8531060     0.0659690     0.8699860
  H       -1.6669500     0.7105100    -1.3901450
  H        2.2044940    -1.2028750    -0.7525030
  H        2.8934660     0.3357800    -1.2867330
  H        0.8101310     1.3771570    -0.9023240
  H       -1.3564630     1.3269670     1.5921410
  H       -2.5982940     2.0269070     0.5395510
  H       -0.8919110     2.4138320     0.2596650
  H        2.9042670     1.1289430     1.1200310
  H        2.2261210    -0.4398610     1.6074960
  H        3.8631580    -0.3501450     0.9292180
  H       -2.0326010    -1.3422410     0.2291570
units angstrom
no_reorient  #important for SAPT in psi4, default
symmetry c1  #important for SAPT in psi4, default
}

set PROPERTIES_ORIGIN ["COM"]
properties('MP2/aug-cc-pvtz', properties = ['dipole'])
--------------------------------------------------------------------------

    Molecular point group: c1
  Charge       = 0
  Multiplicity = 1
  Basis Set: AUG-CC-PVTZ
    Blend: AUG-CC-PVTZ
  Basis Set: (AUG-CC-PVTZ AUX)
    Blend: AUG-CC-PVTZ-JKFIT

    Orbital Energies [Eh]
    ---------------------

    Doubly Occupied:

       1A    -20.553397     2A    -20.552449     3A    -15.579514
       4A    -11.364498     5A    -11.300886     6A    -11.264448
       7A    -11.235087     8A    -11.217709     9A     -1.433666
      10A     -1.359454    11A     -1.215044    12A     -1.053815
      13A     -1.003198    14A     -0.907194    15A     -0.842796
      16A     -0.774719    17A     -0.751608    18A     -0.683496
      19A     -0.658899    20A     -0.640430    21A     -0.610576
      22A     -0.595174    23A     -0.577644    24A     -0.562635
      25A     -0.545068    26A     -0.536560    27A     -0.529961
      28A     -0.522594    29A     -0.497866    30A     -0.451937
      31A     -0.445344    32A     -0.390753

  @DF-RHF Final Energy:  -400.07752836486350

   => Energetics <=

    Nuclear Repulsion Energy =            400.5215024216009283
    One-Electron Energy =               -1339.8812262780998026
    Two-Electron Energy =                 539.2821954916354343
    Total Energy =                       -400.0775283648634968
  Basis Set: (AUG-CC-PVTZ AUX)
    Blend: AUG-CC-PVTZ-RI
    Molecular point group: c1

    Geometry (in Angstrom), charge = 0, multiplicity = 1:

       Center              X                  Y                   Z               Mass
    ------------   -----------------  -----------------  -----------------  -----------------
         O           -2.512936081300    -0.508453987060     0.025405545206    15.994914619570
         O           -0.082120081300    -1.456330987060     0.168751545206    15.994914619570
         N            0.934140918700     0.410998012940    -0.648546454794    14.003074004430
         C           -1.506537081300     0.408226012940    -0.346267454794    12.000000000000
         C            2.279377918700    -0.132520987060    -0.525315454794    12.000000000000
         C           -0.230339381300    -0.344244987060    -0.220818954794    12.000000000000
         C           -1.576275081300     1.628944012940     0.562834545206    12.000000000000
         C            2.861323918700     0.071299012940     0.866967545206    12.000000000000
         H           -1.658732081300     0.715840012940    -1.393163454794     1.007825032230
         H            2.212711918700    -1.197544987060    -0.755521454794     1.007825032230
         H            2.901683918700     0.341110012940    -1.289751454794     1.007825032230
         H            0.818348918700     1.382487012940    -0.905342454794     1.007825032230
         H           -1.348245081300     1.332297012940     1.589122545206     1.007825032230
         H           -2.590076081300     2.032237012940     0.536532545206     1.007825032230
         H           -0.883693081300     2.419162012940     0.256646545206     1.007825032230
         H            2.912484918700     1.134273012940     1.117012545206     1.007825032230
         H            2.234338918700    -0.434530987060     1.604477545206     1.007825032230
         H            3.871375918700    -0.344814987060     0.926199545206     1.007825032230
         H           -2.024383081300    -1.336910987060     0.226138545206     1.007825032230

  Basis Set: AUG-CC-PVTZ
    Blend: AUG-CC-PVTZ
  Basis Set: (AUG-CC-PVTZ AUX)
    Blend: AUG-CC-PVTZ-JKFIT
	 Reference Energy          =    -400.0775283648634968 [Eh]
	 Singles Energy            =      -0.0000000000000000 [Eh]
	 Same-Spin Energy          =      -0.4015959149906376 [Eh]
	 Opposite-Spin Energy      =      -1.3069883248939713 [Eh]
	 Correlation Energy        =      -1.7085842398846089 [Eh]
	 Total Energy              =    -401.7861126047480980 [Eh]

	 ================> DF-SCS-MP2 Energies <==================
	-----------------------------------------------------------
	 SCS Same-Spin Scale       =       0.3333333333333333 [-]
	 SCS Opposite-Spin Scale   =       1.2000000000000000 [-]
	 SCS Same-Spin Energy      =      -0.1338653049968792 [Eh]
	 SCS Opposite-Spin Energy  =      -1.5683859898727655 [Eh]
	 SCS Correlation Energy    =      -1.7022512948696447 [Eh]
	 SCS Total Energy          =    -401.7797796597331512 [Eh]
	-----------------------------------------------------------

  Dipole Moment: [D]
     X:     2.3642      Y:     2.7722      Z:    -0.8302     Total:     3.7368

*** Psi4 exiting successfully. Buy a developer a beer!
