                               Psi4 1.3.2 release

  ==> Input File <==

--------------------------------------------------------------------------
#psi4
#
memory 32 gb

molecule  {
0 1
  O       -2.5211540    -0.5137840     0.0284240
  O       -0.0903380    -1.4616610     0.1717700
  N        0.9259230     0.4056680    -0.6455280
  C       -1.5147550     0.4028960    -0.3432490
  C        2.2711600    -0.1378510    -0.5222970
  C       -0.1583790    -0.2975740    -0.2472510
  C       -1.5844930     1.6236140     0.5658530
  C        2.8531060     0.0659690     0.8699860
  H       -1.6669500     0.7105100    -1.3901450
  H        2.2044940    -1.2028750    -0.7525030
  H        2.8934660     0.3357800    -1.2867330
  H        0.8101310     1.3771570    -0.9023240
  H       -1.3564630     1.3269670     1.5921410
  H       -2.5982940     2.0269070     0.5395510
  H       -0.8919110     2.4138320     0.2596650
  H        2.9042670     1.1289430     1.1200310
  H        2.2261210    -0.4398610     1.6074960
  H        3.8631580    -0.3501450     0.9292180
  H       -2.0823262    -1.2579202     0.2087263
units angstrom
no_reorient  #important for SAPT in psi4, default
symmetry c1  #important for SAPT in psi4, default
}

set PROPERTIES_ORIGIN ["COM"]
properties('MP2/aug-cc-pvtz', properties = ['dipole'])
--------------------------------------------------------------------------

    Molecular point group: c1
  Charge       = 0
  Multiplicity = 1
  Basis Set: AUG-CC-PVTZ
    Blend: AUG-CC-PVTZ
  Basis Set: (AUG-CC-PVTZ AUX)
    Blend: AUG-CC-PVTZ-JKFIT

    Orbital Energies [Eh]
    ---------------------

    Doubly Occupied:

       1A    -20.543631     2A    -20.531380     3A    -15.598108
       4A    -11.358778     5A    -11.300139     6A    -11.273360
       7A    -11.232496     8A    -11.223985     9A     -1.406025
      10A     -1.364327    11A     -1.245179    12A     -1.056507
      13A     -1.015048    14A     -0.903698    15A     -0.852515
      16A     -0.794806    17A     -0.756725    18A     -0.680525
      19A     -0.653954    20A     -0.641895    21A     -0.611670
      22A     -0.599265    23A     -0.579706    24A     -0.565614
      25A     -0.546210    26A     -0.536658    27A     -0.522455
      28A     -0.520521    29A     -0.502558    30A     -0.450758
      31A     -0.434262    32A     -0.402657

  @DF-RHF Final Energy:  -400.08371565675861

   => Energetics <=

    Nuclear Repulsion Energy =            400.9621166640616821
    One-Electron Energy =               -1340.6808296989295286
    Two-Electron Energy =                 539.6349973781092331
    Total Energy =                       -400.0837156567586135
  Basis Set: (AUG-CC-PVTZ AUX)
    Blend: AUG-CC-PVTZ-RI
    Molecular point group: c1

    Geometry (in Angstrom), charge = 0, multiplicity = 1:

       Center              X                  Y                   Z               Mass
    ------------   -----------------  -----------------  -----------------  -----------------
         O           -2.520725910949    -0.514509665213     0.028599940779    15.994914619570
         O           -0.089909910949    -1.462386665213     0.171945940779    15.994914619570
         N            0.926351089051     0.404942334787    -0.645352059221    14.003074004430
         C           -1.514326910949     0.402170334787    -0.343073059221    12.000000000000
         C            2.271588089051    -0.138576665213    -0.522121059221    12.000000000000
         C           -0.157950910949    -0.298299665213    -0.247075059221    12.000000000000
         C           -1.584064910949     1.622888334787     0.566028940779    12.000000000000
         C            2.853534089051     0.065243334787     0.870161940779    12.000000000000
         H           -1.666521910949     0.709784334787    -1.389969059221     1.007825032230
         H            2.204922089051    -1.203600665213    -0.752327059221     1.007825032230
         H            2.893894089051     0.335054334787    -1.286557059221     1.007825032230
         H            0.810559089051     1.376431334787    -0.902148059221     1.007825032230
         H           -1.356034910949     1.326241334787     1.592316940779     1.007825032230
         H           -2.597865910949     2.026181334787     0.539726940779     1.007825032230
         H           -0.891482910949     2.413106334787     0.259840940779     1.007825032230
         H            2.904695089051     1.128217334787     1.120206940779     1.007825032230
         H            2.226549089051    -0.440586665213     1.607671940779     1.007825032230
         H            3.863586089051    -0.350870665213     0.929393940779     1.007825032230
         H           -2.081898110949    -1.258645865213     0.208902240779     1.007825032230

  Basis Set: AUG-CC-PVTZ
    Blend: AUG-CC-PVTZ
  Basis Set: (AUG-CC-PVTZ AUX)
    Blend: AUG-CC-PVTZ-JKFIT
	 Reference Energy          =    -400.0837156567586135 [Eh]
	 Singles Energy            =      -0.0000000000000000 [Eh]
	 Same-Spin Energy          =      -0.4005963616445877 [Eh]
	 Opposite-Spin Energy      =      -1.3046972922514160 [Eh]
	 Correlation Energy        =      -1.7052936538960037 [Eh]
	 Total Energy              =    -401.7890093106545919 [Eh]

	 ================> DF-SCS-MP2 Energies <==================
	-----------------------------------------------------------
	 SCS Same-Spin Scale       =       0.3333333333333333 [-]
	 SCS Opposite-Spin Scale   =       1.2000000000000000 [-]
	 SCS Same-Spin Energy      =      -0.1335321205481959 [Eh]
	 SCS Opposite-Spin Energy  =      -1.5656367507016991 [Eh]
	 SCS Correlation Energy    =      -1.6991688712498949 [Eh]
	 SCS Total Energy          =    -401.7828845280084806 [Eh]
	-----------------------------------------------------------

  Dipole Moment: [D]
     X:     2.9785      Y:     3.2793      Z:    -1.0648     Total:     4.5562

*** Psi4 exiting successfully. Buy a developer a beer!
