                               Psi4 1.3.2 release

  ==> Input File <==

--------------------------------------------------------------------------
#psi4
#
memory 32 gb

molecule  {
0 1
  O       -2.5111867    -0.5152848     0.0508954
  O       -0.0903380    -1.4616610     0.1717700
  N        0.9259230     0.4056680    -0.6455280
  C       -1.5147550     0.4028960    -0.3432490
  C        2.2711600    -0.1378510    -0.5222970
  C       -0.1583790    -0.2975740    -0.2472510
  C       -1.5844930     1.6236140     0.5658530
  C        2.8531060     0.0659690     0.8699860
  H       -1.6514447     0.7218134    -1.3889012
  H        2.2044940    -1.2028750    -0.7525030
  H        2.8934660     0.3357800    -1.2867330
  H        0.8101310     1.3771570    -0.9023240
  H       -1.3564630     1.3269670     1.5921410
  H       -2.5982940     2.0269070     0.5395510
  H       -0.8919110     2.4138320     0.2596650
  H        2.9042670     1.1289430     1.1200310
  H        2.2261210    -0.4398610     1.6074960
  H        3.8631580    -0.3501450     0.9292180
  H       -2.0326010    -1.3422410     0.2291570
units angstrom
no_reorient  #important for SAPT in psi4, default
symmetry c1  #important for SAPT in psi4, default
}

set PROPERTIES_ORIGIN ["COM"]
properties('MP2/aug-cc-pvtz', properties = ['dipole'])
--------------------------------------------------------------------------

    Molecular point group: c1
  Charge       = 0
  Multiplicity = 1
  Basis Set: AUG-CC-PVTZ
    Blend: AUG-CC-PVTZ
  Basis Set: (AUG-CC-PVTZ AUX)
    Blend: AUG-CC-PVTZ-JKFIT

    Orbital Energies [Eh]
    ---------------------

    Doubly Occupied:

       1A    -20.548139     2A    -20.532915     3A    -15.598394
       4A    -11.358698     5A    -11.298733     6A    -11.273551
       7A    -11.231170     8A    -11.224179     9A     -1.398819
      10A     -1.348155    11A     -1.245673    12A     -1.053344
      13A     -1.013041    14A     -0.902991    15A     -0.849602
      16A     -0.794123    17A     -0.744560    18A     -0.678880
      19A     -0.650850    20A     -0.641705    21A     -0.611183
      22A     -0.599048    23A     -0.575602    24A     -0.563107
      25A     -0.544113    26A     -0.535176    27A     -0.520611
      28A     -0.515065    29A     -0.502290    30A     -0.447151
      31A     -0.435532    32A     -0.403176

  @DF-RHF Final Energy:  -400.08813831283931

   => Energetics <=

    Nuclear Repulsion Energy =            400.6562167990996386
    One-Electron Energy =               -1340.2095543309301320
    Two-Electron Energy =                 539.4651992189911880
    Total Energy =                       -400.0881383128393054
  Basis Set: (AUG-CC-PVTZ AUX)
    Blend: AUG-CC-PVTZ-RI
    Molecular point group: c1

    Geometry (in Angstrom), charge = 0, multiplicity = 1:

       Center              X                  Y                   Z               Mass
    ------------   -----------------  -----------------  -----------------  -----------------
         O           -2.512681817368    -0.515176891736     0.047814802051    15.994914619570
         O           -0.091833117368    -1.461553091736     0.168689402051    15.994914619570
         N            0.924427882632     0.405775908264    -0.648608597949    14.003074004430
         C           -1.516250117368     0.403003908264    -0.346329597949    12.000000000000
         C            2.269664882632    -0.137743091736    -0.525377597949    12.000000000000
         C           -0.159874117368    -0.297466091736    -0.250331597949    12.000000000000
         C           -1.585988117368     1.623721908264     0.562772402051    12.000000000000
         C            2.851610882632     0.066076908264     0.866905402051    12.000000000000
         H           -1.652939817368     0.721921308264    -1.391981797949     1.007825032230
         H            2.202998882632    -1.202767091736    -0.755583597949     1.007825032230
         H            2.891970882632     0.335887908264    -1.289813597949     1.007825032230
         H            0.808635882632     1.377264908264    -0.905404597949     1.007825032230
         H           -1.357958117368     1.327074908264     1.589060402051     1.007825032230
         H           -2.599789117368     2.027014908264     0.536470402051     1.007825032230
         H           -0.893406117368     2.413939908264     0.256584402051     1.007825032230
         H            2.902771882632     1.129050908264     1.116950402051     1.007825032230
         H            2.224625882632    -0.439753091736     1.604415402051     1.007825032230
         H            3.861662882632    -0.350037091736     0.926137402051     1.007825032230
         H           -2.034096117368    -1.342133091736     0.226076402051     1.007825032230

  Basis Set: AUG-CC-PVTZ
    Blend: AUG-CC-PVTZ
  Basis Set: (AUG-CC-PVTZ AUX)
    Blend: AUG-CC-PVTZ-JKFIT
	 Reference Energy          =    -400.0881383128393054 [Eh]
	 Singles Energy            =      -0.0000000000000000 [Eh]
	 Same-Spin Energy          =      -0.4019830521962587 [Eh]
	 Opposite-Spin Energy      =      -1.3072976979183086 [Eh]
	 Correlation Energy        =      -1.7092807501145673 [Eh]
	 Total Energy              =    -401.7974190629538498 [Eh]

	 ================> DF-SCS-MP2 Energies <==================
	-----------------------------------------------------------
	 SCS Same-Spin Scale       =       0.3333333333333333 [-]
	 SCS Opposite-Spin Scale   =       1.2000000000000000 [-]
	 SCS Same-Spin Energy      =      -0.1339943507320862 [Eh]
	 SCS Opposite-Spin Energy  =      -1.5687572375019703 [Eh]
	 SCS Correlation Energy    =      -1.7027515882340565 [Eh]
	 SCS Total Energy          =    -401.7908899010733421 [Eh]
	-----------------------------------------------------------

  Dipole Moment: [D]
     X:     3.0655      Y:     3.1710      Z:    -1.0875     Total:     4.5426

*** Psi4 exiting successfully. Buy a developer a beer!
