                               Psi4 1.3.2 release

  ==> Input File <==

--------------------------------------------------------------------------
#psi4
#
memory 32 gb

molecule  {
0 1
  O       -2.5211540    -0.5137840     0.0284240
  O       -0.1547109    -1.4607485     0.1797366
  N        0.8830035     0.4600882    -0.6599920
  C       -1.5147550     0.4028960    -0.3432490
  C        2.2711600    -0.1378510    -0.5222970
  C       -0.1583790    -0.2975740    -0.2472510
  C       -1.5844930     1.6236140     0.5658530
  C        2.8531060     0.0659690     0.8699860
  H       -1.6669500     0.7105100    -1.3901450
  H        2.2044940    -1.2028750    -0.7525030
  H        2.8934660     0.3357800    -1.2867330
  H        0.8101310     1.3771570    -0.9023240
  H       -1.3564630     1.3269670     1.5921410
  H       -2.5982940     2.0269070     0.5395510
  H       -0.8919110     2.4138320     0.2596650
  H        2.9042670     1.1289430     1.1200310
  H        2.2261210    -0.4398610     1.6074960
  H        3.8631580    -0.3501450     0.9292180
  H       -2.0326010    -1.3422410     0.2291570
units angstrom
no_reorient  #important for SAPT in psi4, default
symmetry c1  #important for SAPT in psi4, default
}

set PROPERTIES_ORIGIN ["COM"]
properties('MP2/aug-cc-pvtz', properties = ['dipole'])
--------------------------------------------------------------------------

    Molecular point group: c1
  Charge       = 0
  Multiplicity = 1
  Basis Set: AUG-CC-PVTZ
    Blend: AUG-CC-PVTZ
  Basis Set: (AUG-CC-PVTZ AUX)
    Blend: AUG-CC-PVTZ-JKFIT

    Orbital Energies [Eh]
    ---------------------

    Doubly Occupied:

       1A    -20.541738     2A    -20.537596     3A    -15.598619
       4A    -11.361054     5A    -11.290714     6A    -11.281549
       7A    -11.228551     8A    -11.227982     9A     -1.398699
      10A     -1.340161    11A     -1.249023    12A     -1.050450
      13A     -1.013862    14A     -0.899692    15A     -0.849353
      16A     -0.812504    17A     -0.740029    18A     -0.674754
      19A     -0.642902    20A     -0.640715    21A     -0.615697
      22A     -0.603241    23A     -0.571522    24A     -0.560037
      25A     -0.544208    26A     -0.532830    27A     -0.522938
      28A     -0.513078    29A     -0.503727    30A     -0.442156
      31A     -0.432750    32A     -0.410842

  @DF-RHF Final Energy:  -400.08002206761302

   => Energetics <=

    Nuclear Repulsion Energy =            400.0209421388195210
    One-Electron Energy =               -1338.9359818140790139
    Two-Electron Energy =                 538.8350176076464777
    Total Energy =                       -400.0800220676130721
  Basis Set: (AUG-CC-PVTZ AUX)
    Blend: AUG-CC-PVTZ-RI
    Molecular point group: c1

    Geometry (in Angstrom), charge = 0, multiplicity = 1:

       Center              X                  Y                   Z               Mass
    ------------   -----------------  -----------------  -----------------  -----------------
         O           -2.507226223031    -0.520417342602     0.029065650383    15.994914619570
         O           -0.140783123031    -1.467381842602     0.180378250383    15.994914619570
         N            0.896931276969     0.453454857398    -0.659350349617    14.003074004430
         C           -1.500827223031     0.396262657398    -0.342607349617    12.000000000000
         C            2.285087776969    -0.144484342602    -0.521655349617    12.000000000000
         C           -0.144451223031    -0.304207342602    -0.246609349617    12.000000000000
         C           -1.570565223031     1.616980657398     0.566494650383    12.000000000000
         C            2.867033776969     0.059335657398     0.870627650383    12.000000000000
         H           -1.653022223031     0.703876657398    -1.389503349617     1.007825032230
         H            2.218421776969    -1.209508342602    -0.751861349617     1.007825032230
         H            2.907393776969     0.329146657398    -1.286091349617     1.007825032230
         H            0.824058776969     1.370523657398    -0.901682349617     1.007825032230
         H           -1.342535223031     1.320333657398     1.592782650383     1.007825032230
         H           -2.584366223031     2.020273657398     0.540192650383     1.007825032230
         H           -0.877983223031     2.407198657398     0.260306650383     1.007825032230
         H            2.918194776969     1.122309657398     1.120672650383     1.007825032230
         H            2.240048776969    -0.446494342602     1.608137650383     1.007825032230
         H            3.877085776969    -0.356778342602     0.929859650383     1.007825032230
         H           -2.018673223031    -1.348874342602     0.229798650383     1.007825032230

  Basis Set: AUG-CC-PVTZ
    Blend: AUG-CC-PVTZ
  Basis Set: (AUG-CC-PVTZ AUX)
    Blend: AUG-CC-PVTZ-JKFIT
	 Reference Energy          =    -400.0800220676130152 [Eh]
	 Singles Energy            =      -0.0000000000000000 [Eh]
	 Same-Spin Energy          =      -0.4017767489570035 [Eh]
	 Opposite-Spin Energy      =      -1.3075293639905778 [Eh]
	 Correlation Energy        =      -1.7093061129475813 [Eh]
	 Total Energy              =    -401.7893281805605739 [Eh]

	 ================> DF-SCS-MP2 Energies <==================
	-----------------------------------------------------------
	 SCS Same-Spin Scale       =       0.3333333333333333 [-]
	 SCS Opposite-Spin Scale   =       1.2000000000000000 [-]
	 SCS Same-Spin Energy      =      -0.1339255829856678 [Eh]
	 SCS Opposite-Spin Energy  =      -1.5690352367886933 [Eh]
	 SCS Correlation Energy    =      -1.7029608197743611 [Eh]
	 SCS Total Energy          =    -401.7829828873873907 [Eh]
	-----------------------------------------------------------

  Dipole Moment: [D]
     X:     3.4911      Y:     3.0601      Z:    -1.0235     Total:     4.7539

*** Psi4 exiting successfully. Buy a developer a beer!
