                               Psi4 1.3.2 release

  ==> Input File <==

--------------------------------------------------------------------------
#psi4
#
memory 32 gb

molecule  {
0 1
  O       -2.5211540    -0.5137840     0.0284240
  O       -0.0903380    -1.4616610     0.1717700
  N        0.9259230     0.4056680    -0.6455280
  C       -1.5147550     0.4028960    -0.3432490
  C        2.2711600    -0.1378510    -0.5222970
  C       -0.1583790    -0.2975740    -0.2472510
  C       -1.5801453     1.6079179     0.5868739
  C        2.8531060     0.0659690     0.8699860
  H       -1.6650415     0.6921802    -1.3956318
  H        2.2044940    -1.2028750    -0.7525030
  H        2.8934660     0.3357800    -1.2867330
  H        0.8101310     1.3771570    -0.9023240
  H       -1.3564630     1.3269670     1.5921410
  H       -2.5982940     2.0269070     0.5395510
  H       -0.8919110     2.4138320     0.2596650
  H        2.9042670     1.1289430     1.1200310
  H        2.2261210    -0.4398610     1.6074960
  H        3.8631580    -0.3501450     0.9292180
  H       -2.0326010    -1.3422410     0.2291570
units angstrom
no_reorient  #important for SAPT in psi4, default
symmetry c1  #important for SAPT in psi4, default
}

set PROPERTIES_ORIGIN ["COM"]
properties('MP2/aug-cc-pvtz', properties = ['dipole'])
--------------------------------------------------------------------------

    Molecular point group: c1
  Charge       = 0
  Multiplicity = 1
  Basis Set: AUG-CC-PVTZ
    Blend: AUG-CC-PVTZ
  Basis Set: (AUG-CC-PVTZ AUX)
    Blend: AUG-CC-PVTZ-JKFIT

    Orbital Energies [Eh]
    ---------------------

    Doubly Occupied:

       1A    -20.547856     2A    -20.533196     3A    -15.598488
       4A    -11.358694     5A    -11.298188     6A    -11.273647
       7A    -11.231796     8A    -11.224312     9A     -1.398275
      10A     -1.346559    11A     -1.245752    12A     -1.052761
      13A     -1.012668    14A     -0.903176    15A     -0.849699
      16A     -0.794243    17A     -0.744002    18A     -0.677129
      19A     -0.649137    20A     -0.641927    21A     -0.611274
      22A     -0.599309    23A     -0.577425    24A     -0.560655
      25A     -0.543438    26A     -0.536600    27A     -0.520593
      28A     -0.514747    29A     -0.502336    30A     -0.446803
      31A     -0.435382    32A     -0.403403

  @DF-RHF Final Energy:  -400.08690923590450

   => Energetics <=

    Nuclear Repulsion Energy =            400.5496882037991782
    One-Electron Energy =               -1340.0062534022185901
    Two-Electron Energy =                 539.3696559625149121
    Total Energy =                       -400.0869092359044998
  Basis Set: (AUG-CC-PVTZ AUX)
    Blend: AUG-CC-PVTZ-RI
    Molecular point group: c1

    Geometry (in Angstrom), charge = 0, multiplicity = 1:

       Center              X                  Y                   Z               Mass
    ------------   -----------------  -----------------  -----------------  -----------------
         O           -2.521615995032    -0.512017270355     0.026316767150    15.994914619570
         O           -0.090799995032    -1.459894270355     0.169662767150    15.994914619570
         N            0.925461004968     0.407434729645    -0.647635232850    14.003074004430
         C           -1.515216995032     0.404662729645    -0.345356232850    12.000000000000
         C            2.270698004968    -0.136084270355    -0.524404232850    12.000000000000
         C           -0.158840995032    -0.295807270355    -0.249358232850    12.000000000000
         C           -1.580607295032     1.609684629645     0.584766667150    12.000000000000
         C            2.852644004968     0.067735729645     0.867878767150    12.000000000000
         H           -1.665503495032     0.693946929645    -1.397739032850     1.007825032230
         H            2.204032004968    -1.201108270355    -0.754610232850     1.007825032230
         H            2.893004004968     0.337546729645    -1.288840232850     1.007825032230
         H            0.809669004968     1.378923729645    -0.904431232850     1.007825032230
         H           -1.356924995032     1.328733729645     1.590033767150     1.007825032230
         H           -2.598755995032     2.028673729645     0.537443767150     1.007825032230
         H           -0.892372995032     2.415598729645     0.257557767150     1.007825032230
         H            2.903805004968     1.130709729645     1.117923767150     1.007825032230
         H            2.225659004968    -0.438094270355     1.605388767150     1.007825032230
         H            3.862696004968    -0.348378270355     0.927110767150     1.007825032230
         H           -2.033062995032    -1.340474270355     0.227049767150     1.007825032230

  Basis Set: AUG-CC-PVTZ
    Blend: AUG-CC-PVTZ
  Basis Set: (AUG-CC-PVTZ AUX)
    Blend: AUG-CC-PVTZ-JKFIT
	 Reference Energy          =    -400.0869092359044998 [Eh]
	 Singles Energy            =      -0.0000000000000000 [Eh]
	 Same-Spin Energy          =      -0.4021349260081278 [Eh]
	 Opposite-Spin Energy      =      -1.3076840118717568 [Eh]
	 Correlation Energy        =      -1.7098189378798845 [Eh]
	 Total Energy              =    -401.7967281737844019 [Eh]

	 ================> DF-SCS-MP2 Energies <==================
	-----------------------------------------------------------
	 SCS Same-Spin Scale       =       0.3333333333333333 [-]
	 SCS Opposite-Spin Scale   =       1.2000000000000000 [-]
	 SCS Same-Spin Energy      =      -0.1340449753360426 [Eh]
	 SCS Opposite-Spin Energy  =      -1.5692208142461082 [Eh]
	 SCS Correlation Energy    =      -1.7032657895821508 [Eh]
	 SCS Total Energy          =    -401.7901750254866329 [Eh]
	-----------------------------------------------------------

  Dipole Moment: [D]
     X:     3.0936      Y:     3.1693      Z:    -1.0380     Total:     4.5488

*** Psi4 exiting successfully. Buy a developer a beer!
