                               Psi4 1.3.2 release

  ==> Input File <==

--------------------------------------------------------------------------
#psi4
#
memory 32 gb

molecule  {
0 1
  O       -2.5401659    -0.5099453    -0.0168516
  O       -0.0903380    -1.4616610     0.1717700
  N        0.9259230     0.4056680    -0.6455280
  C       -1.5147550     0.4028960    -0.3432490
  C        2.2711600    -0.1378510    -0.5222970
  C       -0.1583790    -0.2975740    -0.2472510
  C       -1.5844930     1.6236140     0.5658530
  C        2.8531060     0.0659690     0.8699860
  H       -1.6978169     0.6876255    -1.3916756
  H        2.2044940    -1.2028750    -0.7525030
  H        2.8934660     0.3357800    -1.2867330
  H        0.8101310     1.3771570    -0.9023240
  H       -1.3564630     1.3269670     1.5921410
  H       -2.5982940     2.0269070     0.5395510
  H       -0.8919110     2.4138320     0.2596650
  H        2.9042670     1.1289430     1.1200310
  H        2.2261210    -0.4398610     1.6074960
  H        3.8631580    -0.3501450     0.9292180
  H       -2.0326010    -1.3422410     0.2291570
units angstrom
no_reorient  #important for SAPT in psi4, default
symmetry c1  #important for SAPT in psi4, default
}

set PROPERTIES_ORIGIN ["COM"]
properties('MP2/aug-cc-pvtz', properties = ['dipole'])
--------------------------------------------------------------------------

    Molecular point group: c1
  Charge       = 0
  Multiplicity = 1
  Basis Set: AUG-CC-PVTZ
    Blend: AUG-CC-PVTZ
  Basis Set: (AUG-CC-PVTZ AUX)
    Blend: AUG-CC-PVTZ-JKFIT

    Orbital Energies [Eh]
    ---------------------

    Doubly Occupied:

       1A    -20.549409     2A    -20.534545     3A    -15.599254
       4A    -11.360129     5A    -11.297166     6A    -11.274094
       7A    -11.231861     8A    -11.224684     9A     -1.397864
      10A     -1.343771    11A     -1.246422    12A     -1.052160
      13A     -1.012545    14A     -0.903035    15A     -0.849064
      16A     -0.794620    17A     -0.743447    18A     -0.674651
      19A     -0.645517    20A     -0.643152    21A     -0.611167
      22A     -0.600055    23A     -0.575929    24A     -0.563749
      25A     -0.543808    26A     -0.534140    27A     -0.521785
      28A     -0.514713    29A     -0.503136    30A     -0.443825
      31A     -0.437259    32A     -0.404006

  @DF-RHF Final Energy:  -400.08526593549630

   => Energetics <=

    Nuclear Repulsion Energy =            400.0188162689319142
    One-Electron Energy =               -1338.9462436614455783
    Two-Electron Energy =                 538.8421614570173688
    Total Energy =                       -400.0852659354962952
  Basis Set: (AUG-CC-PVTZ AUX)
    Blend: AUG-CC-PVTZ-RI
    Molecular point group: c1

    Geometry (in Angstrom), charge = 0, multiplicity = 1:

       Center              X                  Y                   Z               Mass
    ------------   -----------------  -----------------  -----------------  -----------------
         O           -2.537302806357    -0.510272563154    -0.010652960946    15.994914619570
         O           -0.087474906357    -1.461988263154     0.177968639054    15.994914619570
         N            0.928786093643     0.405340736846    -0.639329360946    14.003074004430
         C           -1.511891906357     0.402568736846    -0.337050360946    12.000000000000
         C            2.274023093643    -0.138178263154    -0.516098360946    12.000000000000
         C           -0.155515906357    -0.297901263154    -0.241052360946    12.000000000000
         C           -1.581629906357     1.623286736846     0.572051639054    12.000000000000
         C            2.855969093643     0.065641736846     0.876184639054    12.000000000000
         H           -1.694953806357     0.687298236846    -1.385476960946     1.007825032230
         H            2.207357093643    -1.203202263154    -0.746304360946     1.007825032230
         H            2.896329093643     0.335452736846    -1.280534360946     1.007825032230
         H            0.812994093643     1.376829736846    -0.896125360946     1.007825032230
         H           -1.353599906357     1.326639736846     1.598339639054     1.007825032230
         H           -2.595430906357     2.026579736846     0.545749639054     1.007825032230
         H           -0.889047906357     2.413504736846     0.265863639054     1.007825032230
         H            2.907130093643     1.128615736846     1.126229639054     1.007825032230
         H            2.228984093643    -0.440188263154     1.613694639054     1.007825032230
         H            3.866021093643    -0.350472263154     0.935416639054     1.007825032230
         H           -2.029737906357    -1.342568263154     0.235355639054     1.007825032230

  Basis Set: AUG-CC-PVTZ
    Blend: AUG-CC-PVTZ
  Basis Set: (AUG-CC-PVTZ AUX)
    Blend: AUG-CC-PVTZ-JKFIT
	 Reference Energy          =    -400.0852659354962952 [Eh]
	 Singles Energy            =      -0.0000000000000000 [Eh]
	 Same-Spin Energy          =      -0.4024645072329989 [Eh]
	 Opposite-Spin Energy      =      -1.3084840398801973 [Eh]
	 Correlation Energy        =      -1.7109485471131962 [Eh]
	 Total Energy              =    -401.7962144826095141 [Eh]

	 ================> DF-SCS-MP2 Energies <==================
	-----------------------------------------------------------
	 SCS Same-Spin Scale       =       0.3333333333333333 [-]
	 SCS Opposite-Spin Scale   =       1.2000000000000000 [-]
	 SCS Same-Spin Energy      =      -0.1341548357443330 [Eh]
	 SCS Opposite-Spin Energy  =      -1.5701808478562367 [Eh]
	 SCS Correlation Energy    =      -1.7043356836005696 [Eh]
	 SCS Total Energy          =    -401.7896016190968567 [Eh]
	-----------------------------------------------------------

  Dipole Moment: [D]
     X:     3.1541      Y:     3.1787      Z:    -0.9577     Total:     4.5793

*** Psi4 exiting successfully. Buy a developer a beer!
