                               Psi4 1.3.2 release

  ==> Input File <==

--------------------------------------------------------------------------
#psi4
#
memory 32 gb

molecule  {
0 1
  O       -2.5308147    -0.5120040     0.0058394
  O       -0.0903380    -1.4616610     0.1717700
  N        0.9259230     0.4056680    -0.6455280
  C       -1.5147550     0.4028960    -0.3432490
  C        2.2711600    -0.1378510    -0.5222970
  C       -0.1583790    -0.2975740    -0.2472510
  C       -1.5844930     1.6236140     0.5658530
  C        2.8531060     0.0659690     0.8699860
  H       -1.6824090     0.6991129    -1.3910699
  H        2.2044940    -1.2028750    -0.7525030
  H        2.8934660     0.3357800    -1.2867330
  H        0.8101310     1.3771570    -0.9023240
  H       -1.3564630     1.3269670     1.5921410
  H       -2.5982940     2.0269070     0.5395510
  H       -0.8919110     2.4138320     0.2596650
  H        2.9042670     1.1289430     1.1200310
  H        2.2261210    -0.4398610     1.6074960
  H        3.8631580    -0.3501450     0.9292180
  H       -2.0326010    -1.3422410     0.2291570
units angstrom
no_reorient  #important for SAPT in psi4, default
symmetry c1  #important for SAPT in psi4, default
}

set PROPERTIES_ORIGIN ["COM"]
properties('MP2/aug-cc-pvtz', properties = ['dipole'])
--------------------------------------------------------------------------

    Molecular point group: c1
  Charge       = 0
  Multiplicity = 1
  Basis Set: AUG-CC-PVTZ
    Blend: AUG-CC-PVTZ
  Basis Set: (AUG-CC-PVTZ AUX)
    Blend: AUG-CC-PVTZ-JKFIT

    Orbital Energies [Eh]
    ---------------------

    Doubly Occupied:

       1A    -20.548926     2A    -20.534005     3A    -15.598977
       4A    -11.359669     5A    -11.297693     6A    -11.273919
       7A    -11.231636     8A    -11.224521     9A     -1.398122
      10A     -1.345265    11A     -1.246180    12A     -1.052546
      13A     -1.012721    14A     -0.903027    15A     -0.849263
      16A     -0.794467    17A     -0.743792    18A     -0.675821
      19A     -0.647485    20A     -0.642691    21A     -0.611184
      22A     -0.599727    23A     -0.575860    24A     -0.563554
      25A     -0.543888    26A     -0.534593    27A     -0.521387
      28A     -0.514963    29A     -0.502868    30A     -0.444961
      31A     -0.436719    32A     -0.403744

  @DF-RHF Final Energy:  -400.08682121831356

   => Energetics <=

    Nuclear Repulsion Energy =            400.2276116683688656
    One-Electron Energy =               -1339.3605176877224494
    Two-Electron Energy =                 539.0460848010400241
    Total Energy =                       -400.0868212183136166
  Basis Set: (AUG-CC-PVTZ AUX)
    Blend: AUG-CC-PVTZ-RI
    Molecular point group: c1

    Geometry (in Angstrom), charge = 0, multiplicity = 1:

       Center              X                  Y                   Z               Mass
    ------------   -----------------  -----------------  -----------------  -----------------
         O           -2.529361766532    -0.512148895305     0.008932861237    15.994914619570
         O           -0.088885066532    -1.461805895305     0.174863461237    15.994914619570
         N            0.927375933468     0.405523104695    -0.642434538763    14.003074004430
         C           -1.513302066532     0.402751104695    -0.340155538763    12.000000000000
         C            2.272612933468    -0.137995895305    -0.519203538763    12.000000000000
         C           -0.156926066532    -0.297718895305    -0.244157538763    12.000000000000
         C           -1.583040066532     1.623469104695     0.568946461237    12.000000000000
         C            2.854558933468     0.065824104695     0.873079461237    12.000000000000
         H           -1.680956066532     0.698968004695    -1.387976438763     1.007825032230
         H            2.205946933468    -1.203019895305    -0.749409538763     1.007825032230
         H            2.894918933468     0.335635104695    -1.283639538763     1.007825032230
         H            0.811583933468     1.377012104695    -0.899230538763     1.007825032230
         H           -1.355010066532     1.326822104695     1.595234461237     1.007825032230
         H           -2.596841066532     2.026762104695     0.542644461237     1.007825032230
         H           -0.890458066532     2.413687104695     0.262758461237     1.007825032230
         H            2.905719933468     1.128798104695     1.123124461237     1.007825032230
         H            2.227573933468    -0.440005895305     1.610589461237     1.007825032230
         H            3.864610933468    -0.350289895305     0.932311461237     1.007825032230
         H           -2.031148066532    -1.342385895305     0.232250461237     1.007825032230

  Basis Set: AUG-CC-PVTZ
    Blend: AUG-CC-PVTZ
  Basis Set: (AUG-CC-PVTZ AUX)
    Blend: AUG-CC-PVTZ-JKFIT
	 Reference Energy          =    -400.0868212183135597 [Eh]
	 Singles Energy            =      -0.0000000000000000 [Eh]
	 Same-Spin Energy          =      -0.4022771515471649 [Eh]
	 Opposite-Spin Energy      =      -1.3080367506263926 [Eh]
	 Correlation Energy        =      -1.7103139021735574 [Eh]
	 Total Energy              =    -401.7971351204870984 [Eh]

	 ================> DF-SCS-MP2 Energies <==================
	-----------------------------------------------------------
	 SCS Same-Spin Scale       =       0.3333333333333333 [-]
	 SCS Opposite-Spin Scale   =       1.2000000000000000 [-]
	 SCS Same-Spin Energy      =      -0.1340923838490550 [Eh]
	 SCS Opposite-Spin Energy  =      -1.5696441007516710 [Eh]
	 SCS Correlation Energy    =      -1.7037364846007259 [Eh]
	 SCS Total Energy          =    -401.7905577029142705 [Eh]
	-----------------------------------------------------------

  Dipole Moment: [D]
     X:     3.1260      Y:     3.1770      Z:    -1.0011     Total:     4.5681

*** Psi4 exiting successfully. Buy a developer a beer!
