                               Psi4 1.3.2 release

  ==> Input File <==

--------------------------------------------------------------------------
#psi4
#
memory 32 gb

molecule  {
0 1
  O       -2.5211540    -0.5137840     0.0284240
  O       -0.0903380    -1.4616610     0.1717700
  N        0.9092792     0.3592803    -0.6579527
  C       -1.5147550     0.4028960    -0.3432490
  C        2.2711600    -0.1378510    -0.5222970
  C       -0.1583790    -0.2975740    -0.2472510
  C       -1.5844930     1.6236140     0.5658530
  C        2.8531060     0.0659690     0.8699860
  H       -1.6669500     0.7105100    -1.3901450
  H        2.1670533    -1.1986258    -0.7581652
  H        2.8934660     0.3357800    -1.2867330
  H        0.8101310     1.3771570    -0.9023240
  H       -1.3564630     1.3269670     1.5921410
  H       -2.5982940     2.0269070     0.5395510
  H       -0.8919110     2.4138320     0.2596650
  H        2.9042670     1.1289430     1.1200310
  H        2.2261210    -0.4398610     1.6074960
  H        3.8631580    -0.3501450     0.9292180
  H       -2.0326010    -1.3422410     0.2291570
units angstrom
no_reorient  #important for SAPT in psi4, default
symmetry c1  #important for SAPT in psi4, default
}

set PROPERTIES_ORIGIN ["COM"]
properties('MP2/aug-cc-pvtz', properties = ['dipole'])
--------------------------------------------------------------------------

    Molecular point group: c1
  Charge       = 0
  Multiplicity = 1
  Basis Set: AUG-CC-PVTZ
    Blend: AUG-CC-PVTZ
  Basis Set: (AUG-CC-PVTZ AUX)
    Blend: AUG-CC-PVTZ-JKFIT

    Orbital Energies [Eh]
    ---------------------

    Doubly Occupied:

       1A    -20.547538     2A    -20.526960     3A    -15.602397
       4A    -11.353559     5A    -11.297528     6A    -11.275206
       7A    -11.231089     8A    -11.226642     9A     -1.398359
      10A     -1.346308    11A     -1.248297    12A     -1.054495
      13A     -1.014375    14A     -0.905469    15A     -0.850703
      16A     -0.788821    17A     -0.744137    18A     -0.676637
      19A     -0.648962    20A     -0.640604    21A     -0.614852
      22A     -0.596065    23A     -0.576263    24A     -0.563693
      25A     -0.544862    26A     -0.535287    27A     -0.521349
      28A     -0.510967    29A     -0.504192    30A     -0.445131
      31A     -0.434150    32A     -0.403855

  @DF-RHF Final Energy:  -400.08420793868976

   => Energetics <=

    Nuclear Repulsion Energy =            401.0497904149534065
    One-Electron Energy =               -1341.0104957826426926
    Two-Electron Energy =                 539.8764974289995280
    Total Energy =                       -400.0842079386898149
  Basis Set: (AUG-CC-PVTZ AUX)
    Blend: AUG-CC-PVTZ-RI
    Molecular point group: c1

    Geometry (in Angstrom), charge = 0, multiplicity = 1:

       Center              X                  Y                   Z               Mass
    ------------   -----------------  -----------------  -----------------  -----------------
         O           -2.518840997541    -0.508272264037     0.029958851930    15.994914619570
         O           -0.088024997541    -1.456149264037     0.173304851930    15.994914619570
         N            0.911592202459     0.364792035963    -0.656417848070    14.003074004430
         C           -1.512441997541     0.408407735963    -0.341714148070    12.000000000000
         C            2.273473002459    -0.132339264037    -0.520762148070    12.000000000000
         C           -0.156065997541    -0.292062264037    -0.245716148070    12.000000000000
         C           -1.582179997541     1.629125735963     0.567387851930    12.000000000000
         C            2.855419002459     0.071480735963     0.871520851930    12.000000000000
         H           -1.664636997541     0.716021735963    -1.388610148070     1.007825032230
         H            2.169366302459    -1.193114064037    -0.756630348070     1.007825032230
         H            2.895779002459     0.341291735963    -1.285198148070     1.007825032230
         H            0.812444002459     1.382668735963    -0.900789148070     1.007825032230
         H           -1.354149997541     1.332478735963     1.593675851930     1.007825032230
         H           -2.595980997541     2.032418735963     0.541085851930     1.007825032230
         H           -0.889597997541     2.419343735963     0.261199851930     1.007825032230
         H            2.906580002459     1.134454735963     1.121565851930     1.007825032230
         H            2.228434002459    -0.434349264037     1.609030851930     1.007825032230
         H            3.865471002459    -0.344633264037     0.930752851930     1.007825032230
         H           -2.030287997541    -1.336729264037     0.230691851930     1.007825032230

  Basis Set: AUG-CC-PVTZ
    Blend: AUG-CC-PVTZ
  Basis Set: (AUG-CC-PVTZ AUX)
    Blend: AUG-CC-PVTZ-JKFIT
	 Reference Energy          =    -400.0842079386897581 [Eh]
	 Singles Energy            =      -0.0000000000000000 [Eh]
	 Same-Spin Energy          =      -0.4023496758156694 [Eh]
	 Opposite-Spin Energy      =      -1.3078763693493540 [Eh]
	 Correlation Energy        =      -1.7102260451650233 [Eh]
	 Total Energy              =    -401.7944339838547876 [Eh]

	 ================> DF-SCS-MP2 Energies <==================
	-----------------------------------------------------------
	 SCS Same-Spin Scale       =       0.3333333333333333 [-]
	 SCS Opposite-Spin Scale   =       1.2000000000000000 [-]
	 SCS Same-Spin Energy      =      -0.1341165586052231 [Eh]
	 SCS Opposite-Spin Energy  =      -1.5694516432192247 [Eh]
	 SCS Correlation Energy    =      -1.7035682018244478 [Eh]
	 SCS Total Energy          =    -401.7877761405142110 [Eh]
	-----------------------------------------------------------

  Dipole Moment: [D]
     X:     3.2283      Y:     3.2978      Z:    -1.0377     Total:     4.7301

*** Psi4 exiting successfully. Buy a developer a beer!
