                               Psi4 1.3.2 release

  ==> Input File <==

--------------------------------------------------------------------------
#psi4
#
memory 32 gb

molecule  {
0 1
  O       -2.5211540    -0.5137840     0.0284240
  O       -0.0903380    -1.4616610     0.1717700
  N        0.9259230     0.4056680    -0.6455280
  C       -1.5147550     0.4028960    -0.3432490
  C        2.2509063    -0.1828159    -0.5100025
  C       -0.1583790    -0.2975740    -0.2472510
  C       -1.5844930     1.6236140     0.5658530
  C        2.8531060     0.0659690     0.8699860
  H       -1.6669500     0.7105100    -1.3901450
  H        2.2044940    -1.2028750    -0.7525030
  H        2.8934660     0.3357800    -1.2867330
  H        0.7751368     1.3727988    -0.9006051
  H       -1.3564630     1.3269670     1.5921410
  H       -2.5982940     2.0269070     0.5395510
  H       -0.8919110     2.4138320     0.2596650
  H        2.9042670     1.1289430     1.1200310
  H        2.2261210    -0.4398610     1.6074960
  H        3.8631580    -0.3501450     0.9292180
  H       -2.0326010    -1.3422410     0.2291570
units angstrom
no_reorient  #important for SAPT in psi4, default
symmetry c1  #important for SAPT in psi4, default
}

set PROPERTIES_ORIGIN ["COM"]
properties('MP2/aug-cc-pvtz', properties = ['dipole'])
--------------------------------------------------------------------------

    Molecular point group: c1
  Charge       = 0
  Multiplicity = 1
  Basis Set: AUG-CC-PVTZ
    Blend: AUG-CC-PVTZ
  Basis Set: (AUG-CC-PVTZ AUX)
    Blend: AUG-CC-PVTZ-JKFIT

    Orbital Energies [Eh]
    ---------------------

    Doubly Occupied:

       1A    -20.548559     2A    -20.533159     3A    -15.598835
       4A    -11.357804     5A    -11.298193     6A    -11.274960
       7A    -11.231825     8A    -11.224641     9A     -1.398662
      10A     -1.346883    11A     -1.246276    12A     -1.053118
      13A     -1.012985    14A     -0.902272    15A     -0.850480
      16A     -0.794159    17A     -0.743423    18A     -0.679536
      19A     -0.650369    20A     -0.640990    21A     -0.609951
      22A     -0.601431    23A     -0.575578    24A     -0.563832
      25A     -0.544549    26A     -0.536443    27A     -0.518982
      28A     -0.516357    29A     -0.502362    30A     -0.446206
      31A     -0.435703    32A     -0.403053

  @DF-RHF Final Energy:  -400.08443748737847

   => Energetics <=

    Nuclear Repulsion Energy =            400.7149152588362995
    One-Electron Energy =               -1340.3155513877456997
    Two-Electron Energy =                 539.5161986415308775
    Total Energy =                       -400.0844374873785227
  Basis Set: (AUG-CC-PVTZ AUX)
    Blend: AUG-CC-PVTZ-RI
    Molecular point group: c1

    Geometry (in Angstrom), charge = 0, multiplicity = 1:

       Center              X                  Y                   Z               Mass
    ------------   -----------------  -----------------  -----------------  -----------------
         O           -2.518776815285    -0.509137635806     0.027149151548    15.994914619570
         O           -0.087960815285    -1.457014635806     0.170495151548    15.994914619570
         N            0.928300184715     0.410314364194    -0.646802848452    14.003074004430
         C           -1.512377815285     0.407542364194    -0.344523848452    12.000000000000
         C            2.253283484715    -0.178169535806    -0.511277348452    12.000000000000
         C           -0.156001815285    -0.292927635806    -0.248525848452    12.000000000000
         C           -1.582115815285     1.628260364194     0.564578151548    12.000000000000
         C            2.855483184715     0.070615364194     0.868711151548    12.000000000000
         H           -1.664572815285     0.715156364194    -1.391419848452     1.007825032230
         H            2.206871184715    -1.198228635806    -0.753777848452     1.007825032230
         H            2.895843184715     0.340426364194    -1.288007848452     1.007825032230
         H            0.777513984715     1.377445164194    -0.901879948452     1.007825032230
         H           -1.354085815285     1.331613364194     1.590866151548     1.007825032230
         H           -2.595916815285     2.031553364194     0.538276151548     1.007825032230
         H           -0.889533815285     2.418478364194     0.258390151548     1.007825032230
         H            2.906644184715     1.133589364194     1.118756151548     1.007825032230
         H            2.228498184715    -0.435214635806     1.606221151548     1.007825032230
         H            3.865535184715    -0.345498635806     0.927943151548     1.007825032230
         H           -2.030223815285    -1.337594635806     0.227882151548     1.007825032230

  Basis Set: AUG-CC-PVTZ
    Blend: AUG-CC-PVTZ
  Basis Set: (AUG-CC-PVTZ AUX)
    Blend: AUG-CC-PVTZ-JKFIT
	 Reference Energy          =    -400.0844374873784659 [Eh]
	 Singles Energy            =      -0.0000000000000000 [Eh]
	 Same-Spin Energy          =      -0.4021302088451457 [Eh]
	 Opposite-Spin Energy      =      -1.3077300929408118 [Eh]
	 Correlation Energy        =      -1.7098603017859575 [Eh]
	 Total Energy              =    -401.7942977891644318 [Eh]

	 ================> DF-SCS-MP2 Energies <==================
	-----------------------------------------------------------
	 SCS Same-Spin Scale       =       0.3333333333333333 [-]
	 SCS Opposite-Spin Scale   =       1.2000000000000000 [-]
	 SCS Same-Spin Energy      =      -0.1340434029483819 [Eh]
	 SCS Opposite-Spin Energy  =      -1.5692761115289742 [Eh]
	 SCS Correlation Energy    =      -1.7033195144773561 [Eh]
	 SCS Total Energy          =    -401.7877570018558231 [Eh]
	-----------------------------------------------------------

  Dipole Moment: [D]
     X:     3.0584      Y:     3.1474      Z:    -1.0266     Total:     4.5071

*** Psi4 exiting successfully. Buy a developer a beer!
