                               Psi4 1.4a3.dev225

  ==> Input File <==

--------------------------------------------------------------------------
#psi4
#
memory 32 gb

molecule  {
0 1
  O       -1.5707600    -1.5123310    -0.2332890
  O        0.1382410     1.6075510    -0.3059650
  N        0.6999210    -0.4896500     0.4239600
  C       -1.5456480    -0.0933390    -0.4361750
  C        2.0783650    -0.1398720     0.7271540
  C       -0.1653744     0.4130340    -0.1164164
  C       -2.5680410     0.6261290     0.4306590
  C        2.9727550    -0.1683320    -0.5071050
  H       -1.7217520     0.1422920    -1.4952760
  H        2.0695770     0.8628690     1.1612900
  H        2.4371510    -0.8367210     1.4904630
  H        0.3848370    -1.4513440     0.4597870
  H       -2.3944150     0.3774590     1.4809910
  H       -3.5869010     0.3276930     0.1608950
  H       -2.4702460     1.7050790     0.2962630
  H        2.9788310    -1.1637080    -0.9596270
  H        2.6039680     0.5505970    -1.2414500
  H        4.0012360     0.0983730    -0.2444710
  H       -2.4840080    -1.8129070    -0.3767550
units angstrom
no_reorient  #important for SAPT in psi4, default
symmetry c1  #important for SAPT in psi4, default
}

set PROPERTIES_ORIGIN ["COM"]
properties('MP2/aug-cc-pvtz', properties = ['dipole'])
--------------------------------------------------------------------------

    Molecular point group: c1
  Charge       = 0
  Multiplicity = 1
  Basis Set: AUG-CC-PVTZ
    Blend: AUG-CC-PVTZ
  Basis Set: (AUG-CC-PVTZ AUX)
    Blend: AUG-CC-PVTZ-JKFIT

    Orbital Energies [Eh]
    ---------------------

    Doubly Occupied:

       1A    -20.582803     2A    -20.509793     3A    -15.577967
       4A    -11.345164     5A    -11.302833     6A    -11.259535
       7A    -11.230839     8A    -11.211402     9A     -1.389241
      10A     -1.354890    11A     -1.221236    12A     -1.048864
      13A     -1.009476    14A     -0.905447    15A     -0.843736
      16A     -0.772893    17A     -0.719028    18A     -0.698717
      19A     -0.644121    20A     -0.632410    21A     -0.609905
      22A     -0.586435    23A     -0.580813    24A     -0.559996
      25A     -0.540543    26A     -0.525525    27A     -0.519504
      28A     -0.507211    29A     -0.489858    30A     -0.461609
      31A     -0.417285    32A     -0.382403

  @DF-RHF Final Energy:  -400.08625864876052

   => Energetics <=

    Nuclear Repulsion Energy =            399.8888662296039911
    One-Electron Energy =               -1339.0672919029702825
    Two-Electron Energy =                 539.0921670246057147
    Total Energy =                       -400.0862586487605768
  Basis Set: (AUG-CC-PVTZ AUX)
    Blend: AUG-CC-PVTZ-RI
    Molecular point group: c1

    Geometry (in Angstrom), charge = 0, multiplicity = 1:

       Center              X                  Y                   Z               Mass
    ------------   -----------------  -----------------  -----------------  -----------------
         O           -1.553551204059    -1.521796064267    -0.226683711346    15.994914619570
         O            0.155449795941     1.598085935733    -0.299359711346    15.994914619570
         N            0.717129795941    -0.499115064267     0.430565288654    14.003074004430
         C           -1.528439204059    -0.102804064267    -0.429569711346    12.000000000000
         C            2.095573795941    -0.149337064267     0.733759288654    12.000000000000
         C           -0.148165604059     0.403568935733    -0.109811111346    12.000000000000
         C           -2.550832204059     0.616663935733     0.437264288654    12.000000000000
         C            2.989963795941    -0.177797064267    -0.500499711346    12.000000000000
         H           -1.704543204059     0.132826935733    -1.488670711346     1.007825032230
         H            2.086785795941     0.853403935733     1.167895288654     1.007825032230
         H            2.454359795941    -0.846186064267     1.497068288654     1.007825032230
         H            0.402045795941    -1.460809064267     0.466392288654     1.007825032230
         H           -2.377206204059     0.367993935733     1.487596288654     1.007825032230
         H           -3.569692204059     0.318227935733     0.167500288654     1.007825032230
         H           -2.453037204059     1.695613935733     0.302868288654     1.007825032230
         H            2.996039795941    -1.173173064267    -0.953021711346     1.007825032230
         H            2.621176795941     0.541131935733    -1.234844711346     1.007825032230
         H            4.018444795941     0.088907935733    -0.237865711346     1.007825032230
         H           -2.466799204059    -1.822372064267    -0.370149711346     1.007825032230

  Basis Set: AUG-CC-PVTZ
    Blend: AUG-CC-PVTZ
  Basis Set: (AUG-CC-PVTZ AUX)
    Blend: AUG-CC-PVTZ-JKFIT
	 Reference Energy          =    -400.0862586487605199 [Eh]
	 Singles Energy            =      -0.0000000000000000 [Eh]
	 Same-Spin Energy          =      -0.4019225200053043 [Eh]
	 Opposite-Spin Energy      =      -1.3081050521878894 [Eh]
	 Correlation Energy        =      -1.7100275721931937 [Eh]
	 Total Energy              =    -401.7962862209537320 [Eh]

	 ================> DF-SCS-MP2 Energies <==================
	-----------------------------------------------------------
	 SCS Same-Spin Scale       =       0.3333333333333333 [-]
	 SCS Opposite-Spin Scale   =       1.2000000000000000 [-]
	 SCS Same-Spin Energy      =      -0.1339741733351014 [Eh]
	 SCS Opposite-Spin Energy  =      -1.5697260626254672 [Eh]
	 SCS Correlation Energy    =      -1.7037002359605686 [Eh]
	 SCS Total Energy          =    -401.7899588847211021 [Eh]
	-----------------------------------------------------------

  Dipole Moment: [D]
     X:    -1.2554      Y:    -2.7820      Z:     0.4635     Total:     3.0872

*** Psi4 exiting successfully. Buy a developer a beer!
