                               Psi4 1.3.2 release

  ==> Input File <==

--------------------------------------------------------------------------
#psi4
#
memory 32 gb

molecule  {
0 1
  O       -2.5211540    -0.5137840     0.0284240
  O       -0.0903380    -1.4616610     0.1717700
  N        0.9259230     0.4056680    -0.6455280
  C       -1.4434362     0.4678568    -0.3695877
  C        2.2711600    -0.1378510    -0.5222970
  C       -0.1583790    -0.2975740    -0.2472510
  C       -1.5844930     1.6236140     0.5658530
  C        2.8531060     0.0659690     0.8699860
  H       -1.6669500     0.7105100    -1.3901450
  H        2.2044940    -1.2028750    -0.7525030
  H        2.8934660     0.3357800    -1.2867330
  H        0.8101310     1.3771570    -0.9023240
  H       -1.3564630     1.3269670     1.5921410
  H       -2.5982940     2.0269070     0.5395510
  H       -0.8919110     2.4138320     0.2596650
  H        2.9042670     1.1289430     1.1200310
  H        2.2261210    -0.4398610     1.6074960
  H        3.8631580    -0.3501450     0.9292180
  H       -2.0326010    -1.3422410     0.2291570
units angstrom
no_reorient  #important for SAPT in psi4, default
symmetry c1  #important for SAPT in psi4, default
}

set PROPERTIES_ORIGIN ["COM"]
properties('MP2/aug-cc-pvtz', properties = ['dipole'])
--------------------------------------------------------------------------

    Molecular point group: c1
  Charge       = 0
  Multiplicity = 1
  Basis Set: AUG-CC-PVTZ
    Blend: AUG-CC-PVTZ
  Basis Set: (AUG-CC-PVTZ AUX)
    Blend: AUG-CC-PVTZ-JKFIT

    Orbital Energies [Eh]
    ---------------------

    Doubly Occupied:

       1A    -20.538794     2A    -20.535855     3A    -15.599523
       4A    -11.362261     5A    -11.298312     6A    -11.274054
       7A    -11.234650     8A    -11.225064     9A     -1.395256
      10A     -1.314635    11A     -1.248875    12A     -1.063464
      13A     -1.017306    14A     -0.910393    15A     -0.850916
      16A     -0.796354    17A     -0.736633    18A     -0.675086
      19A     -0.645253    20A     -0.643085    21A     -0.610698
      22A     -0.600143    23A     -0.576158    24A     -0.563217
      25A     -0.539181    26A     -0.529740    27A     -0.521731
      28A     -0.508434    29A     -0.499620    30A     -0.449821
      31A     -0.442653    32A     -0.404764

  @DF-RHF Final Energy:  -400.07629414919819

   => Energetics <=

    Nuclear Repulsion Energy =            400.2292952411422675
    One-Electron Energy =               -1339.3873189555081353
    Two-Electron Energy =                 539.0817295651677341
    Total Energy =                       -400.0762941491981337
  Basis Set: (AUG-CC-PVTZ AUX)
    Blend: AUG-CC-PVTZ-RI
    Molecular point group: c1

    Geometry (in Angstrom), charge = 0, multiplicity = 1:

       Center              X                  Y                   Z               Mass
    ------------   -----------------  -----------------  -----------------  -----------------
         O           -2.528463763739    -0.520441976849     0.031123654538    15.994914619570
         O           -0.097647763739    -1.468318976849     0.174469654538    15.994914619570
         N            0.918613236261     0.399010023151    -0.642828345462    14.003074004430
         C           -1.450745963739     0.461198823151    -0.366888045462    12.000000000000
         C            2.263850236261    -0.144508976849    -0.519597345462    12.000000000000
         C           -0.165688763739    -0.304231976849    -0.244551345462    12.000000000000
         C           -1.591802763739     1.616956023151     0.568552654538    12.000000000000
         C            2.845796236261     0.059311023151     0.872685654538    12.000000000000
         H           -1.674259763739     0.703852023151    -1.387445345462     1.007825032230
         H            2.197184236261    -1.209532976849    -0.749803345462     1.007825032230
         H            2.886156236261     0.329122023151    -1.284033345462     1.007825032230
         H            0.802821236261     1.370499023151    -0.899624345462     1.007825032230
         H           -1.363772763739     1.320309023151     1.594840654538     1.007825032230
         H           -2.605603763739     2.020249023151     0.542250654538     1.007825032230
         H           -0.899220763739     2.407174023151     0.262364654538     1.007825032230
         H            2.896957236261     1.122285023151     1.122730654538     1.007825032230
         H            2.218811236261    -0.446518976849     1.610195654538     1.007825032230
         H            3.855848236261    -0.356802976849     0.931917654538     1.007825032230
         H           -2.039910763739    -1.348898976849     0.231856654538     1.007825032230

  Basis Set: AUG-CC-PVTZ
    Blend: AUG-CC-PVTZ
  Basis Set: (AUG-CC-PVTZ AUX)
    Blend: AUG-CC-PVTZ-JKFIT
	 Reference Energy          =    -400.0762941491981906 [Eh]
	 Singles Energy            =      -0.0000000000000000 [Eh]
	 Same-Spin Energy          =      -0.4029183043713350 [Eh]
	 Opposite-Spin Energy      =      -1.3104627292260806 [Eh]
	 Correlation Energy        =      -1.7133810335974156 [Eh]
	 Total Energy              =    -401.7896751827956336 [Eh]

	 ================> DF-SCS-MP2 Energies <==================
	-----------------------------------------------------------
	 SCS Same-Spin Scale       =       0.3333333333333333 [-]
	 SCS Opposite-Spin Scale   =       1.2000000000000000 [-]
	 SCS Same-Spin Energy      =      -0.1343061014571117 [Eh]
	 SCS Opposite-Spin Energy  =      -1.5725552750712968 [Eh]
	 SCS Correlation Energy    =      -1.7068613765284084 [Eh]
	 SCS Total Energy          =    -401.7831555257266132 [Eh]
	-----------------------------------------------------------

  Dipole Moment: [D]
     X:     3.2874      Y:     3.3912      Z:    -1.0885     Total:     4.8469

*** Psi4 exiting successfully. Buy a developer a beer!
