                               Psi4 1.3.2 release

  ==> Input File <==

--------------------------------------------------------------------------
#psi4
#
memory 32 gb

molecule  {
0 1
  O       -2.5211540    -0.5137840     0.0284240
  O       -0.1117836    -1.4617114     0.1745543
  N        0.9119411     0.4240297    -0.6504726
  C       -1.5147550     0.4028960    -0.3432490
  C        2.2711600    -0.1378510    -0.5222970
  C       -0.1583790    -0.2975740    -0.2472510
  C       -1.5844930     1.6236140     0.5658530
  C        2.8531060     0.0659690     0.8699860
  H       -1.6669500     0.7105100    -1.3901450
  H        2.2044940    -1.2028750    -0.7525030
  H        2.8934660     0.3357800    -1.2867330
  H        0.8101310     1.3771570    -0.9023240
  H       -1.3564630     1.3269670     1.5921410
  H       -2.5982940     2.0269070     0.5395510
  H       -0.8919110     2.4138320     0.2596650
  H        2.9042670     1.1289430     1.1200310
  H        2.2261210    -0.4398610     1.6074960
  H        3.8631580    -0.3501450     0.9292180
  H       -2.0326010    -1.3422410     0.2291570
units angstrom
no_reorient  #important for SAPT in psi4, default
symmetry c1  #important for SAPT in psi4, default
}

set PROPERTIES_ORIGIN ["COM"]
properties('MP2/aug-cc-pvtz', properties = ['dipole'])
--------------------------------------------------------------------------

    Molecular point group: c1
  Charge       = 0
  Multiplicity = 1
  Basis Set: AUG-CC-PVTZ
    Blend: AUG-CC-PVTZ
  Basis Set: (AUG-CC-PVTZ AUX)
    Blend: AUG-CC-PVTZ-JKFIT

    Orbital Energies [Eh]
    ---------------------

    Doubly Occupied:

       1A    -20.546268     2A    -20.534830     3A    -15.598696
       4A    -11.359664     5A    -11.295725     6A    -11.276337
       7A    -11.230276     8A    -11.225747     9A     -1.398363
      10A     -1.344529    11A     -1.246736    12A     -1.052008
      13A     -1.013275    14A     -0.901708    15A     -0.848920
      16A     -0.800697    17A     -0.742769    18A     -0.676201
      19A     -0.646538    20A     -0.642341    21A     -0.611649
      22A     -0.601827    23A     -0.574400    24A     -0.562227
      25A     -0.543998    26A     -0.534296    27A     -0.521670
      28A     -0.513966    29A     -0.503646    30A     -0.444678
      31A     -0.435238    32A     -0.406119

  @DF-RHF Final Energy:  -400.08725316854799

   => Energetics <=

    Nuclear Repulsion Energy =            400.2794544734185820
    One-Electron Energy =               -1339.4627296486191881
    Two-Electron Energy =                 539.0960220066526745
    Total Energy =                       -400.0872531685479316
  Basis Set: (AUG-CC-PVTZ AUX)
    Blend: AUG-CC-PVTZ-RI
    Molecular point group: c1

    Geometry (in Angstrom), charge = 0, multiplicity = 1:

       Center              X                  Y                   Z               Mass
    ------------   -----------------  -----------------  -----------------  -----------------
         O           -2.516551841223    -0.515973066153     0.028635082767    15.994914619570
         O           -0.107181441223    -1.463900466153     0.174765382767    15.994914619570
         N            0.916543258777     0.421840633847    -0.650261517233    14.003074004430
         C           -1.510152841223     0.400706933847    -0.343037917233    12.000000000000
         C            2.275762158777    -0.140040066153    -0.522085917233    12.000000000000
         C           -0.153776841223    -0.299763066153    -0.247039917233    12.000000000000
         C           -1.579890841223     1.621424933847     0.566064082767    12.000000000000
         C            2.857708158777     0.063779933847     0.870197082767    12.000000000000
         H           -1.662347841223     0.708320933847    -1.389933917233     1.007825032230
         H            2.209096158777    -1.205064066153    -0.752291917233     1.007825032230
         H            2.898068158777     0.333590933847    -1.286521917233     1.007825032230
         H            0.814733158777     1.374967933847    -0.902112917233     1.007825032230
         H           -1.351860841223     1.324777933847     1.592352082767     1.007825032230
         H           -2.593691841223     2.024717933847     0.539762082767     1.007825032230
         H           -0.887308841223     2.411642933847     0.259876082767     1.007825032230
         H            2.908869158777     1.126753933847     1.120242082767     1.007825032230
         H            2.230723158777    -0.442050066153     1.607707082767     1.007825032230
         H            3.867760158777    -0.352334066153     0.929429082767     1.007825032230
         H           -2.027998841223    -1.344430066153     0.229368082767     1.007825032230

  Basis Set: AUG-CC-PVTZ
    Blend: AUG-CC-PVTZ
  Basis Set: (AUG-CC-PVTZ AUX)
    Blend: AUG-CC-PVTZ-JKFIT
	 Reference Energy          =    -400.0872531685479885 [Eh]
	 Singles Energy            =      -0.0000000000000000 [Eh]
	 Same-Spin Energy          =      -0.4019388021852395 [Eh]
	 Opposite-Spin Energy      =      -1.3074633584142186 [Eh]
	 Correlation Energy        =      -1.7094021605994580 [Eh]
	 Total Energy              =    -401.7966553291474270 [Eh]

	 ================> DF-SCS-MP2 Energies <==================
	-----------------------------------------------------------
	 SCS Same-Spin Scale       =       0.3333333333333333 [-]
	 SCS Opposite-Spin Scale   =       1.2000000000000000 [-]
	 SCS Same-Spin Energy      =      -0.1339796007284131 [Eh]
	 SCS Opposite-Spin Energy  =      -1.5689560300970622 [Eh]
	 SCS Correlation Energy    =      -1.7029356308254753 [Eh]
	 SCS Total Energy          =    -401.7901887993734817 [Eh]
	-----------------------------------------------------------

  Dipole Moment: [D]
     X:     3.2281      Y:     3.1393      Z:    -1.0384     Total:     4.6210

*** Psi4 exiting successfully. Buy a developer a beer!
