                               Psi4 1.3.2 release

  ==> Input File <==

--------------------------------------------------------------------------
#psi4
#
memory 32 gb

molecule  {
0 1
  O       -2.5211540    -0.5137840     0.0284240
  O       -0.0903380    -1.4616610     0.1717700
  N        0.9259230     0.4056680    -0.6455280
  C       -1.5495893     0.4370384    -0.3501004
  C        2.2711600    -0.1378510    -0.5222970
  C       -0.1583790    -0.2975740    -0.2472510
  C       -1.5844930     1.6236140     0.5658530
  C        2.8531060     0.0659690     0.8699860
  H       -1.6669500     0.7105100    -1.3901450
  H        2.2044940    -1.2028750    -0.7525030
  H        2.8934660     0.3357800    -1.2867330
  H        0.8101310     1.3771570    -0.9023240
  H       -1.3564630     1.3269670     1.5921410
  H       -2.5982940     2.0269070     0.5395510
  H       -0.8919110     2.4138320     0.2596650
  H        2.9042670     1.1289430     1.1200310
  H        2.2261210    -0.4398610     1.6074960
  H        3.8631580    -0.3501450     0.9292180
  H       -2.0624794    -1.3573549     0.2365694
units angstrom
no_reorient  #important for SAPT in psi4, default
symmetry c1  #important for SAPT in psi4, default
}

set PROPERTIES_ORIGIN ["COM"]
properties('MP2/aug-cc-pvtz', properties = ['dipole'])
--------------------------------------------------------------------------

    Molecular point group: c1
  Charge       = 0
  Multiplicity = 1
  Basis Set: AUG-CC-PVTZ
    Blend: AUG-CC-PVTZ
  Basis Set: (AUG-CC-PVTZ AUX)
    Blend: AUG-CC-PVTZ-JKFIT

    Orbital Energies [Eh]
    ---------------------

    Doubly Occupied:

       1A    -20.546871     2A    -20.531946     3A    -15.597497
       4A    -11.357966     5A    -11.299064     6A    -11.272731
       7A    -11.230378     8A    -11.223731     9A     -1.394204
      10A     -1.344788    11A     -1.244064    12A     -1.052705
      13A     -1.015309    14A     -0.898118    15A     -0.848225
      16A     -0.793691    17A     -0.740233    18A     -0.678289
      19A     -0.651122    20A     -0.640747    21A     -0.609804
      22A     -0.598394    23A     -0.581885    24A     -0.563799
      25A     -0.541912    26A     -0.536201    27A     -0.520453
      28A     -0.509201    29A     -0.500743    30A     -0.450794
      31A     -0.427522    32A     -0.402401

  @DF-RHF Final Energy:  -400.08554277480789

   => Energetics <=

    Nuclear Repulsion Energy =            399.7858350049149294
    One-Electron Energy =               -1338.5331788419948680
    Two-Electron Energy =                 538.6618010622720476
    Total Energy =                       -400.0855427748078910
  Basis Set: (AUG-CC-PVTZ AUX)
    Blend: AUG-CC-PVTZ-RI
    Molecular point group: c1

    Geometry (in Angstrom), charge = 0, multiplicity = 1:

       Center              X                  Y                   Z               Mass
    ------------   -----------------  -----------------  -----------------  -----------------
         O           -2.517326415130    -0.517153145913     0.029062498853    15.994914619570
         O           -0.086510415130    -1.465030145913     0.172408498853    15.994914619570
         N            0.929750584870     0.402298854087    -0.644889501147    14.003074004430
         C           -1.545761715130     0.433669254087    -0.349461901147    12.000000000000
         C            2.274987584870    -0.141220145913    -0.521658501147    12.000000000000
         C           -0.154551415130    -0.300943145913    -0.246612501147    12.000000000000
         C           -1.580665415130     1.620244854087     0.566491498853    12.000000000000
         C            2.856933584870     0.062599854087     0.870624498853    12.000000000000
         H           -1.663122415130     0.707140854087    -1.389506501147     1.007825032230
         H            2.208321584870    -1.206244145913    -0.751864501147     1.007825032230
         H            2.897293584870     0.332410854087    -1.286094501147     1.007825032230
         H            0.813958584870     1.373787854087    -0.901685501147     1.007825032230
         H           -1.352635415130     1.323597854087     1.592779498853     1.007825032230
         H           -2.594466415130     2.023537854087     0.540189498853     1.007825032230
         H           -0.888083415130     2.410462854087     0.260303498853     1.007825032230
         H            2.908094584870     1.125573854087     1.120669498853     1.007825032230
         H            2.229948584870    -0.443230145913     1.608134498853     1.007825032230
         H            3.866985584870    -0.353514145913     0.929856498853     1.007825032230
         H           -2.058651815130    -1.360724045913     0.237207898853     1.007825032230

  Basis Set: AUG-CC-PVTZ
    Blend: AUG-CC-PVTZ
  Basis Set: (AUG-CC-PVTZ AUX)
    Blend: AUG-CC-PVTZ-JKFIT
	 Reference Energy          =    -400.0855427748078910 [Eh]
	 Singles Energy            =      -0.0000000000000000 [Eh]
	 Same-Spin Energy          =      -0.4019980006514133 [Eh]
	 Opposite-Spin Energy      =      -1.3074447157864375 [Eh]
	 Correlation Energy        =      -1.7094427164378510 [Eh]
	 Total Energy              =    -401.7949854912457681 [Eh]

	 ================> DF-SCS-MP2 Energies <==================
	-----------------------------------------------------------
	 SCS Same-Spin Scale       =       0.3333333333333333 [-]
	 SCS Opposite-Spin Scale   =       1.2000000000000000 [-]
	 SCS Same-Spin Energy      =      -0.1339993335504711 [Eh]
	 SCS Opposite-Spin Energy  =      -1.5689336589437251 [Eh]
	 SCS Correlation Energy    =      -1.7029329924941963 [Eh]
	 SCS Total Energy          =    -401.7884757673020886 [Eh]
	-----------------------------------------------------------

  Dipole Moment: [D]
     X:     3.0452      Y:     3.1792      Z:    -1.0353     Total:     4.5224

*** Psi4 exiting successfully. Buy a developer a beer!
