                               Psi4 1.3.2 release

  ==> Input File <==

--------------------------------------------------------------------------
#psi4
#
memory 32 gb

molecule  {
0 1
  O       -2.5211540    -0.5137840     0.0284240
  O       -0.0903380    -1.4616610     0.1717700
  N        0.9259230     0.4056680    -0.6455280
  C       -1.5233502     0.4115379    -0.3450046
  C        2.2711600    -0.1378510    -0.5222970
  C       -0.1583790    -0.2975740    -0.2472510
  C       -1.5844930     1.6236140     0.5658530
  C        2.8531060     0.0659690     0.8699860
  H       -1.6669500     0.7105100    -1.3901450
  H        2.2044940    -1.2028750    -0.7525030
  H        2.8934660     0.3357800    -1.2867330
  H        0.8101310     1.3771570    -0.9023240
  H       -1.3564630     1.3269670     1.5921410
  H       -2.5982940     2.0269070     0.5395510
  H       -0.8919110     2.4138320     0.2596650
  H        2.9042670     1.1289430     1.1200310
  H        2.2261210    -0.4398610     1.6074960
  H        3.8631580    -0.3501450     0.9292180
  H       -2.0400162    -1.3461148     0.2310334
units angstrom
no_reorient  #important for SAPT in psi4, default
symmetry c1  #important for SAPT in psi4, default
}

set PROPERTIES_ORIGIN ["COM"]
properties('MP2/aug-cc-pvtz', properties = ['dipole'])
--------------------------------------------------------------------------

    Molecular point group: c1
  Charge       = 0
  Multiplicity = 1
  Basis Set: AUG-CC-PVTZ
    Blend: AUG-CC-PVTZ
  Basis Set: (AUG-CC-PVTZ AUX)
    Blend: AUG-CC-PVTZ-JKFIT

    Orbital Energies [Eh]
    ---------------------

    Doubly Occupied:

       1A    -20.548083     2A    -20.533101     3A    -15.598414
       4A    -11.358951     5A    -11.298355     6A    -11.273499
       7A    -11.231101     8A    -11.224207     9A     -1.397362
      10A     -1.346232    11A     -1.245482    12A     -1.052782
      13A     -1.013519    14A     -0.901725    15A     -0.849080
      16A     -0.794162    17A     -0.743260    18A     -0.677397
      19A     -0.649791    20A     -0.641843    21A     -0.610868
      22A     -0.599158    23A     -0.577198    24A     -0.563531
      25A     -0.543379    26A     -0.535265    27A     -0.520882
      28A     -0.513539    29A     -0.502230    30A     -0.447301
      31A     -0.434166    32A     -0.403228

  @DF-RHF Final Energy:  -400.08774096374998

   => Energetics <=

    Nuclear Repulsion Energy =            400.2754188671521547
    One-Electron Energy =               -1339.4681364644018231
    Two-Electron Energy =                 539.1049766334996320
    Total Energy =                       -400.0877409637499795
  Basis Set: (AUG-CC-PVTZ AUX)
    Blend: AUG-CC-PVTZ-RI
    Molecular point group: c1

    Geometry (in Angstrom), charge = 0, multiplicity = 1:

       Center              X                  Y                   Z               Mass
    ------------   -----------------  -----------------  -----------------  -----------------
         O           -2.520209154451    -0.514636229987     0.028587859586    15.994914619570
         O           -0.089393154451    -1.462513229987     0.171933859586    15.994914619570
         N            0.926867845549     0.404815770013    -0.645364140414    14.003074004430
         C           -1.522405354451     0.410685670013    -0.344840740414    12.000000000000
         C            2.272104845549    -0.138703229987    -0.522133140414    12.000000000000
         C           -0.157434154451    -0.298426229987    -0.247087140414    12.000000000000
         C           -1.583548154451     1.622761770013     0.566016859586    12.000000000000
         C            2.854050845549     0.065116770013     0.870149859586    12.000000000000
         H           -1.666005154451     0.709657770013    -1.389981140414     1.007825032230
         H            2.205438845549    -1.203727229987    -0.752339140414     1.007825032230
         H            2.894410845549     0.334927770013    -1.286569140414     1.007825032230
         H            0.811075845549     1.376304770013    -0.902160140414     1.007825032230
         H           -1.355518154451     1.326114770013     1.592304859586     1.007825032230
         H           -2.597349154451     2.026054770013     0.539714859586     1.007825032230
         H           -0.890966154451     2.412979770013     0.259828859586     1.007825032230
         H            2.905211845549     1.128090770013     1.120194859586     1.007825032230
         H            2.227065845549    -0.440713229987     1.607659859586     1.007825032230
         H            3.864102845549    -0.350997229987     0.929381859586     1.007825032230
         H           -2.039071354451    -1.346967029987     0.231197259586     1.007825032230

  Basis Set: AUG-CC-PVTZ
    Blend: AUG-CC-PVTZ
  Basis Set: (AUG-CC-PVTZ AUX)
    Blend: AUG-CC-PVTZ-JKFIT
	 Reference Energy          =    -400.0877409637499795 [Eh]
	 Singles Energy            =      -0.0000000000000000 [Eh]
	 Same-Spin Energy          =      -0.4020613882449769 [Eh]
	 Opposite-Spin Energy      =      -1.3075486435335233 [Eh]
	 Correlation Energy        =      -1.7096100317785003 [Eh]
	 Total Energy              =    -401.7973509955284612 [Eh]

	 ================> DF-SCS-MP2 Energies <==================
	-----------------------------------------------------------
	 SCS Same-Spin Scale       =       0.3333333333333333 [-]
	 SCS Opposite-Spin Scale   =       1.2000000000000000 [-]
	 SCS Same-Spin Energy      =      -0.1340204627483256 [Eh]
	 SCS Opposite-Spin Energy  =      -1.5690583722402278 [Eh]
	 SCS Correlation Energy    =      -1.7030788349885535 [Eh]
	 SCS Total Energy          =    -401.7908197987385392 [Eh]
	-----------------------------------------------------------

  Dipole Moment: [D]
     X:     3.0849      Y:     3.1753      Z:    -1.0424     Total:     4.5482

*** Psi4 exiting successfully. Buy a developer a beer!
