                               Psi4 1.4a3.dev225

  ==> Input File <==

--------------------------------------------------------------------------
#psi4
#
memory 32 gb

molecule  {
0 1
  O       -1.5707600    -1.5123310    -0.2332890
  O        0.1382410     1.6075510    -0.3059650
  N        0.6999210    -0.4896500     0.4239600
  C       -1.5456480    -0.0933390    -0.4361750
  C        2.0783650    -0.1398720     0.7271540
  C       -0.1783158     0.4533615    -0.1319721
  C       -2.5680410     0.6261290     0.4306590
  C        2.9727550    -0.1683320    -0.5071050
  H       -1.7217520     0.1422920    -1.4952760
  H        2.0695770     0.8628690     1.1612900
  H        2.4371510    -0.8367210     1.4904630
  H        0.3848370    -1.4513440     0.4597870
  H       -2.3944150     0.3774590     1.4809910
  H       -3.5869010     0.3276930     0.1608950
  H       -2.4702460     1.7050790     0.2962630
  H        2.9788310    -1.1637080    -0.9596270
  H        2.6039680     0.5505970    -1.2414500
  H        4.0012360     0.0983730    -0.2444710
  H       -2.4840080    -1.8129070    -0.3767550
units angstrom
no_reorient  #important for SAPT in psi4, default
symmetry c1  #important for SAPT in psi4, default
}

set PROPERTIES_ORIGIN ["COM"]
properties('MP2/aug-cc-pvtz', properties = ['dipole'])
--------------------------------------------------------------------------

    Molecular point group: c1
  Charge       = 0
  Multiplicity = 1
  Basis Set: AUG-CC-PVTZ
    Blend: AUG-CC-PVTZ
  Basis Set: (AUG-CC-PVTZ AUX)
    Blend: AUG-CC-PVTZ-JKFIT

    Orbital Energies [Eh]
    ---------------------

    Doubly Occupied:

       1A    -20.583212     2A    -20.519975     3A    -15.569037
       4A    -11.346698     5A    -11.302906     6A    -11.255203
       7A    -11.231794     8A    -11.208765     9A     -1.394702
      10A     -1.374301    11A     -1.209868    12A     -1.050100
      13A     -1.003617    14A     -0.904499    15A     -0.838616
      16A     -0.765334    17A     -0.716790    18A     -0.702438
      19A     -0.644425    20A     -0.630902    21A     -0.614639
      22A     -0.589113    23A     -0.580925    24A     -0.559908
      25A     -0.542705    26A     -0.526947    27A     -0.520736
      28A     -0.511853    29A     -0.488122    30A     -0.462900
      31A     -0.420276    32A     -0.379408

  @DF-RHF Final Energy:  -400.08557048789561

   => Energetics <=

    Nuclear Repulsion Energy =            399.8256449457060739
    One-Electron Energy =               -1338.9209995201294987
    Two-Electron Energy =                 539.0097840865279295
    Total Energy =                       -400.0855704878955521
  Basis Set: (AUG-CC-PVTZ AUX)
    Blend: AUG-CC-PVTZ-RI
    Molecular point group: c1

    Geometry (in Angstrom), charge = 0, multiplicity = 1:

       Center              X                  Y                   Z               Mass
    ------------   -----------------  -----------------  -----------------  -----------------
         O           -1.552224776361    -1.525929427966    -0.225089331191    15.994914619570
         O            0.156776223639     1.593952572034    -0.297765331191    15.994914619570
         N            0.718456223639    -0.503248427966     0.432159668809    14.003074004430
         C           -1.527112776361    -0.106937427966    -0.427975331191    12.000000000000
         C            2.096900223639    -0.153470427966     0.735353668809    12.000000000000
         C           -0.159780576361     0.439763072034    -0.123772431191    12.000000000000
         C           -2.549505776361     0.612530572034     0.438858668809    12.000000000000
         C            2.991290223639    -0.181930427966    -0.498905331191    12.000000000000
         H           -1.703216776361     0.128693572034    -1.487076331191     1.007825032230
         H            2.088112223639     0.849270572034     1.169489668809     1.007825032230
         H            2.455686223639    -0.850319427966     1.498662668809     1.007825032230
         H            0.403372223639    -1.464942427966     0.467986668809     1.007825032230
         H           -2.375879776361     0.363860572034     1.489190668809     1.007825032230
         H           -3.568365776361     0.314094572034     0.169094668809     1.007825032230
         H           -2.451710776361     1.691480572034     0.304462668809     1.007825032230
         H            2.997366223639    -1.177306427966    -0.951427331191     1.007825032230
         H            2.622503223639     0.536998572034    -1.233250331191     1.007825032230
         H            4.019771223639     0.084774572034    -0.236271331191     1.007825032230
         H           -2.465472776361    -1.826505427966    -0.368555331191     1.007825032230

  Basis Set: AUG-CC-PVTZ
    Blend: AUG-CC-PVTZ
  Basis Set: (AUG-CC-PVTZ AUX)
    Blend: AUG-CC-PVTZ-JKFIT
	 Reference Energy          =    -400.0855704878956089 [Eh]
	 Singles Energy            =      -0.0000000000000000 [Eh]
	 Same-Spin Energy          =      -0.4013967510088327 [Eh]
	 Opposite-Spin Energy      =      -1.3071047017825506 [Eh]
	 Correlation Energy        =      -1.7085014527913831 [Eh]
	 Total Energy              =    -401.7940719406869903 [Eh]

	 ================> DF-SCS-MP2 Energies <==================
	-----------------------------------------------------------
	 SCS Same-Spin Scale       =       0.3333333333333333 [-]
	 SCS Opposite-Spin Scale   =       1.2000000000000000 [-]
	 SCS Same-Spin Energy      =      -0.1337989170029442 [Eh]
	 SCS Opposite-Spin Energy  =      -1.5685256421390605 [Eh]
	 SCS Correlation Energy    =      -1.7023245591420046 [Eh]
	 SCS Total Energy          =    -401.7878950470376367 [Eh]
	-----------------------------------------------------------

  Dipole Moment: [D]
     X:    -1.4444      Y:    -2.4767      Z:     0.3454     Total:     2.8879

*** Psi4 exiting successfully. Buy a developer a beer!
