                               Psi4 1.3.2 release

  ==> Input File <==

--------------------------------------------------------------------------
#psi4
#
memory 32 gb

molecule  {
0 1
  O       -2.5211540    -0.5137840     0.0284240
  O       -0.0903380    -1.4616610     0.1717700
  N        0.9259230     0.4056680    -0.6455280
  C       -1.5147550     0.4028960    -0.3432490
  C        2.2711600    -0.1378510    -0.5222970
  C       -0.1447072    -0.3165862    -0.2442992
  C       -1.5844930     1.6236140     0.5658530
  C        2.8531060     0.0659690     0.8699860
  H       -1.6669500     0.7105100    -1.3901450
  H        2.2044940    -1.2028750    -0.7525030
  H        2.8934660     0.3357800    -1.2867330
  H        0.8274203     1.3781512    -0.9057519
  H       -1.3564630     1.3269670     1.5921410
  H       -2.5982940     2.0269070     0.5395510
  H       -0.8919110     2.4138320     0.2596650
  H        2.9042670     1.1289430     1.1200310
  H        2.2261210    -0.4398610     1.6074960
  H        3.8631580    -0.3501450     0.9292180
  H       -2.0326010    -1.3422410     0.2291570
units angstrom
no_reorient  #important for SAPT in psi4, default
symmetry c1  #important for SAPT in psi4, default
}

set PROPERTIES_ORIGIN ["COM"]
properties('MP2/aug-cc-pvtz', properties = ['dipole'])
--------------------------------------------------------------------------

    Molecular point group: c1
  Charge       = 0
  Multiplicity = 1
  Basis Set: AUG-CC-PVTZ
    Blend: AUG-CC-PVTZ
  Basis Set: (AUG-CC-PVTZ AUX)
    Blend: AUG-CC-PVTZ-JKFIT

    Orbital Energies [Eh]
    ---------------------

    Doubly Occupied:

       1A    -20.547680     2A    -20.536503     3A    -15.597170
       4A    -11.358089     5A    -11.296842     6A    -11.272763
       7A    -11.229862     8A    -11.224304     9A     -1.407627
      10A     -1.348397    11A     -1.247534    12A     -1.049654
      13A     -1.011449    14A     -0.900037    15A     -0.846771
      16A     -0.796888    17A     -0.742739    18A     -0.677207
      19A     -0.647641    20A     -0.645681    21A     -0.611471
      22A     -0.601831    23A     -0.575549    24A     -0.562203
      25A     -0.543974    26A     -0.534213    27A     -0.524682
      28A     -0.516676    29A     -0.503316    30A     -0.445195
      31A     -0.433448    32A     -0.404578

  @DF-RHF Final Energy:  -400.08860836803717

   => Energetics <=

    Nuclear Repulsion Energy =            400.5011867126240190
    One-Electron Energy =               -1339.8956419635405837
    Two-Electron Energy =                 539.3058468828793366
    Total Energy =                       -400.0886083680371712
  Basis Set: (AUG-CC-PVTZ AUX)
    Blend: AUG-CC-PVTZ-RI
    Molecular point group: c1

    Geometry (in Angstrom), charge = 0, multiplicity = 1:

       Center              X                  Y                   Z               Mass
    ------------   -----------------  -----------------  -----------------  -----------------
         O           -2.522704067005    -0.511843729474     0.028151034852    15.994914619570
         O           -0.091888067005    -1.459720729474     0.171497034852    15.994914619570
         N            0.924372932995     0.407608270526    -0.645800965148    14.003074004430
         C           -1.516305067005     0.404836270526    -0.343521965148    12.000000000000
         C            2.269609932995    -0.135910729474    -0.522569965148    12.000000000000
         C           -0.146257267005    -0.314645929474    -0.244572165148    12.000000000000
         C           -1.586043067005     1.625554270526     0.565580034852    12.000000000000
         C            2.851555932995     0.067909270526     0.869713034852    12.000000000000
         H           -1.668500067005     0.712450270526    -1.390417965148     1.007825032230
         H            2.202943932995    -1.200934729474    -0.752775965148     1.007825032230
         H            2.891915932995     0.337720270526    -1.287005965148     1.007825032230
         H            0.825870232995     1.380091470526    -0.906024865148     1.007825032230
         H           -1.358013067005     1.328907270526     1.591868034852     1.007825032230
         H           -2.599844067005     2.028847270526     0.539278034852     1.007825032230
         H           -0.893461067005     2.415772270526     0.259392034852     1.007825032230
         H            2.902716932995     1.130883270526     1.119758034852     1.007825032230
         H            2.224570932995    -0.437920729474     1.607223034852     1.007825032230
         H            3.861607932995    -0.348204729474     0.928945034852     1.007825032230
         H           -2.034151067005    -1.340300729474     0.228884034852     1.007825032230

  Basis Set: AUG-CC-PVTZ
    Blend: AUG-CC-PVTZ
  Basis Set: (AUG-CC-PVTZ AUX)
    Blend: AUG-CC-PVTZ-JKFIT
	 Reference Energy          =    -400.0886083680371712 [Eh]
	 Singles Energy            =      -0.0000000000000000 [Eh]
	 Same-Spin Energy          =      -0.4016509429120623 [Eh]
	 Opposite-Spin Energy      =      -1.3067512346453565 [Eh]
	 Correlation Energy        =      -1.7084021775574187 [Eh]
	 Total Energy              =    -401.7970105455946168 [Eh]

	 ================> DF-SCS-MP2 Energies <==================
	-----------------------------------------------------------
	 SCS Same-Spin Scale       =       0.3333333333333333 [-]
	 SCS Opposite-Spin Scale   =       1.2000000000000000 [-]
	 SCS Same-Spin Energy      =      -0.1338836476373541 [Eh]
	 SCS Opposite-Spin Energy  =      -1.5681014815744276 [Eh]
	 SCS Correlation Energy    =      -1.7019851292117818 [Eh]
	 SCS Total Energy          =    -401.7905934972489490 [Eh]
	-----------------------------------------------------------

  Dipole Moment: [D]
     X:     3.1367      Y:     3.0764      Z:    -1.0290     Total:     4.5124

*** Psi4 exiting successfully. Buy a developer a beer!
