                               Psi4 1.3.2 release

  ==> Input File <==

--------------------------------------------------------------------------
#psi4
#
memory 32 gb

molecule  {
0 1
  O       -2.5211540    -0.5137840     0.0284240
  O       -0.0903380    -1.4616610     0.1717700
  N        0.9259230     0.4056680    -0.6455280
  C       -1.5147550     0.4028960    -0.3432490
  C        2.2711600    -0.1378510    -0.5222970
  C        0.0019777    -0.1935720    -0.3061519
  C       -1.5844930     1.6236140     0.5658530
  C        2.8531060     0.0659690     0.8699860
  H       -1.6669500     0.7105100    -1.3901450
  H        2.2044940    -1.2028750    -0.7525030
  H        2.8934660     0.3357800    -1.2867330
  H        0.8101310     1.3771570    -0.9023240
  H       -1.3564630     1.3269670     1.5921410
  H       -2.5982940     2.0269070     0.5395510
  H       -0.8919110     2.4138320     0.2596650
  H        2.9042670     1.1289430     1.1200310
  H        2.2261210    -0.4398610     1.6074960
  H        3.8631580    -0.3501450     0.9292180
  H       -2.0326010    -1.3422410     0.2291570
units angstrom
no_reorient  #important for SAPT in psi4, default
symmetry c1  #important for SAPT in psi4, default
}

set PROPERTIES_ORIGIN ["COM"]
properties('MP2/aug-cc-pvtz', properties = ['dipole'])
--------------------------------------------------------------------------

    Molecular point group: c1
  Charge       = 0
  Multiplicity = 1
  Basis Set: AUG-CC-PVTZ
    Blend: AUG-CC-PVTZ
  Basis Set: (AUG-CC-PVTZ AUX)
    Blend: AUG-CC-PVTZ-JKFIT

    Orbital Energies [Eh]
    ---------------------

    Doubly Occupied:

       1A    -20.540480     2A    -20.493883     3A    -15.630059
       4A    -11.340506     5A    -11.297277     6A    -11.291928
       7A    -11.237692     8A    -11.225337     9A     -1.395513
      10A     -1.345127    11A     -1.244200    12A     -1.070270
      13A     -1.017155    14A     -0.917364    15A     -0.848129
      16A     -0.844319    17A     -0.733866    18A     -0.684699
      19A     -0.654283    20A     -0.638905    21A     -0.627703
      22A     -0.588000    23A     -0.567574    24A     -0.558424
      25A     -0.555565    26A     -0.533255    27A     -0.524802
      28A     -0.515340    29A     -0.472452    30A     -0.435057
      31A     -0.402120    32A     -0.395011

  @DF-RHF Final Energy:  -400.01384219407731

   => Energetics <=

    Nuclear Repulsion Energy =            400.9071875741461781
    One-Electron Energy =               -1340.5894659457601392
    Two-Electron Energy =                 539.6684361775365915
    Total Energy =                       -400.0138421940773696
  Basis Set: (AUG-CC-PVTZ AUX)
    Blend: AUG-CC-PVTZ-RI
    Molecular point group: c1

    Geometry (in Angstrom), charge = 0, multiplicity = 1:

       Center              X                  Y                   Z               Mass
    ------------   -----------------  -----------------  -----------------  -----------------
         O           -2.537589695762    -0.524443501338     0.034461114470    15.994914619570
         O           -0.106773695762    -1.472320501338     0.177807114470    15.994914619570
         N            0.909487304238     0.395008498662    -0.639490885530    14.003074004430
         C           -1.531190695762     0.392236498662    -0.337211885530    12.000000000000
         C            2.254724304238    -0.148510501338    -0.516259885530    12.000000000000
         C           -0.014457995762    -0.204231501338    -0.300114785530    12.000000000000
         C           -1.600928695762     1.612954498662     0.571890114470    12.000000000000
         C            2.836670304238     0.055309498662     0.876023114470    12.000000000000
         H           -1.683385695762     0.699850498662    -1.384107885530     1.007825032230
         H            2.188058304238    -1.213534501338    -0.746465885530     1.007825032230
         H            2.877030304238     0.325120498662    -1.280695885530     1.007825032230
         H            0.793695304238     1.366497498662    -0.896286885530     1.007825032230
         H           -1.372898695762     1.316307498662     1.598178114470     1.007825032230
         H           -2.614729695762     2.016247498662     0.545588114470     1.007825032230
         H           -0.908346695762     2.403172498662     0.265702114470     1.007825032230
         H            2.887831304238     1.118283498662     1.126068114470     1.007825032230
         H            2.209685304238    -0.450520501338     1.613533114470     1.007825032230
         H            3.846722304238    -0.360804501338     0.935255114470     1.007825032230
         H           -2.049036695762    -1.352900501338     0.235194114470     1.007825032230

  Basis Set: AUG-CC-PVTZ
    Blend: AUG-CC-PVTZ
  Basis Set: (AUG-CC-PVTZ AUX)
    Blend: AUG-CC-PVTZ-JKFIT
	 Reference Energy          =    -400.0138421940773128 [Eh]
	 Singles Energy            =      -0.0000000000000000 [Eh]
	 Same-Spin Energy          =      -0.4037624551815384 [Eh]
	 Opposite-Spin Energy      =      -1.3104293264268279 [Eh]
	 Correlation Energy        =      -1.7141917816083663 [Eh]
	 Total Energy              =    -401.7280339756856620 [Eh]

	 ================> DF-SCS-MP2 Energies <==================
	-----------------------------------------------------------
	 SCS Same-Spin Scale       =       0.3333333333333333 [-]
	 SCS Opposite-Spin Scale   =       1.2000000000000000 [-]
	 SCS Same-Spin Energy      =      -0.1345874850605128 [Eh]
	 SCS Opposite-Spin Energy  =      -1.5725151917121933 [Eh]
	 SCS Correlation Energy    =      -1.7071026767727062 [Eh]
	 SCS Total Energy          =    -401.7209448708500190 [Eh]
	-----------------------------------------------------------

  Dipole Moment: [D]
     X:     4.3158      Y:     4.0285      Z:    -1.4410     Total:     6.0772

*** Psi4 exiting successfully. Buy a developer a beer!
