                               Psi4 1.4a3.dev225

  ==> Input File <==

--------------------------------------------------------------------------
#psi4
#
memory 32 gb

molecule  {
0 1
  O       -1.5707600    -1.5123310    -0.2332890
  O        0.1382410     1.6075510    -0.3059650
  N        0.6999210    -0.4896500     0.4239600
  C       -1.5456480    -0.0933390    -0.4361750
  C        2.0783650    -0.1398720     0.7271540
  C       -0.1470270     0.4197650    -0.1121660
  C       -2.5680410     0.6261290     0.4306590
  C        2.9727550    -0.1683320    -0.5071050
  H       -1.7217520     0.1422920    -1.4952760
  H        2.0695770     0.8628690     1.1612900
  H        2.4371510    -0.8367210     1.4904630
  H        0.3848370    -1.4513440     0.4597870
  H       -2.3944150     0.3774590     1.4809910
  H       -3.5869010     0.3276930     0.1608950
  H       -2.4702460     1.7050790     0.2962630
  H        2.9788310    -1.1637080    -0.9596270
  H        2.6039680     0.5505970    -1.2414500
  H        4.0012360     0.0983730    -0.2444710
  H       -2.5309816    -1.8283674    -0.3841343
units angstrom
no_reorient  #important for SAPT in psi4, default
symmetry c1  #important for SAPT in psi4, default
}

set PROPERTIES_ORIGIN ["COM"]
properties('MP2/aug-cc-pvtz', properties = ['dipole'])
--------------------------------------------------------------------------

    Molecular point group: c1
  Charge       = 0
  Multiplicity = 1
  Basis Set: AUG-CC-PVTZ
    Blend: AUG-CC-PVTZ
  Basis Set: (AUG-CC-PVTZ AUX)
    Blend: AUG-CC-PVTZ-JKFIT

    Orbital Energies [Eh]
    ---------------------

    Doubly Occupied:

       1A    -20.585555     2A    -20.510300     3A    -15.578096
       4A    -11.343608     5A    -11.301062     6A    -11.259746
       7A    -11.229100     8A    -11.211907     9A     -1.381733
      10A     -1.356497    11A     -1.224845    12A     -1.043191
      13A     -1.009644    14A     -0.900674    15A     -0.842384
      16A     -0.775085    17A     -0.714436    18A     -0.690624
      19A     -0.640695    20A     -0.632668    21A     -0.609768
      22A     -0.587610    23A     -0.582525    24A     -0.557495
      25A     -0.539252    26A     -0.524349    27A     -0.519430
      28A     -0.508447    29A     -0.490328    30A     -0.460132
      31A     -0.415051    32A     -0.384197

  @DF-RHF Final Energy:  -400.08277455372814

   => Energetics <=

    Nuclear Repulsion Energy =            399.6374092133399358
    One-Electron Energy =               -1338.6195039811905190
    Two-Electron Energy =                 538.8993202141225538
    Total Energy =                       -400.0827745537280862
  Basis Set: (AUG-CC-PVTZ AUX)
    Blend: AUG-CC-PVTZ-RI
    Molecular point group: c1

    Geometry (in Angstrom), charge = 0, multiplicity = 1:

       Center              X                  Y                   Z               Mass
    ------------   -----------------  -----------------  -----------------  -----------------
         O           -1.555027366835    -1.522352873206    -0.227055834141    15.994914619570
         O            0.153973633165     1.597529126794    -0.299731834141    15.994914619570
         N            0.715653633165    -0.499671873206     0.430193165859    14.003074004430
         C           -1.529915366835    -0.103360873206    -0.429941834141    12.000000000000
         C            2.094097633165    -0.149893873206     0.733387165859    12.000000000000
         C           -0.131294366835     0.409743126794    -0.105932834141    12.000000000000
         C           -2.552308366835     0.616107126794     0.436892165859    12.000000000000
         C            2.988487633165    -0.178353873206    -0.500871834141    12.000000000000
         H           -1.706019366835     0.132270126794    -1.489042834141     1.007825032230
         H            2.085309633165     0.852847126794     1.167523165859     1.007825032230
         H            2.452883633165    -0.846742873206     1.496696165859     1.007825032230
         H            0.400569633165    -1.461365873206     0.466020165859     1.007825032230
         H           -2.378682366835     0.367437126794     1.487224165859     1.007825032230
         H           -3.571168366835     0.317671126794     0.167128165859     1.007825032230
         H           -2.454513366835     1.695057126794     0.302496165859     1.007825032230
         H            2.994563633165    -1.173729873206    -0.953393834141     1.007825032230
         H            2.619700633165     0.540575126794    -1.235216834141     1.007825032230
         H            4.016968633165     0.088351126794    -0.238237834141     1.007825032230
         H           -2.515248966835    -1.838389273206    -0.377901134141     1.007825032230

  Basis Set: AUG-CC-PVTZ
    Blend: AUG-CC-PVTZ
  Basis Set: (AUG-CC-PVTZ AUX)
    Blend: AUG-CC-PVTZ-JKFIT
	 Reference Energy          =    -400.0827745537281430 [Eh]
	 Singles Energy            =      -0.0000000000000000 [Eh]
	 Same-Spin Energy          =      -0.4021837175271782 [Eh]
	 Opposite-Spin Energy      =      -1.3090243960974537 [Eh]
	 Correlation Energy        =      -1.7112081136246320 [Eh]
	 Total Energy              =    -401.7939826673527932 [Eh]

	 ================> DF-SCS-MP2 Energies <==================
	-----------------------------------------------------------
	 SCS Same-Spin Scale       =       0.3333333333333333 [-]
	 SCS Opposite-Spin Scale   =       1.2000000000000000 [-]
	 SCS Same-Spin Energy      =      -0.1340612391757260 [Eh]
	 SCS Opposite-Spin Energy  =      -1.5708292753169444 [Eh]
	 SCS Correlation Energy    =      -1.7048905144926705 [Eh]
	 SCS Total Energy          =    -401.7876650682208037 [Eh]
	-----------------------------------------------------------

  Dipole Moment: [D]
     X:    -1.1960      Y:    -2.7812      Z:     0.4711     Total:     3.0639

*** Psi4 exiting successfully. Buy a developer a beer!
