                               Psi4 1.3.2 release

  ==> Input File <==

--------------------------------------------------------------------------
#psi4
#
memory 32 gb

molecule  {
0 1
  O       -2.5211540    -0.5137840     0.0284240
  O       -0.0903380    -1.4616610     0.1717700
  N        0.9263954     0.4094380    -0.6334024
  C       -1.5147550     0.4028960    -0.3432490
  C        2.2711600    -0.1378510    -0.5222970
  C       -0.1583790    -0.2975740    -0.2472510
  C       -1.5844930     1.6236140     0.5658530
  C        2.8418986     0.0720564     0.8737159
  H       -1.6669500     0.7105100    -1.3901450
  H        2.2044940    -1.2028750    -0.7525030
  H        2.8934660     0.3357800    -1.2867330
  H        0.8101310     1.3771570    -0.9023240
  H       -1.3564630     1.3269670     1.5921410
  H       -2.5982940     2.0269070     0.5395510
  H       -0.8919110     2.4138320     0.2596650
  H        2.9042670     1.1289430     1.1200310
  H        2.2261210    -0.4398610     1.6074960
  H        3.8631580    -0.3501450     0.9292180
  H       -2.0326010    -1.3422410     0.2291570
units angstrom
no_reorient  #important for SAPT in psi4, default
symmetry c1  #important for SAPT in psi4, default
}

set PROPERTIES_ORIGIN ["COM"]
properties('MP2/aug-cc-pvtz', properties = ['dipole'])
--------------------------------------------------------------------------

    Molecular point group: c1
  Charge       = 0
  Multiplicity = 1
  Basis Set: AUG-CC-PVTZ
    Blend: AUG-CC-PVTZ
  Basis Set: (AUG-CC-PVTZ AUX)
    Blend: AUG-CC-PVTZ-JKFIT

    Orbital Energies [Eh]
    ---------------------

    Doubly Occupied:

       1A    -20.548378     2A    -20.533079     3A    -15.598405
       4A    -11.358896     5A    -11.298086     6A    -11.273945
       7A    -11.231251     8A    -11.224151     9A     -1.398303
      10A     -1.346615    11A     -1.246199    12A     -1.053021
      13A     -1.012671    14A     -0.902667    15A     -0.849580
      16A     -0.794713    17A     -0.744126    18A     -0.677288
      19A     -0.649620    20A     -0.642314    21A     -0.611466
      22A     -0.599741    23A     -0.575191    24A     -0.563156
      25A     -0.542195    26A     -0.533821    27A     -0.521812
      28A     -0.514846    29A     -0.504281    30A     -0.445996
      31A     -0.435807    32A     -0.403057

  @DF-RHF Final Energy:  -400.08753137119038

   => Energetics <=

    Nuclear Repulsion Energy =            400.6081561796654000
    One-Electron Energy =               -1340.1220230661162987
    Two-Electron Energy =                 539.4263355152604618
    Total Energy =                       -400.0875313711903800
  Basis Set: (AUG-CC-PVTZ AUX)
    Blend: AUG-CC-PVTZ-RI
    Molecular point group: c1

    Geometry (in Angstrom), charge = 0, multiplicity = 1:

       Center              X                  Y                   Z               Mass
    ------------   -----------------  -----------------  -----------------  -----------------
         O           -2.520061748624    -0.514858658487     0.026591509822    15.994914619570
         O           -0.089245748624    -1.462735658487     0.169937509822    15.994914619570
         N            0.927487651376     0.408363341513    -0.635234890178    14.003074004430
         C           -1.513662748624     0.401821341513    -0.345081490178    12.000000000000
         C            2.272252251376    -0.138925658487    -0.524129490178    12.000000000000
         C           -0.157286748624    -0.298648658487    -0.249083490178    12.000000000000
         C           -1.583400748624     1.622539341513     0.564020509822    12.000000000000
         C            2.842990851376     0.070981741513     0.871883409822    12.000000000000
         H           -1.665857748624     0.709435341513    -1.391977490178     1.007825032230
         H            2.205586251376    -1.203949658487    -0.754335490178     1.007825032230
         H            2.894558251376     0.334705341513    -1.288565490178     1.007825032230
         H            0.811223251376     1.376082341513    -0.904156490178     1.007825032230
         H           -1.355370748624     1.325892341513     1.590308509822     1.007825032230
         H           -2.597201748624     2.025832341513     0.537718509822     1.007825032230
         H           -0.890818748624     2.412757341513     0.257832509822     1.007825032230
         H            2.905359251376     1.127868341513     1.118198509822     1.007825032230
         H            2.227213251376    -0.440935658487     1.605663509822     1.007825032230
         H            3.864250251376    -0.351219658487     0.927385509822     1.007825032230
         H           -2.031508748624    -1.343315658487     0.227324509822     1.007825032230

  Basis Set: AUG-CC-PVTZ
    Blend: AUG-CC-PVTZ
  Basis Set: (AUG-CC-PVTZ AUX)
    Blend: AUG-CC-PVTZ-JKFIT
	 Reference Energy          =    -400.0875313711903800 [Eh]
	 Singles Energy            =      -0.0000000000000000 [Eh]
	 Same-Spin Energy          =      -0.4021445616792302 [Eh]
	 Opposite-Spin Energy      =      -1.3076663341877310 [Eh]
	 Correlation Energy        =      -1.7098108958669611 [Eh]
	 Total Energy              =    -401.7973422670573314 [Eh]

	 ================> DF-SCS-MP2 Energies <==================
	-----------------------------------------------------------
	 SCS Same-Spin Scale       =       0.3333333333333333 [-]
	 SCS Opposite-Spin Scale   =       1.2000000000000000 [-]
	 SCS Same-Spin Energy      =      -0.1340481872264100 [Eh]
	 SCS Opposite-Spin Energy  =      -1.5691996010252771 [Eh]
	 SCS Correlation Energy    =      -1.7032477882516872 [Eh]
	 SCS Total Energy          =    -401.7907791594420814 [Eh]
	-----------------------------------------------------------

  Dipole Moment: [D]
     X:     3.1030      Y:     3.1795      Z:    -1.0732     Total:     4.5706

*** Psi4 exiting successfully. Buy a developer a beer!
