                               Psi4 1.3.2 release

  ==> Input File <==

--------------------------------------------------------------------------
#psi4
#
memory 32 gb

molecule  {
0 1
  O       -2.5211540    -0.5137840     0.0284240
  O       -0.0903380    -1.4616610     0.1717700
  N        0.9396002     0.3871675    -0.6402591
  C       -1.5265012     0.3809708    -0.3335544
  C        2.2711600    -0.1378510    -0.5222970
  C       -0.1583790    -0.2975740    -0.2472510
  C       -1.5844930     1.6236140     0.5658530
  C        2.8531060     0.0659690     0.8699860
  H       -1.6669500     0.7105100    -1.3901450
  H        2.2044940    -1.2028750    -0.7525030
  H        2.8934660     0.3357800    -1.2867330
  H        0.8101310     1.3771570    -0.9023240
  H       -1.3564630     1.3269670     1.5921410
  H       -2.5982940     2.0269070     0.5395510
  H       -0.8919110     2.4138320     0.2596650
  H        2.9042670     1.1289430     1.1200310
  H        2.2261210    -0.4398610     1.6074960
  H        3.8631580    -0.3501450     0.9292180
  H       -2.0326010    -1.3422410     0.2291570
units angstrom
no_reorient  #important for SAPT in psi4, default
symmetry c1  #important for SAPT in psi4, default
}

set PROPERTIES_ORIGIN ["COM"]
properties('MP2/aug-cc-pvtz', properties = ['dipole'])
--------------------------------------------------------------------------

    Molecular point group: c1
  Charge       = 0
  Multiplicity = 1
  Basis Set: AUG-CC-PVTZ
    Blend: AUG-CC-PVTZ
  Basis Set: (AUG-CC-PVTZ AUX)
    Blend: AUG-CC-PVTZ-JKFIT

    Orbital Energies [Eh]
    ---------------------

    Doubly Occupied:

       1A    -20.552101     2A    -20.532061     3A    -15.599680
       4A    -11.358417     5A    -11.300123     6A    -11.271973
       7A    -11.231351     8A    -11.223417     9A     -1.401877
      10A     -1.355750    11A     -1.246450    12A     -1.051441
      13A     -1.010960    14A     -0.903395    15A     -0.850174
      16A     -0.788304    17A     -0.749007    18A     -0.678904
      19A     -0.652917    20A     -0.641990    21A     -0.612594
      22A     -0.597097    23A     -0.578741    24A     -0.563493
      25A     -0.546315    26A     -0.535727    27A     -0.520652
      28A     -0.515970    29A     -0.501937    30A     -0.443356
      31A     -0.435507    32A     -0.401256

  @DF-RHF Final Energy:  -400.08617466537288

   => Energetics <=

    Nuclear Repulsion Energy =            400.7942024594507870
    One-Electron Energy =               -1340.4548771348383980
    Two-Electron Energy =                 539.5745000100146171
    Total Energy =                       -400.0861746653729369
  Basis Set: (AUG-CC-PVTZ AUX)
    Blend: AUG-CC-PVTZ-RI
    Molecular point group: c1

    Geometry (in Angstrom), charge = 0, multiplicity = 1:

       Center              X                  Y                   Z               Mass
    ------------   -----------------  -----------------  -----------------  -----------------
         O           -2.521585866735    -0.509323876177     0.026800244796    15.994914619570
         O           -0.090769866735    -1.457200876177     0.170146244796    15.994914619570
         N            0.939168333265     0.391627623823    -0.641882855204    14.003074004430
         C           -1.526933066735     0.385430923823    -0.335178155204    12.000000000000
         C            2.270728133265    -0.133390876177    -0.523920755204    12.000000000000
         C           -0.158810866735    -0.293113876177    -0.248874755204    12.000000000000
         C           -1.584924866735     1.628074123823     0.564229244796    12.000000000000
         C            2.852674133265     0.070429123823     0.868362244796    12.000000000000
         H           -1.667381866735     0.714970123823    -1.391768755204     1.007825032230
         H            2.204062133265    -1.198414876177    -0.754126755204     1.007825032230
         H            2.893034133265     0.340240123823    -1.288356755204     1.007825032230
         H            0.809699133265     1.381617123823    -0.903947755204     1.007825032230
         H           -1.356894866735     1.331427123823     1.590517244796     1.007825032230
         H           -2.598725866735     2.031367123823     0.537927244796     1.007825032230
         H           -0.892342866735     2.418292123823     0.258041244796     1.007825032230
         H            2.903835133265     1.133403123823     1.118407244796     1.007825032230
         H            2.225689133265    -0.435400876177     1.605872244796     1.007825032230
         H            3.862726133265    -0.345684876177     0.927594244796     1.007825032230
         H           -2.033032866735    -1.337780876177     0.227533244796     1.007825032230

  Basis Set: AUG-CC-PVTZ
    Blend: AUG-CC-PVTZ
  Basis Set: (AUG-CC-PVTZ AUX)
    Blend: AUG-CC-PVTZ-JKFIT
	 Reference Energy          =    -400.0861746653728801 [Eh]
	 Singles Energy            =      -0.0000000000000000 [Eh]
	 Same-Spin Energy          =      -0.4023246784527431 [Eh]
	 Opposite-Spin Energy      =      -1.3075143283224340 [Eh]
	 Correlation Energy        =      -1.7098390067751770 [Eh]
	 Total Energy              =    -401.7960136721480353 [Eh]

	 ================> DF-SCS-MP2 Energies <==================
	-----------------------------------------------------------
	 SCS Same-Spin Scale       =       0.3333333333333333 [-]
	 SCS Opposite-Spin Scale   =       1.2000000000000000 [-]
	 SCS Same-Spin Energy      =      -0.1341082261509143 [Eh]
	 SCS Opposite-Spin Energy  =      -1.5690171939869206 [Eh]
	 SCS Correlation Energy    =      -1.7031254201378350 [Eh]
	 SCS Total Energy          =    -401.7893000855107175 [Eh]
	-----------------------------------------------------------

  Dipole Moment: [D]
     X:     2.9889      Y:     3.1329      Z:    -1.0374     Total:     4.4525

*** Psi4 exiting successfully. Buy a developer a beer!
