                               Psi4 1.3.2 release

  ==> Input File <==

--------------------------------------------------------------------------
#psi4
#
memory 32 gb

molecule  {
0 1
  O       -2.5211540    -0.5137840     0.0284240
  O       -0.0903380    -1.4616610     0.1717700
  N        0.9259230     0.4056680    -0.6455280
  C       -1.5674530     0.4536777    -0.3533537
  C        2.2711600    -0.1378510    -0.5222970
  C       -0.1583790    -0.2975740    -0.2472510
  C       -1.5844930     1.6236140     0.5658530
  C        2.8531060     0.0659690     0.8699860
  H       -1.6669500     0.7105100    -1.3901450
  H        2.2044940    -1.2028750    -0.7525030
  H        2.8934660     0.3357800    -1.2867330
  H        0.8101310     1.3771570    -0.9023240
  H       -1.3564630     1.3269670     1.5921410
  H       -2.5982940     2.0269070     0.5395510
  H       -0.8919110     2.4138320     0.2596650
  H        2.9042670     1.1289430     1.1200310
  H        2.2261210    -0.4398610     1.6074960
  H        3.8631580    -0.3501450     0.9292180
  H       -2.0776304    -1.3645275     0.2401811
units angstrom
no_reorient  #important for SAPT in psi4, default
symmetry c1  #important for SAPT in psi4, default
}

set PROPERTIES_ORIGIN ["COM"]
properties('MP2/aug-cc-pvtz', properties = ['dipole'])
--------------------------------------------------------------------------

    Molecular point group: c1
  Charge       = 0
  Multiplicity = 1
  Basis Set: AUG-CC-PVTZ
    Blend: AUG-CC-PVTZ
  Basis Set: (AUG-CC-PVTZ AUX)
    Blend: AUG-CC-PVTZ-JKFIT

    Orbital Energies [Eh]
    ---------------------

    Doubly Occupied:

       1A    -20.546105     2A    -20.531119     3A    -15.596818
       4A    -11.357093     5A    -11.299787     6A    -11.272177
       7A    -11.230052     8A    -11.223383     9A     -1.392157
      10A     -1.343878    11A     -1.243063    12A     -1.052999
      13A     -1.016359    14A     -0.895919    15A     -0.847864
      16A     -0.793314    17A     -0.738033    18A     -0.679221
      19A     -0.651752    20A     -0.640014    21A     -0.609069
      22A     -0.597850    23A     -0.585143    24A     -0.563814
      25A     -0.541247    26A     -0.536694    27A     -0.520072
      28A     -0.506848    29A     -0.499227    30A     -0.452904
      31A     -0.422555    32A     -0.401770

  @DF-RHF Final Energy:  -400.08241890331658

   => Energetics <=

    Nuclear Repulsion Energy =            399.4628834912897446
    One-Electron Energy =               -1337.9140061021241763
    Two-Electron Energy =                 538.3687037075178523
    Total Energy =                       -400.0824189033165794
  Basis Set: (AUG-CC-PVTZ AUX)
    Blend: AUG-CC-PVTZ-RI
    Molecular point group: c1

    Geometry (in Angstrom), charge = 0, multiplicity = 1:

       Center              X                  Y                   Z               Mass
    ------------   -----------------  -----------------  -----------------  -----------------
         O           -2.515365055715    -0.518796847255     0.029364855764    15.994914619570
         O           -0.084549055715    -1.466673847255     0.172710855764    15.994914619570
         N            0.931711944285     0.400655152745    -0.644587144236    14.003074004430
         C           -1.561664055715     0.448664852745    -0.352412844236    12.000000000000
         C            2.276948944285    -0.142863847255    -0.521356144236    12.000000000000
         C           -0.152590055715    -0.302586847255    -0.246310144236    12.000000000000
         C           -1.578704055715     1.618601152745     0.566793855764    12.000000000000
         C            2.858894944285     0.060956152745     0.870926855764    12.000000000000
         H           -1.661161055715     0.705497152745    -1.389204144236     1.007825032230
         H            2.210282944285    -1.207887847255    -0.751562144236     1.007825032230
         H            2.899254944285     0.330767152745    -1.285792144236     1.007825032230
         H            0.815919944285     1.372144152745    -0.901383144236     1.007825032230
         H           -1.350674055715     1.321954152745     1.593081855764     1.007825032230
         H           -2.592505055715     2.021894152745     0.540491855764     1.007825032230
         H           -0.886122055715     2.408819152745     0.260605855764     1.007825032230
         H            2.910055944285     1.123930152745     1.120971855764     1.007825032230
         H            2.231909944285    -0.444873847255     1.608436855764     1.007825032230
         H            3.868946944285    -0.355157847255     0.930158855764     1.007825032230
         H           -2.071841455715    -1.369540347255     0.241121955764     1.007825032230

  Basis Set: AUG-CC-PVTZ
    Blend: AUG-CC-PVTZ
  Basis Set: (AUG-CC-PVTZ AUX)
    Blend: AUG-CC-PVTZ-JKFIT
	 Reference Energy          =    -400.0824189033165794 [Eh]
	 Singles Energy            =      -0.0000000000000000 [Eh]
	 Same-Spin Energy          =      -0.4020388071495916 [Eh]
	 Opposite-Spin Energy      =      -1.3075173448619091 [Eh]
	 Correlation Energy        =      -1.7095561520115008 [Eh]
	 Total Energy              =    -401.7919750553280664 [Eh]

	 ================> DF-SCS-MP2 Energies <==================
	-----------------------------------------------------------
	 SCS Same-Spin Scale       =       0.3333333333333333 [-]
	 SCS Opposite-Spin Scale   =       1.2000000000000000 [-]
	 SCS Same-Spin Energy      =      -0.1340129357165305 [Eh]
	 SCS Opposite-Spin Energy  =      -1.5690208138342909 [Eh]
	 SCS Correlation Energy    =      -1.7030337495508214 [Eh]
	 SCS Total Energy          =    -401.7854526528673773 [Eh]
	-----------------------------------------------------------

  Dipole Moment: [D]
     X:     3.0150      Y:     3.1824      Z:    -1.0295     Total:     4.5031

*** Psi4 exiting successfully. Buy a developer a beer!
