                               Psi4 1.3.2 release

  ==> Input File <==

--------------------------------------------------------------------------
#psi4
#
memory 32 gb

molecule  {
0 1
  O       -2.5211540    -0.5137840     0.0284240
  O       -0.0903380    -1.4616610     0.1717700
  N        0.9259230     0.4056680    -0.6455280
  C       -1.5147550     0.4028960    -0.3432490
  C        2.2711600    -0.1378510    -0.5222970
  C       -0.1638703    -0.2036259    -0.2810682
  C       -1.5844930     1.6236140     0.5658530
  C        2.8531060     0.0659690     0.8699860
  H       -1.6669500     0.7105100    -1.3901450
  H        2.2044940    -1.2028750    -0.7525030
  H        2.8934660     0.3357800    -1.2867330
  H        0.8101310     1.3771570    -0.9023240
  H       -1.3564630     1.3269670     1.5921410
  H       -2.5982940     2.0269070     0.5395510
  H       -0.8919110     2.4138320     0.2596650
  H        2.9042670     1.1289430     1.1200310
  H        2.2261210    -0.4398610     1.6074960
  H        3.8631580    -0.3501450     0.9292180
  H       -2.0326010    -1.3422410     0.2291570
units angstrom
no_reorient  #important for SAPT in psi4, default
symmetry c1  #important for SAPT in psi4, default
}

set PROPERTIES_ORIGIN ["COM"]
properties('MP2/aug-cc-pvtz', properties = ['dipole'])
--------------------------------------------------------------------------

    Molecular point group: c1
  Charge       = 0
  Multiplicity = 1
  Basis Set: AUG-CC-PVTZ
    Blend: AUG-CC-PVTZ
  Basis Set: (AUG-CC-PVTZ AUX)
    Blend: AUG-CC-PVTZ-JKFIT

    Orbital Energies [Eh]
    ---------------------

    Doubly Occupied:

       1A    -20.548667     2A    -20.512946     3A    -15.614078
       4A    -11.360263     5A    -11.300909     6A    -11.281131
       7A    -11.234366     8A    -11.228089     9A     -1.374159
      10A     -1.331681    11A     -1.241091    12A     -1.065278
      13A     -1.021812    14A     -0.913203    15A     -0.860801
      16A     -0.802132    17A     -0.745598    18A     -0.681282
      19A     -0.656971    20A     -0.629395    21A     -0.615086
      22A     -0.591058    23A     -0.568247    24A     -0.565913
      25A     -0.547402    26A     -0.537491    27A     -0.512909
      28A     -0.504414    29A     -0.498851    30A     -0.444590
      31A     -0.427412    32A     -0.399613

  @DF-RHF Final Energy:  -400.06615808706960

   => Energetics <=

    Nuclear Repulsion Energy =            400.2334865937771156
    One-Electron Energy =               -1339.3656019529410059
    Two-Electron Energy =                 539.0659572720942379
    Total Energy =                       -400.0661580870696525
  Basis Set: (AUG-CC-PVTZ AUX)
    Blend: AUG-CC-PVTZ-RI
    Molecular point group: c1

    Geometry (in Angstrom), charge = 0, multiplicity = 1:

       Center              X                  Y                   Z               Mass
    ------------   -----------------  -----------------  -----------------  -----------------
         O           -2.520591119042    -0.523413027709     0.031890162762    15.994914619570
         O           -0.089775119042    -1.471290027709     0.175236162762    15.994914619570
         N            0.926485880958     0.396038972291    -0.642061837238    14.003074004430
         C           -1.514192119042     0.393266972291    -0.339782837238    12.000000000000
         C            2.271722880958    -0.147480027709    -0.518830837238    12.000000000000
         C           -0.163307419042    -0.213254927709    -0.277602037238    12.000000000000
         C           -1.583930119042     1.613984972291     0.569319162762    12.000000000000
         C            2.853668880958     0.056339972291     0.873452162762    12.000000000000
         H           -1.666387119042     0.700880972291    -1.386678837238     1.007825032230
         H            2.205056880958    -1.212504027709    -0.749036837238     1.007825032230
         H            2.894028880958     0.326150972291    -1.283266837238     1.007825032230
         H            0.810693880958     1.367527972291    -0.898857837238     1.007825032230
         H           -1.355900119042     1.317337972291     1.595607162762     1.007825032230
         H           -2.597731119042     2.017277972291     0.543017162762     1.007825032230
         H           -0.891348119042     2.404202972291     0.263131162762     1.007825032230
         H            2.904829880958     1.119313972291     1.123497162762     1.007825032230
         H            2.226683880958    -0.449490027709     1.610962162762     1.007825032230
         H            3.863720880958    -0.359774027709     0.932684162762     1.007825032230
         H           -2.032038119042    -1.351870027709     0.232623162762     1.007825032230

  Basis Set: AUG-CC-PVTZ
    Blend: AUG-CC-PVTZ
  Basis Set: (AUG-CC-PVTZ AUX)
    Blend: AUG-CC-PVTZ-JKFIT
	 Reference Energy          =    -400.0661580870695957 [Eh]
	 Singles Energy            =      -0.0000000000000000 [Eh]
	 Same-Spin Energy          =      -0.4042627296479488 [Eh]
	 Opposite-Spin Energy      =      -1.3117113226133754 [Eh]
	 Correlation Energy        =      -1.7159740522613243 [Eh]
	 Total Energy              =    -401.7821321393309404 [Eh]

	 ================> DF-SCS-MP2 Energies <==================
	-----------------------------------------------------------
	 SCS Same-Spin Scale       =       0.3333333333333333 [-]
	 SCS Opposite-Spin Scale   =       1.2000000000000000 [-]
	 SCS Same-Spin Energy      =      -0.1347542432159829 [Eh]
	 SCS Opposite-Spin Energy  =      -1.5740535871360504 [Eh]
	 SCS Correlation Energy    =      -1.7088078303520333 [Eh]
	 SCS Total Energy          =    -401.7749659174216390 [Eh]
	-----------------------------------------------------------

  Dipole Moment: [D]
     X:     3.3559      Y:     3.7122      Z:    -1.2199     Total:     5.1507

*** Psi4 exiting successfully. Buy a developer a beer!
