                               Psi4 1.3.2 release

  ==> Input File <==

--------------------------------------------------------------------------
#psi4
#
memory 32 gb

molecule  {
0 1
  O       -2.5211540    -0.5137840     0.0284240
  O       -0.0903380    -1.4616610     0.1717700
  N        0.9259230     0.4056680    -0.6455280
  C       -1.6573925     0.2729744    -0.2905716
  C        2.2711600    -0.1378510    -0.5222970
  C       -0.1583790    -0.2975740    -0.2472510
  C       -1.5844930     1.6236140     0.5658530
  C        2.8531060     0.0659690     0.8699860
  H       -1.6669500     0.7105100    -1.3901450
  H        2.2044940    -1.2028750    -0.7525030
  H        2.8934660     0.3357800    -1.2867330
  H        0.8101310     1.3771570    -0.9023240
  H       -1.3564630     1.3269670     1.5921410
  H       -2.5982940     2.0269070     0.5395510
  H       -0.8919110     2.4138320     0.2596650
  H        2.9042670     1.1289430     1.1200310
  H        2.2261210    -0.4398610     1.6074960
  H        3.8631580    -0.3501450     0.9292180
  H       -2.0326010    -1.3422410     0.2291570
units angstrom
no_reorient  #important for SAPT in psi4, default
symmetry c1  #important for SAPT in psi4, default
}

set PROPERTIES_ORIGIN ["COM"]
properties('MP2/aug-cc-pvtz', properties = ['dipole'])
--------------------------------------------------------------------------

    Molecular point group: c1
  Charge       = 0
  Multiplicity = 1
  Basis Set: AUG-CC-PVTZ
    Blend: AUG-CC-PVTZ
  Basis Set: (AUG-CC-PVTZ AUX)
    Blend: AUG-CC-PVTZ-JKFIT

    Orbital Energies [Eh]
    ---------------------

    Doubly Occupied:

       1A    -20.572707     2A    -20.529711     3A    -15.596758
       4A    -11.353109     5A    -11.308528     6A    -11.272725
       7A    -11.223931     8A    -11.222788     9A     -1.473562
      10A     -1.379213    11A     -1.241123    12A     -1.035963
      13A     -0.998164    14A     -0.889358    15A     -0.849073
      16A     -0.797341    17A     -0.784137    18A     -0.688406
      19A     -0.657400    20A     -0.644033    21A     -0.635358
      22A     -0.601357    23A     -0.599621    24A     -0.558410
      25A     -0.548240    26A     -0.538223    27A     -0.522391
      28A     -0.508788    29A     -0.501566    30A     -0.415444
      31A     -0.411428    32A     -0.396364

  @DF-RHF Final Energy:  -400.04108066403751

   => Energetics <=

    Nuclear Repulsion Energy =            401.1982502649992171
    One-Electron Energy =               -1340.9682237288384385
    Two-Electron Energy =                 539.7288927998017698
    Total Energy =                       -400.0410806640375085
  Basis Set: (AUG-CC-PVTZ AUX)
    Blend: AUG-CC-PVTZ-RI
    Molecular point group: c1

    Geometry (in Angstrom), charge = 0, multiplicity = 1:

       Center              X                  Y                   Z               Mass
    ------------   -----------------  -----------------  -----------------  -----------------
         O           -2.506534330884    -0.500467521759     0.023024906057    15.994914619570
         O           -0.075718330884    -1.448344521759     0.166370906057    15.994914619570
         N            0.940542669116     0.418984478241    -0.650927093943    14.003074004430
         C           -1.642772830884     0.286290878241    -0.295970693943    12.000000000000
         C            2.285779669116    -0.124534521759    -0.527696093943    12.000000000000
         C           -0.143759330884    -0.284257521759    -0.252650093943    12.000000000000
         C           -1.569873330884     1.636930478241     0.560453906057    12.000000000000
         C            2.867725669116     0.079285478241     0.864586906057    12.000000000000
         H           -1.652330330884     0.723826478241    -1.395544093943     1.007825032230
         H            2.219113669116    -1.189558521759    -0.757902093943     1.007825032230
         H            2.908085669116     0.349096478241    -1.292132093943     1.007825032230
         H            0.824750669116     1.390473478241    -0.907723093943     1.007825032230
         H           -1.341843330884     1.340283478241     1.586741906057     1.007825032230
         H           -2.583674330884     2.040223478241     0.534151906057     1.007825032230
         H           -0.877291330884     2.427148478241     0.254265906057     1.007825032230
         H            2.918886669116     1.142259478241     1.114631906057     1.007825032230
         H            2.240740669116    -0.426544521759     1.602096906057     1.007825032230
         H            3.877777669116    -0.336828521759     0.923818906057     1.007825032230
         H           -2.017981330884    -1.328924521759     0.223757906057     1.007825032230

  Basis Set: AUG-CC-PVTZ
    Blend: AUG-CC-PVTZ
  Basis Set: (AUG-CC-PVTZ AUX)
    Blend: AUG-CC-PVTZ-JKFIT
	 Reference Energy          =    -400.0410806640375085 [Eh]
	 Singles Energy            =      -0.0000000000000000 [Eh]
	 Same-Spin Energy          =      -0.4029957427973286 [Eh]
	 Opposite-Spin Energy      =      -1.3065359372393051 [Eh]
	 Correlation Energy        =      -1.7095316800366336 [Eh]
	 Total Energy              =    -401.7506123440741703 [Eh]

	 ================> DF-SCS-MP2 Energies <==================
	-----------------------------------------------------------
	 SCS Same-Spin Scale       =       0.3333333333333333 [-]
	 SCS Opposite-Spin Scale   =       1.2000000000000000 [-]
	 SCS Same-Spin Energy      =      -0.1343319142657762 [Eh]
	 SCS Opposite-Spin Energy  =      -1.5678431246871660 [Eh]
	 SCS Correlation Energy    =      -1.7021750389529422 [Eh]
	 SCS Total Energy          =    -401.7432557029904387 [Eh]
	-----------------------------------------------------------

  Dipole Moment: [D]
     X:     2.5753      Y:     2.5310      Z:    -0.8545     Total:     3.7106

*** Psi4 exiting successfully. Buy a developer a beer!
