                               Psi4 1.3.2 release

  ==> Input File <==

--------------------------------------------------------------------------
#psi4
#
memory 32 gb

molecule  {
0 1
  O       -2.5211540    -0.5137840     0.0284240
  O       -0.0903380    -1.4616610     0.1717700
  N        0.8829267     0.4598620    -0.6606005
  C       -1.4770523     0.4673651    -0.3721455
  C        2.2711600    -0.1378510    -0.5222970
  C       -0.1583790    -0.2975740    -0.2472510
  C       -1.5844930     1.6236140     0.5658530
  C        2.8531060     0.0659690     0.8699860
  H       -1.6669500     0.7105100    -1.3901450
  H        2.2044940    -1.2028750    -0.7525030
  H        2.8934660     0.3357800    -1.2867330
  H        0.8101310     1.3771570    -0.9023240
  H       -1.3564630     1.3269670     1.5921410
  H       -2.5982940     2.0269070     0.5395510
  H       -0.8919110     2.4138320     0.2596650
  H        2.9042670     1.1289430     1.1200310
  H        2.2261210    -0.4398610     1.6074960
  H        3.8631580    -0.3501450     0.9292180
  H       -2.0326010    -1.3422410     0.2291570
units angstrom
no_reorient  #important for SAPT in psi4, default
symmetry c1  #important for SAPT in psi4, default
}

set PROPERTIES_ORIGIN ["COM"]
properties('MP2/aug-cc-pvtz', properties = ['dipole'])
--------------------------------------------------------------------------

    Molecular point group: c1
  Charge       = 0
  Multiplicity = 1
  Basis Set: AUG-CC-PVTZ
    Blend: AUG-CC-PVTZ
  Basis Set: (AUG-CC-PVTZ AUX)
    Blend: AUG-CC-PVTZ-JKFIT

    Orbital Energies [Eh]
    ---------------------

    Doubly Occupied:

       1A    -20.538017     2A    -20.537764     3A    -15.595775
       4A    -11.362726     5A    -11.294258     6A    -11.279190
       7A    -11.231719     8A    -11.227223     9A     -1.393609
      10A     -1.318866    11A     -1.246997    12A     -1.057403
      13A     -1.018509    14A     -0.903482    15A     -0.849083
      16A     -0.812505    17A     -0.734043    18A     -0.672172
      19A     -0.644753    20A     -0.636943    21A     -0.612965
      22A     -0.601861    23A     -0.572983    24A     -0.562574
      25A     -0.539348    26A     -0.530699    27A     -0.523264
      28A     -0.510702    29A     -0.497880    30A     -0.449301
      31A     -0.436386    32A     -0.409795

  @DF-RHF Final Energy:  -400.07317886322323

   => Energetics <=

    Nuclear Repulsion Energy =            399.4967413146581521
    One-Electron Energy =               -1337.9342538907528706
    Two-Electron Energy =                 538.3643337128714847
    Total Energy =                       -400.0731788632232337
  Basis Set: (AUG-CC-PVTZ AUX)
    Blend: AUG-CC-PVTZ-RI
    Molecular point group: c1

    Geometry (in Angstrom), charge = 0, multiplicity = 1:

       Center              X                  Y                   Z               Mass
    ------------   -----------------  -----------------  -----------------  -----------------
         O           -2.519875769696    -0.526873380690     0.033188542153    15.994914619570
         O           -0.089059769696    -1.474750380690     0.176534542153    15.994914619570
         N            0.884204930304     0.446772619310    -0.655835957847    14.003074004430
         C           -1.475774069696     0.454275719310    -0.367380957847    12.000000000000
         C            2.272438230304    -0.150940380690    -0.517532457847    12.000000000000
         C           -0.157100769696    -0.310663380690    -0.242486457847    12.000000000000
         C           -1.583214769696     1.610524619310     0.570617542153    12.000000000000
         C            2.854384230304     0.052879619310     0.874750542153    12.000000000000
         H           -1.665671769696     0.697420619310    -1.385380457847     1.007825032230
         H            2.205772230304    -1.215964380690    -0.747738457847     1.007825032230
         H            2.894744230304     0.322690619310    -1.281968457847     1.007825032230
         H            0.811409230304     1.364067619310    -0.897559457847     1.007825032230
         H           -1.355184769696     1.313877619310     1.596905542153     1.007825032230
         H           -2.597015769696     2.013817619310     0.544315542153     1.007825032230
         H           -0.890632769696     2.400742619310     0.264429542153     1.007825032230
         H            2.905545230304     1.115853619310     1.124795542153     1.007825032230
         H            2.227399230304    -0.452950380690     1.612260542153     1.007825032230
         H            3.864436230304    -0.363234380690     0.933982542153     1.007825032230
         H           -2.031322769696    -1.355330380690     0.233921542153     1.007825032230

  Basis Set: AUG-CC-PVTZ
    Blend: AUG-CC-PVTZ
  Basis Set: (AUG-CC-PVTZ AUX)
    Blend: AUG-CC-PVTZ-JKFIT
	 Reference Energy          =    -400.0731788632232337 [Eh]
	 Singles Energy            =      -0.0000000000000000 [Eh]
	 Same-Spin Energy          =      -0.4021436596348262 [Eh]
	 Opposite-Spin Energy      =      -1.3094065313066079 [Eh]
	 Correlation Energy        =      -1.7115501909414341 [Eh]
	 Total Energy              =    -401.7847290541646430 [Eh]

	 ================> DF-SCS-MP2 Energies <==================
	-----------------------------------------------------------
	 SCS Same-Spin Scale       =       0.3333333333333333 [-]
	 SCS Opposite-Spin Scale   =       1.2000000000000000 [-]
	 SCS Same-Spin Energy      =      -0.1340478865449420 [Eh]
	 SCS Opposite-Spin Energy  =      -1.5712878375679293 [Eh]
	 SCS Correlation Energy    =      -1.7053357241128713 [Eh]
	 SCS Total Energy          =    -401.7785145873361330 [Eh]
	-----------------------------------------------------------

  Dipole Moment: [D]
     X:     3.4082      Y:     3.2719      Z:    -1.0494     Total:     4.8396

*** Psi4 exiting successfully. Buy a developer a beer!
