                               Psi4 1.3.2 release

  ==> Input File <==

--------------------------------------------------------------------------
#psi4
#
memory 32 gb

molecule  {
0 1
  O       -2.5211540    -0.5137840     0.0284240
  O       -0.0903380    -1.4616610     0.1717700
  N        0.9216076     0.3941310    -0.6486489
  C       -1.5147550     0.4028960    -0.3432490
  C        2.2711600    -0.1378510    -0.5222970
  C       -0.1583790    -0.2975740    -0.2472510
  C       -1.5844930     1.6236140     0.5658530
  C        2.8531060     0.0659690     0.8699860
  H       -1.6669500     0.7105100    -1.3901450
  H        2.1951244    -1.2019342    -0.7539451
  H        2.8934660     0.3357800    -1.2867330
  H        0.8101310     1.3771570    -0.9023240
  H       -1.3564630     1.3269670     1.5921410
  H       -2.5982940     2.0269070     0.5395510
  H       -0.8919110     2.4138320     0.2596650
  H        2.9042670     1.1289430     1.1200310
  H        2.2261210    -0.4398610     1.6074960
  H        3.8631580    -0.3501450     0.9292180
  H       -2.0326010    -1.3422410     0.2291570
units angstrom
no_reorient  #important for SAPT in psi4, default
symmetry c1  #important for SAPT in psi4, default
}

set PROPERTIES_ORIGIN ["COM"]
properties('MP2/aug-cc-pvtz', properties = ['dipole'])
--------------------------------------------------------------------------

    Molecular point group: c1
  Charge       = 0
  Multiplicity = 1
  Basis Set: AUG-CC-PVTZ
    Blend: AUG-CC-PVTZ
  Basis Set: (AUG-CC-PVTZ AUX)
    Blend: AUG-CC-PVTZ-JKFIT

    Orbital Energies [Eh]
    ---------------------

    Doubly Occupied:

       1A    -20.548248     2A    -20.531808     3A    -15.599629
       4A    -11.357770     5A    -11.298024     6A    -11.274081
       7A    -11.231324     8A    -11.224924     9A     -1.398333
      10A     -1.346583    11A     -1.246534    12A     -1.053298
      13A     -1.013232    14A     -0.903577    15A     -0.849672
      16A     -0.793127    17A     -0.744151    18A     -0.677048
      19A     -0.649004    20A     -0.641783    21A     -0.612074
      22A     -0.598712    23A     -0.575885    24A     -0.563453
      25A     -0.544183    26A     -0.535048    27A     -0.521044
      28A     -0.514044    29A     -0.503130    30A     -0.445826
      31A     -0.435667    32A     -0.403580

  @DF-RHF Final Energy:  -400.08752459724911

   => Energetics <=

    Nuclear Repulsion Energy =            400.5930943677704477
    One-Electron Energy =               -1340.0916432041608459
    Two-Electron Energy =                 539.4110242391412839
    Total Energy =                       -400.0875245972491712
  Basis Set: (AUG-CC-PVTZ AUX)
    Blend: AUG-CC-PVTZ-RI
    Molecular point group: c1

    Geometry (in Angstrom), charge = 0, multiplicity = 1:

       Center              X                  Y                   Z               Mass
    ------------   -----------------  -----------------  -----------------  -----------------
         O           -2.520557157497    -0.512412056241     0.028809756474    15.994914619570
         O           -0.089741157497    -1.460289056241     0.172155756474    15.994914619570
         N            0.922204442503     0.395502943759    -0.648263143526    14.003074004430
         C           -1.514158157497     0.404267943759    -0.342863243526    12.000000000000
         C            2.271756842503    -0.136479056241    -0.521911243526    12.000000000000
         C           -0.157782157497    -0.296202056241    -0.246865243526    12.000000000000
         C           -1.583896157497     1.624985943759     0.566238756474    12.000000000000
         C            2.853702842503     0.067340943759     0.870371756474    12.000000000000
         H           -1.666353157497     0.711881943759    -1.389759243526     1.007825032230
         H            2.195721242503    -1.200562256241    -0.753559343526     1.007825032230
         H            2.894062842503     0.337151943759    -1.286347243526     1.007825032230
         H            0.810727842503     1.378528943759    -0.901938243526     1.007825032230
         H           -1.355866157497     1.328338943759     1.592526756474     1.007825032230
         H           -2.597697157497     2.028278943759     0.539936756474     1.007825032230
         H           -0.891314157497     2.415203943759     0.260050756474     1.007825032230
         H            2.904863842503     1.130314943759     1.120416756474     1.007825032230
         H            2.226717842503    -0.438489056241     1.607881756474     1.007825032230
         H            3.863754842503    -0.348773056241     0.929603756474     1.007825032230
         H           -2.032004157497    -1.340869056241     0.229542756474     1.007825032230

  Basis Set: AUG-CC-PVTZ
    Blend: AUG-CC-PVTZ
  Basis Set: (AUG-CC-PVTZ AUX)
    Blend: AUG-CC-PVTZ-JKFIT
	 Reference Energy          =    -400.0875245972491143 [Eh]
	 Singles Energy            =      -0.0000000000000000 [Eh]
	 Same-Spin Energy          =      -0.4021604339489646 [Eh]
	 Opposite-Spin Energy      =      -1.3076612989289575 [Eh]
	 Correlation Energy        =      -1.7098217328779222 [Eh]
	 Total Energy              =    -401.7973463301270272 [Eh]

	 ================> DF-SCS-MP2 Energies <==================
	-----------------------------------------------------------
	 SCS Same-Spin Scale       =       0.3333333333333333 [-]
	 SCS Opposite-Spin Scale   =       1.2000000000000000 [-]
	 SCS Same-Spin Energy      =      -0.1340534779829882 [Eh]
	 SCS Opposite-Spin Energy  =      -1.5691935587147490 [Eh]
	 SCS Correlation Energy    =      -1.7032470366977370 [Eh]
	 SCS Total Energy          =    -401.7907716339468607 [Eh]
	-----------------------------------------------------------

  Dipole Moment: [D]
     X:     3.1307      Y:     3.2067      Z:    -1.0430     Total:     4.6013

*** Psi4 exiting successfully. Buy a developer a beer!
