                               Psi4 1.3.2 release

  ==> Input File <==

--------------------------------------------------------------------------
#psi4
#
memory 32 gb

molecule  {
0 1
  O       -2.5211540    -0.5137840     0.0284240
  O       -0.0903380    -1.4616610     0.1717700
  N        0.9259230     0.4056680    -0.6455280
  C       -1.5147550     0.4028960    -0.3432490
  C        2.2711600    -0.1378510    -0.5222970
  C       -0.1583790    -0.2975740    -0.2472510
  C       -1.5866590     1.6313229     0.5552383
  C        2.8531060     0.0659690     0.8699860
  H       -1.6678869     0.7196401    -1.3872819
  H        2.2044940    -1.2028750    -0.7525030
  H        2.8934660     0.3357800    -1.2867330
  H        0.8101310     1.3771570    -0.9023240
  H       -1.3564630     1.3269670     1.5921410
  H       -2.5982940     2.0269070     0.5395510
  H       -0.8919110     2.4138320     0.2596650
  H        2.9042670     1.1289430     1.1200310
  H        2.2261210    -0.4398610     1.6074960
  H        3.8631580    -0.3501450     0.9292180
  H       -2.0326010    -1.3422410     0.2291570
units angstrom
no_reorient  #important for SAPT in psi4, default
symmetry c1  #important for SAPT in psi4, default
}

set PROPERTIES_ORIGIN ["COM"]
properties('MP2/aug-cc-pvtz', properties = ['dipole'])
--------------------------------------------------------------------------

    Molecular point group: c1
  Charge       = 0
  Multiplicity = 1
  Basis Set: AUG-CC-PVTZ
    Blend: AUG-CC-PVTZ
  Basis Set: (AUG-CC-PVTZ AUX)
    Blend: AUG-CC-PVTZ-JKFIT

    Orbital Energies [Eh]
    ---------------------

    Doubly Occupied:

       1A    -20.548839     2A    -20.533601     3A    -15.598796
       4A    -11.359451     5A    -11.298275     6A    -11.273785
       7A    -11.231314     8A    -11.224373     9A     -1.398534
      10A     -1.346839    11A     -1.246023    12A     -1.053063
      13A     -1.013030    14A     -0.902981    15A     -0.849357
      16A     -0.794345    17A     -0.744293    18A     -0.677280
      19A     -0.649359    20A     -0.642330    21A     -0.611251
      22A     -0.599514    23A     -0.575556    24A     -0.565237
      25A     -0.543825    26A     -0.533365    27A     -0.521156
      28A     -0.515164    29A     -0.502699    30A     -0.445642
      31A     -0.436464    32A     -0.403498

  @DF-RHF Final Energy:  -400.08752789196046

   => Energetics <=

    Nuclear Repulsion Energy =            400.3869313758783619
    One-Electron Energy =               -1339.6704435089204708
    Two-Electron Energy =                 539.1959842410816464
    Total Energy =                       -400.0875278919604625
  Basis Set: (AUG-CC-PVTZ AUX)
    Blend: AUG-CC-PVTZ-RI
    Molecular point group: c1

    Geometry (in Angstrom), charge = 0, multiplicity = 1:

       Center              X                  Y                   Z               Mass
    ------------   -----------------  -----------------  -----------------  -----------------
         O           -2.520923880476    -0.514652540822     0.029487378699    15.994914619570
         O           -0.090107880476    -1.462529540822     0.172833378699    15.994914619570
         N            0.926153119524     0.404799459178    -0.644464621301    14.003074004430
         C           -1.514524880476     0.402027459178    -0.342185621301    12.000000000000
         C            2.271390119524    -0.138719540822    -0.521233621301    12.000000000000
         C           -0.158148880476    -0.298442540822    -0.246187621301    12.000000000000
         C           -1.586428880476     1.630454359178     0.556301678699    12.000000000000
         C            2.853336119524     0.065100459178     0.871049378699    12.000000000000
         H           -1.667656780476     0.718771559178    -1.386218521301     1.007825032230
         H            2.204724119524    -1.203743540822    -0.751439621301     1.007825032230
         H            2.893696119524     0.334911459178    -1.285669621301     1.007825032230
         H            0.810361119524     1.376288459178    -0.901260621301     1.007825032230
         H           -1.356232880476     1.326098459178     1.593204378699     1.007825032230
         H           -2.598063880476     2.026038459178     0.540614378699     1.007825032230
         H           -0.891680880476     2.412963459178     0.260728378699     1.007825032230
         H            2.904497119524     1.128074459178     1.121094378699     1.007825032230
         H            2.226351119524    -0.440729540822     1.608559378699     1.007825032230
         H            3.863388119524    -0.351013540822     0.930281378699     1.007825032230
         H           -2.032370880476    -1.343109540822     0.230220378699     1.007825032230

  Basis Set: AUG-CC-PVTZ
    Blend: AUG-CC-PVTZ
  Basis Set: (AUG-CC-PVTZ AUX)
    Blend: AUG-CC-PVTZ-JKFIT
	 Reference Energy          =    -400.0875278919604625 [Eh]
	 Singles Energy            =      -0.0000000000000000 [Eh]
	 Same-Spin Energy          =      -0.4021206648373071 [Eh]
	 Opposite-Spin Energy      =      -1.3076533227863940 [Eh]
	 Correlation Energy        =      -1.7097739876237010 [Eh]
	 Total Energy              =    -401.7973018795841540 [Eh]

	 ================> DF-SCS-MP2 Energies <==================
	-----------------------------------------------------------
	 SCS Same-Spin Scale       =       0.3333333333333333 [-]
	 SCS Opposite-Spin Scale   =       1.2000000000000000 [-]
	 SCS Same-Spin Energy      =      -0.1340402216124357 [Eh]
	 SCS Opposite-Spin Energy  =      -1.5691839873436728 [Eh]
	 SCS Correlation Energy    =      -1.7032242089561085 [Eh]
	 SCS Total Energy          =    -401.7907521009165634 [Eh]
	-----------------------------------------------------------

  Dipole Moment: [D]
     X:     3.0977      Y:     3.1765      Z:    -1.0485     Total:     4.5591

*** Psi4 exiting successfully. Buy a developer a beer!
