                               Psi4 1.3.2 release

  ==> Input File <==

--------------------------------------------------------------------------
#psi4
#
memory 32 gb

molecule  {
0 1
  O       -2.5211540    -0.5137840     0.0284240
  O       -0.0474680    -1.4603559     0.1662025
  N        0.9259230     0.4056680    -0.6455280
  C       -1.4899729     0.4462650    -0.3621025
  C        2.2711600    -0.1378510    -0.5222970
  C       -0.1583790    -0.2975740    -0.2472510
  C       -1.5844930     1.6236140     0.5658530
  C        2.8531060     0.0659690     0.8699860
  H       -1.6669500     0.7105100    -1.3901450
  H        2.2044940    -1.2028750    -0.7525030
  H        2.8934660     0.3357800    -1.2867330
  H        0.8101310     1.3771570    -0.9023240
  H       -1.3564630     1.3269670     1.5921410
  H       -2.5982940     2.0269070     0.5395510
  H       -0.8919110     2.4138320     0.2596650
  H        2.9042670     1.1289430     1.1200310
  H        2.2261210    -0.4398610     1.6074960
  H        3.8631580    -0.3501450     0.9292180
  H       -2.0326010    -1.3422410     0.2291570
units angstrom
no_reorient  #important for SAPT in psi4, default
symmetry c1  #important for SAPT in psi4, default
}

set PROPERTIES_ORIGIN ["COM"]
properties('MP2/aug-cc-pvtz', properties = ['dipole'])
--------------------------------------------------------------------------

    Molecular point group: c1
  Charge       = 0
  Multiplicity = 1
  Basis Set: AUG-CC-PVTZ
    Blend: AUG-CC-PVTZ
  Basis Set: (AUG-CC-PVTZ AUX)
    Blend: AUG-CC-PVTZ-JKFIT

    Orbital Energies [Eh]
    ---------------------

    Doubly Occupied:

       1A    -20.545787     2A    -20.533646     3A    -15.596718
       4A    -11.360357     5A    -11.300206     6A    -11.272142
       7A    -11.233766     8A    -11.223468     9A     -1.394866
      10A     -1.332473    11A     -1.244027    12A     -1.058360
      13A     -1.015439    14A     -0.905322    15A     -0.849707
      16A     -0.793708    17A     -0.739362    18A     -0.675978
      19A     -0.647468    20A     -0.642580    21A     -0.609666
      22A     -0.597825    23A     -0.575801    24A     -0.565069
      25A     -0.539359    26A     -0.534217    27A     -0.520894
      28A     -0.513196    29A     -0.500617    30A     -0.452105
      31A     -0.438103    32A     -0.402287

  @DF-RHF Final Energy:  -400.08318033641473

   => Energetics <=

    Nuclear Repulsion Energy =            400.1399775194038853
    One-Electron Energy =               -1339.2172732006185925
    Two-Electron Energy =                 538.9941153448000932
    Total Energy =                       -400.0831803364146708
  Basis Set: (AUG-CC-PVTZ AUX)
    Blend: AUG-CC-PVTZ-RI
    Molecular point group: c1

    Geometry (in Angstrom), charge = 0, multiplicity = 1:

       Center              X                  Y                   Z               Mass
    ------------   -----------------  -----------------  -----------------  -----------------
         O           -2.529550735895    -0.518407225267     0.031117071692    15.994914619570
         O           -0.055864735895    -1.464979125267     0.168895571692    15.994914619570
         N            0.917526264105     0.401044774733    -0.642834928308    14.003074004430
         C           -1.498369635895     0.441641774733    -0.359409428308    12.000000000000
         C            2.262763264105    -0.142474225267    -0.519603928308    12.000000000000
         C           -0.166775735895    -0.302197225267    -0.244557928308    12.000000000000
         C           -1.592889735895     1.618990774733     0.568546071692    12.000000000000
         C            2.844709264105     0.061345774733     0.872679071692    12.000000000000
         H           -1.675346735895     0.705886774733    -1.387451928308     1.007825032230
         H            2.196097264105    -1.207498225267    -0.749809928308     1.007825032230
         H            2.885069264105     0.331156774733    -1.284039928308     1.007825032230
         H            0.801734264105     1.372533774733    -0.899630928308     1.007825032230
         H           -1.364859735895     1.322343774733     1.594834071692     1.007825032230
         H           -2.606690735895     2.022283774733     0.542244071692     1.007825032230
         H           -0.900307735895     2.409208774733     0.262358071692     1.007825032230
         H            2.895870264105     1.124319774733     1.122724071692     1.007825032230
         H            2.217724264105    -0.444484225267     1.610189071692     1.007825032230
         H            3.854761264105    -0.354768225267     0.931911071692     1.007825032230
         H           -2.040997735895    -1.346864225267     0.231850071692     1.007825032230

  Basis Set: AUG-CC-PVTZ
    Blend: AUG-CC-PVTZ
  Basis Set: (AUG-CC-PVTZ AUX)
    Blend: AUG-CC-PVTZ-JKFIT
	 Reference Energy          =    -400.0831803364147277 [Eh]
	 Singles Energy            =      -0.0000000000000000 [Eh]
	 Same-Spin Energy          =      -0.4023771407248744 [Eh]
	 Opposite-Spin Energy      =      -1.3089036379880865 [Eh]
	 Correlation Energy        =      -1.7112807787129609 [Eh]
	 Total Energy              =    -401.7944611151276604 [Eh]

	 ================> DF-SCS-MP2 Energies <==================
	-----------------------------------------------------------
	 SCS Same-Spin Scale       =       0.3333333333333333 [-]
	 SCS Opposite-Spin Scale   =       1.2000000000000000 [-]
	 SCS Same-Spin Energy      =      -0.1341257135749581 [Eh]
	 SCS Opposite-Spin Energy  =      -1.5706843655857037 [Eh]
	 SCS Correlation Energy    =      -1.7048100791606617 [Eh]
	 SCS Total Energy          =    -401.7879904155753934 [Eh]
	-----------------------------------------------------------

  Dipole Moment: [D]
     X:     3.0451      Y:     3.3103      Z:    -1.0616     Total:     4.6214

*** Psi4 exiting successfully. Buy a developer a beer!
