                               Psi4 1.3.2 release

  ==> Input File <==

--------------------------------------------------------------------------
#psi4
#
memory 32 gb

molecule  {
0 1
  O       -2.5211540    -0.5137840     0.0284240
  O       -0.0903380    -1.4616610     0.1717700
  N        0.9259230     0.4056680    -0.6455280
  C       -1.5147550     0.4028960    -0.3432490
  C        2.2711600    -0.1378510    -0.5222970
  C       -0.1583790    -0.2975740    -0.2472510
  C       -1.5844930     1.6236140     0.5658530
  C        2.8531060     0.0659690     0.8699860
  H       -1.6669500     0.7105100    -1.3901450
  H        2.2044940    -1.2028750    -0.7525030
  H        2.8934660     0.3357800    -1.2867330
  H        0.8215785     1.2811131    -0.8769365
  H       -1.3564630     1.3269670     1.5921410
  H       -2.5982940     2.0269070     0.5395510
  H       -0.8919110     2.4138320     0.2596650
  H        2.9042670     1.1289430     1.1200310
  H        2.2261210    -0.4398610     1.6074960
  H        3.8631580    -0.3501450     0.9292180
  H       -2.0326010    -1.3422410     0.2291570
units angstrom
no_reorient  #important for SAPT in psi4, default
symmetry c1  #important for SAPT in psi4, default
}

set PROPERTIES_ORIGIN ["COM"]
properties('MP2/aug-cc-pvtz', properties = ['dipole'])
--------------------------------------------------------------------------

    Molecular point group: c1
  Charge       = 0
  Multiplicity = 1
  Basis Set: AUG-CC-PVTZ
    Blend: AUG-CC-PVTZ
  Basis Set: (AUG-CC-PVTZ AUX)
    Blend: AUG-CC-PVTZ-JKFIT

    Orbital Energies [Eh]
    ---------------------

    Doubly Occupied:

       1A    -20.548896     2A    -20.534021     3A    -15.588707
       4A    -11.359644     5A    -11.298703     6A    -11.273840
       7A    -11.231576     8A    -11.224680     9A     -1.399603
      10A     -1.347474    11A     -1.259334    12A     -1.053682
      13A     -1.015531    14A     -0.904286    15A     -0.853191
      16A     -0.816757    17A     -0.744972    18A     -0.677911
      19A     -0.652458    20A     -0.642885    21A     -0.612540
      22A     -0.602782    23A     -0.576216    24A     -0.563727
      25A     -0.544541    26A     -0.535181    27A     -0.521469
      28A     -0.516608    29A     -0.503216    30A     -0.446443
      31A     -0.436864    32A     -0.405358

  @DF-RHF Final Energy:  -400.08131546556979

   => Energetics <=

    Nuclear Repulsion Energy =            401.0649799028542475
    One-Electron Energy =               -1340.9063971441157719
    Two-Electron Energy =                 539.7601017756917372
    Total Energy =                       -400.0813154655697872
  Basis Set: (AUG-CC-PVTZ AUX)
    Blend: AUG-CC-PVTZ-RI
    Molecular point group: c1

    Geometry (in Angstrom), charge = 0, multiplicity = 1:

       Center              X                  Y                   Z               Mass
    ------------   -----------------  -----------------  -----------------  -----------------
         O           -2.521252490349    -0.512957071727     0.028205534119    15.994914619570
         O           -0.090436490349    -1.460834071727     0.171551534119    15.994914619570
         N            0.925824509651     0.406494928273    -0.645746465881    14.003074004430
         C           -1.514853490349     0.403722928273    -0.343467465881    12.000000000000
         C            2.271061509651    -0.137024071727    -0.522515465881    12.000000000000
         C           -0.158477490349    -0.296747071727    -0.247469465881    12.000000000000
         C           -1.584591490349     1.624440928273     0.565634534119    12.000000000000
         C            2.853007509651     0.066795928273     0.869767534119    12.000000000000
         H           -1.667048490349     0.711336928273    -1.390363465881     1.007825032230
         H            2.204395509651    -1.202048071727    -0.752721465881     1.007825032230
         H            2.893367509651     0.336606928273    -1.286951465881     1.007825032230
         H            0.821480009651     1.281940028273    -0.877154965881     1.007825032230
         H           -1.356561490349     1.327793928273     1.591922534119     1.007825032230
         H           -2.598392490349     2.027733928273     0.539332534119     1.007825032230
         H           -0.892009490349     2.414658928273     0.259446534119     1.007825032230
         H            2.904168509651     1.129769928273     1.119812534119     1.007825032230
         H            2.226022509651    -0.439034071727     1.607277534119     1.007825032230
         H            3.863059509651    -0.349318071727     0.928999534119     1.007825032230
         H           -2.032699490349    -1.341414071727     0.228938534119     1.007825032230

  Basis Set: AUG-CC-PVTZ
    Blend: AUG-CC-PVTZ
  Basis Set: (AUG-CC-PVTZ AUX)
    Blend: AUG-CC-PVTZ-JKFIT
	 Reference Energy          =    -400.0813154655697872 [Eh]
	 Singles Energy            =      -0.0000000000000000 [Eh]
	 Same-Spin Energy          =      -0.4013716175569664 [Eh]
	 Opposite-Spin Energy      =      -1.3060087637683364 [Eh]
	 Correlation Energy        =      -1.7073803813253028 [Eh]
	 Total Energy              =    -401.7886958468951093 [Eh]

	 ================> DF-SCS-MP2 Energies <==================
	-----------------------------------------------------------
	 SCS Same-Spin Scale       =       0.3333333333333333 [-]
	 SCS Opposite-Spin Scale   =       1.2000000000000000 [-]
	 SCS Same-Spin Energy      =      -0.1337905391856554 [Eh]
	 SCS Opposite-Spin Energy  =      -1.5672105165220036 [Eh]
	 SCS Correlation Energy    =      -1.7010010557076591 [Eh]
	 SCS Total Energy          =    -401.7823165212774370 [Eh]
	-----------------------------------------------------------

  Dipole Moment: [D]
     X:     3.0831      Y:     3.0997      Z:    -1.0189     Total:     4.4891

*** Psi4 exiting successfully. Buy a developer a beer!
