                               Psi4 1.3.2 release

  ==> Input File <==

--------------------------------------------------------------------------
#psi4
#
memory 32 gb

molecule  {
0 1
  O       -2.5211540    -0.5137840     0.0284240
  O       -0.0903380    -1.4616610     0.1717700
  N        0.9259230     0.4056680    -0.6455280
  C       -1.5147550     0.4028960    -0.3432490
  C        2.2711600    -0.1378510    -0.5222970
  C       -0.1624254    -0.3013210    -0.2211309
  C       -1.5844930     1.6236140     0.5658530
  C        2.8531060     0.0659690     0.8699860
  H       -1.6839945     0.7179741    -1.3852973
  H        2.2044940    -1.2028750    -0.7525030
  H        2.8934660     0.3357800    -1.2867330
  H        0.8101310     1.3771570    -0.9023240
  H       -1.3564630     1.3269670     1.5921410
  H       -2.5982940     2.0269070     0.5395510
  H       -0.8919110     2.4138320     0.2596650
  H        2.9042670     1.1289430     1.1200310
  H        2.2261210    -0.4398610     1.6074960
  H        3.8631580    -0.3501450     0.9292180
  H       -2.0326010    -1.3422410     0.2291570
units angstrom
no_reorient  #important for SAPT in psi4, default
symmetry c1  #important for SAPT in psi4, default
}

set PROPERTIES_ORIGIN ["COM"]
properties('MP2/aug-cc-pvtz', properties = ['dipole'])
--------------------------------------------------------------------------

    Molecular point group: c1
  Charge       = 0
  Multiplicity = 1
  Basis Set: AUG-CC-PVTZ
    Blend: AUG-CC-PVTZ
  Basis Set: (AUG-CC-PVTZ AUX)
    Blend: AUG-CC-PVTZ-JKFIT

    Orbital Energies [Eh]
    ---------------------

    Doubly Occupied:

       1A    -20.548674     2A    -20.536951     3A    -15.596110
       4A    -11.359883     5A    -11.298044     6A    -11.272415
       7A    -11.231026     8A    -11.223681     9A     -1.404787
      10A     -1.348771    11A     -1.242622    12A     -1.052046
      13A     -1.011716    14A     -0.901575    15A     -0.848074
      16A     -0.791569    17A     -0.746015    18A     -0.677520
      19A     -0.647766    20A     -0.645098    21A     -0.611091
      22A     -0.599671    23A     -0.576065    24A     -0.563181
      25A     -0.543520    26A     -0.534859    27A     -0.522899
      28A     -0.517140    29A     -0.502363    30A     -0.445820
      31A     -0.437836    32A     -0.402671

  @DF-RHF Final Energy:  -400.08781262647466

   => Energetics <=

    Nuclear Repulsion Energy =            400.5019575139215817
    One-Electron Energy =               -1339.8966237116298998
    Two-Electron Energy =                 539.3068535712336597
    Total Energy =                       -400.0878126264747152
  Basis Set: (AUG-CC-PVTZ AUX)
    Blend: AUG-CC-PVTZ-RI
    Molecular point group: c1

    Geometry (in Angstrom), charge = 0, multiplicity = 1:

       Center              X                  Y                   Z               Mass
    ------------   -----------------  -----------------  -----------------  -----------------
         O           -2.520592493552    -0.513464028263     0.025705164891    15.994914619570
         O           -0.089776493552    -1.461341028263     0.169051164891    15.994914619570
         N            0.926484506448     0.405987971737    -0.648246835109    14.003074004430
         C           -1.514193493552     0.403215971737    -0.345967835109    12.000000000000
         C            2.271721506448    -0.137531028263    -0.525015835109    12.000000000000
         C           -0.161863893552    -0.301001028263    -0.223849735109    12.000000000000
         C           -1.583931493552     1.623933971737     0.563134164891    12.000000000000
         C            2.853667506448     0.066288971737     0.867267164891    12.000000000000
         H           -1.683432993552     0.718294071737    -1.388016135109     1.007825032230
         H            2.205055506448    -1.202555028263    -0.755221835109     1.007825032230
         H            2.894027506448     0.336099971737    -1.289451835109     1.007825032230
         H            0.810692506448     1.377476971737    -0.905042835109     1.007825032230
         H           -1.355901493552     1.327286971737     1.589422164891     1.007825032230
         H           -2.597732493552     2.027226971737     0.536832164891     1.007825032230
         H           -0.891349493552     2.414151971737     0.256946164891     1.007825032230
         H            2.904828506448     1.129262971737     1.117312164891     1.007825032230
         H            2.226682506448    -0.439541028263     1.604777164891     1.007825032230
         H            3.863719506448    -0.349825028263     0.926499164891     1.007825032230
         H           -2.032039493552    -1.341921028263     0.226438164891     1.007825032230

  Basis Set: AUG-CC-PVTZ
    Blend: AUG-CC-PVTZ
  Basis Set: (AUG-CC-PVTZ AUX)
    Blend: AUG-CC-PVTZ-JKFIT
	 Reference Energy          =    -400.0878126264746584 [Eh]
	 Singles Energy            =      -0.0000000000000000 [Eh]
	 Same-Spin Energy          =      -0.4019405992857500 [Eh]
	 Opposite-Spin Energy      =      -1.3073654948768758 [Eh]
	 Correlation Energy        =      -1.7093060941626259 [Eh]
	 Total Energy              =    -401.7971187206372861 [Eh]

	 ================> DF-SCS-MP2 Energies <==================
	-----------------------------------------------------------
	 SCS Same-Spin Scale       =       0.3333333333333333 [-]
	 SCS Opposite-Spin Scale   =       1.2000000000000000 [-]
	 SCS Same-Spin Energy      =      -0.1339801997619167 [Eh]
	 SCS Opposite-Spin Energy  =      -1.5688385938522509 [Eh]
	 SCS Correlation Energy    =      -1.7028187936141674 [Eh]
	 SCS Total Energy          =    -401.7906314200888005 [Eh]
	-----------------------------------------------------------

  Dipole Moment: [D]
     X:     3.0220      Y:     3.0998      Z:    -1.0032     Total:     4.4439

*** Psi4 exiting successfully. Buy a developer a beer!
