                               Psi4 1.3.2 release

  ==> Input File <==

--------------------------------------------------------------------------
#psi4
#
memory 32 gb

molecule  {
0 1
  O       -2.5211540    -0.5137840     0.0284240
  O       -0.0903380    -1.4616610     0.1717700
  N        0.9259230     0.4056680    -0.6455280
  C       -1.5084473     0.3878873    -0.3222229
  C        2.2711600    -0.1378510    -0.5222970
  C       -0.1583790    -0.2975740    -0.2472510
  C       -1.5844930     1.6236140     0.5658530
  C        2.8531060     0.0659690     0.8699860
  H       -1.6669500     0.7105100    -1.3901450
  H        2.2044940    -1.2028750    -0.7525030
  H        2.8934660     0.3357800    -1.2867330
  H        0.8101310     1.3771570    -0.9023240
  H       -1.3541646     1.3089798     1.5862541
  H       -2.5982940     2.0269070     0.5395510
  H       -0.8919110     2.4138320     0.2596650
  H        2.9042670     1.1289430     1.1200310
  H        2.2261210    -0.4398610     1.6074960
  H        3.8631580    -0.3501450     0.9292180
  H       -2.0326010    -1.3422410     0.2291570
units angstrom
no_reorient  #important for SAPT in psi4, default
symmetry c1  #important for SAPT in psi4, default
}

set PROPERTIES_ORIGIN ["COM"]
properties('MP2/aug-cc-pvtz', properties = ['dipole'])
--------------------------------------------------------------------------

    Molecular point group: c1
  Charge       = 0
  Multiplicity = 1
  Basis Set: AUG-CC-PVTZ
    Blend: AUG-CC-PVTZ
  Basis Set: (AUG-CC-PVTZ AUX)
    Blend: AUG-CC-PVTZ-JKFIT

    Orbital Energies [Eh]
    ---------------------

    Doubly Occupied:

       1A    -20.550299     2A    -20.533328     3A    -15.598804
       4A    -11.358938     5A    -11.298672     6A    -11.273927
       7A    -11.231380     8A    -11.224435     9A     -1.400517
      10A     -1.350782    11A     -1.246059    12A     -1.053388
      13A     -1.012846    14A     -0.904009    15A     -0.849100
      16A     -0.793903    17A     -0.746272    18A     -0.677157
      19A     -0.648464    20A     -0.643155    21A     -0.611696
      22A     -0.599695    23A     -0.575969    24A     -0.563513
      25A     -0.545593    26A     -0.534441    27A     -0.521339
      28A     -0.516748    29A     -0.503029    30A     -0.443675
      31A     -0.436554    32A     -0.403273

  @DF-RHF Final Energy:  -400.08683079131328

   => Energetics <=

    Nuclear Repulsion Energy =            400.8070891555844355
    One-Electron Energy =               -1340.4859220979283236
    Two-Electron Energy =                 539.5920021510305560
    Total Energy =                       -400.0868307913133322
  Basis Set: (AUG-CC-PVTZ AUX)
    Blend: AUG-CC-PVTZ-RI
    Molecular point group: c1

    Geometry (in Angstrom), charge = 0, multiplicity = 1:

       Center              X                  Y                   Z               Mass
    ------------   -----------------  -----------------  -----------------  -----------------
         O           -2.521820241356    -0.512090674488     0.026319678268    15.994914619570
         O           -0.091004241356    -1.459967674488     0.169665678268    15.994914619570
         N            0.925256758644     0.407361325512    -0.647632321732    14.003074004430
         C           -1.509113541356     0.389580625512    -0.324327221732    12.000000000000
         C            2.270493758644    -0.136157674488    -0.524401321732    12.000000000000
         C           -0.159045241356    -0.295880674488    -0.249355321732    12.000000000000
         C           -1.585159241356     1.625307325512     0.563748678268    12.000000000000
         C            2.852439758644     0.067662325512     0.867881678268    12.000000000000
         H           -1.667616241356     0.712203325512    -1.392249321732     1.007825032230
         H            2.203827758644    -1.201181674488    -0.754607321732     1.007825032230
         H            2.892799758644     0.337473325512    -1.288837321732     1.007825032230
         H            0.809464758644     1.378850325512    -0.904428321732     1.007825032230
         H           -1.354830841356     1.310673125512     1.584149778268     1.007825032230
         H           -2.598960241356     2.028600325512     0.537446678268     1.007825032230
         H           -0.892577241356     2.415525325512     0.257560678268     1.007825032230
         H            2.903600758644     1.130636325512     1.117926678268     1.007825032230
         H            2.225454758644    -0.438167674488     1.605391678268     1.007825032230
         H            3.862491758644    -0.348451674488     0.927113678268     1.007825032230
         H           -2.033267241356    -1.340547674488     0.227052678268     1.007825032230

  Basis Set: AUG-CC-PVTZ
    Blend: AUG-CC-PVTZ
  Basis Set: (AUG-CC-PVTZ AUX)
    Blend: AUG-CC-PVTZ-JKFIT
	 Reference Energy          =    -400.0868307913132753 [Eh]
	 Singles Energy            =      -0.0000000000000000 [Eh]
	 Same-Spin Energy          =      -0.4022345811731378 [Eh]
	 Opposite-Spin Energy      =      -1.3076606834074931 [Eh]
	 Correlation Energy        =      -1.7098952645806309 [Eh]
	 Total Energy              =    -401.7967260558938847 [Eh]

	 ================> DF-SCS-MP2 Energies <==================
	-----------------------------------------------------------
	 SCS Same-Spin Scale       =       0.3333333333333333 [-]
	 SCS Opposite-Spin Scale   =       1.2000000000000000 [-]
	 SCS Same-Spin Energy      =      -0.1340781937243793 [Eh]
	 SCS Opposite-Spin Energy  =      -1.5691928200889917 [Eh]
	 SCS Correlation Energy    =      -1.7032710138133711 [Eh]
	 SCS Total Energy          =    -401.7901018051266533 [Eh]
	-----------------------------------------------------------

  Dipole Moment: [D]
     X:     3.0711      Y:     3.1451      Z:    -1.0132     Total:     4.5111

*** Psi4 exiting successfully. Buy a developer a beer!
