                               Psi4 1.3.2 release

  ==> Input File <==

--------------------------------------------------------------------------
#psi4
#
memory 32 gb

molecule  {
0 1
  O       -2.5211540    -0.5137840     0.0284240
  O       -0.0903380    -1.4616610     0.1717700
  N        0.9328032     0.3964442    -0.6429086
  C       -1.5206800     0.3919596    -0.3384052
  C        2.2711600    -0.1378510    -0.5222970
  C       -0.1583790    -0.2975740    -0.2472510
  C       -1.5844930     1.6236140     0.5658530
  C        2.8531060     0.0659690     0.8699860
  H       -1.6669500     0.7105100    -1.3901450
  H        2.2044940    -1.2028750    -0.7525030
  H        2.8934660     0.3357800    -1.2867330
  H        0.8101310     1.3771570    -0.9023240
  H       -1.3564630     1.3269670     1.5921410
  H       -2.5982940     2.0269070     0.5395510
  H       -0.8919110     2.4138320     0.2596650
  H        2.9042670     1.1289430     1.1200310
  H        2.2261210    -0.4398610     1.6074960
  H        3.8631580    -0.3501450     0.9292180
  H       -2.0326010    -1.3422410     0.2291570
units angstrom
no_reorient  #important for SAPT in psi4, default
symmetry c1  #important for SAPT in psi4, default
}

set PROPERTIES_ORIGIN ["COM"]
properties('MP2/aug-cc-pvtz', properties = ['dipole'])
--------------------------------------------------------------------------

    Molecular point group: c1
  Charge       = 0
  Multiplicity = 1
  Basis Set: AUG-CC-PVTZ
    Blend: AUG-CC-PVTZ
  Basis Set: (AUG-CC-PVTZ AUX)
    Blend: AUG-CC-PVTZ-JKFIT

    Orbital Energies [Eh]
    ---------------------

    Doubly Occupied:

       1A    -20.550295     2A    -20.532754     3A    -15.599185
       4A    -11.358779     5A    -11.299133     6A    -11.272850
       7A    -11.231378     8A    -11.223884     9A     -1.399986
      10A     -1.351310    11A     -1.246135    12A     -1.052192
      13A     -1.011926    14A     -0.903177    15A     -0.849777
      16A     -0.791280    17A     -0.746492    18A     -0.678058
      19A     -0.651113    20A     -0.642084    21A     -0.611793
      22A     -0.598289    23A     -0.577102    24A     -0.563418
      25A     -0.545185    26A     -0.535360    27A     -0.520779
      28A     -0.515632    29A     -0.502319    30A     -0.444806
      31A     -0.435862    32A     -0.402368

  @DF-RHF Final Energy:  -400.08738729893457

   => Energetics <=

    Nuclear Repulsion Energy =            400.6146908468265906
    One-Electron Energy =               -1340.1147531814935974
    Two-Electron Energy =                 539.4126750357324909
    Total Energy =                       -400.0873872989345728
  Basis Set: (AUG-CC-PVTZ AUX)
    Blend: AUG-CC-PVTZ-RI
    Molecular point group: c1

    Geometry (in Angstrom), charge = 0, multiplicity = 1:

       Center              X                  Y                   Z               Mass
    ------------   -----------------  -----------------  -----------------  -----------------
         O           -2.521369564079    -0.511559699548     0.027614317021    15.994914619570
         O           -0.090553564079    -1.459436699548     0.170960317021    15.994914619570
         N            0.932587635921     0.398668500452    -0.643718282979    14.003074004430
         C           -1.520895564079     0.394183900452    -0.339214882979    12.000000000000
         C            2.270944435921    -0.135626699548    -0.523106682979    12.000000000000
         C           -0.158594564079    -0.295349699548    -0.248060682979    12.000000000000
         C           -1.584708564079     1.625838300452     0.565043317021    12.000000000000
         C            2.852890435921     0.068193300452     0.869176317021    12.000000000000
         H           -1.667165564079     0.712734300452    -1.390954682979     1.007825032230
         H            2.204278435921    -1.200650699548    -0.753312682979     1.007825032230
         H            2.893250435921     0.338004300452    -1.287542682979     1.007825032230
         H            0.809915435921     1.379381300452    -0.903133682979     1.007825032230
         H           -1.356678564079     1.329191300452     1.591331317021     1.007825032230
         H           -2.598509564079     2.029131300452     0.538741317021     1.007825032230
         H           -0.892126564079     2.416056300452     0.258855317021     1.007825032230
         H            2.904051435921     1.131167300452     1.119221317021     1.007825032230
         H            2.225905435921    -0.437636699548     1.606686317021     1.007825032230
         H            3.862942435921    -0.347920699548     0.928408317021     1.007825032230
         H           -2.032816564079    -1.340016699548     0.228347317021     1.007825032230

  Basis Set: AUG-CC-PVTZ
    Blend: AUG-CC-PVTZ
  Basis Set: (AUG-CC-PVTZ AUX)
    Blend: AUG-CC-PVTZ-JKFIT
	 Reference Energy          =    -400.0873872989345728 [Eh]
	 Singles Energy            =      -0.0000000000000000 [Eh]
	 Same-Spin Energy          =      -0.4022072995872819 [Eh]
	 Opposite-Spin Energy      =      -1.3075489777029197 [Eh]
	 Correlation Energy        =      -1.7097562772902015 [Eh]
	 Total Energy              =    -401.7971435762247552 [Eh]

	 ================> DF-SCS-MP2 Energies <==================
	-----------------------------------------------------------
	 SCS Same-Spin Scale       =       0.3333333333333333 [-]
	 SCS Opposite-Spin Scale   =       1.2000000000000000 [-]
	 SCS Same-Spin Energy      =      -0.1340690998624273 [Eh]
	 SCS Opposite-Spin Energy  =      -1.5690587732435035 [Eh]
	 SCS Correlation Energy    =      -1.7031278731059307 [Eh]
	 SCS Total Energy          =    -401.7905151720405001 [Eh]
	-----------------------------------------------------------

  Dipole Moment: [D]
     X:     3.0429      Y:     3.1543      Z:    -1.0413     Total:     4.5048

*** Psi4 exiting successfully. Buy a developer a beer!
