                               Psi4 1.3.2 release

  ==> Input File <==

--------------------------------------------------------------------------
#psi4
#
memory 32 gb

molecule  {
0 1
  O       -2.5211540    -0.5137840     0.0284240
  O       -0.0903380    -1.4616610     0.1717700
  N        0.9259230     0.4056680    -0.6455280
  C       -1.5147550     0.4028960    -0.3432490
  C        2.2614289    -0.1590588    -0.5122280
  C       -0.1442274    -0.3152988    -0.2407197
  C       -1.5844930     1.6236140     0.5658530
  C        2.8531060     0.0659690     0.8699860
  H       -1.6669500     0.7105100    -1.3901450
  H        2.2044940    -1.2028750    -0.7525030
  H        2.8934660     0.3357800    -1.2867330
  H        0.8101310     1.3771570    -0.9023240
  H       -1.3564630     1.3269670     1.5921410
  H       -2.5982940     2.0269070     0.5395510
  H       -0.8919110     2.4138320     0.2596650
  H        2.9042670     1.1289430     1.1200310
  H        2.2261210    -0.4398610     1.6074960
  H        3.8631580    -0.3501450     0.9292180
  H       -2.0326010    -1.3422410     0.2291570
units angstrom
no_reorient  #important for SAPT in psi4, default
symmetry c1  #important for SAPT in psi4, default
}

set PROPERTIES_ORIGIN ["COM"]
properties('MP2/aug-cc-pvtz', properties = ['dipole'])
--------------------------------------------------------------------------

    Molecular point group: c1
  Charge       = 0
  Multiplicity = 1
  Basis Set: AUG-CC-PVTZ
    Blend: AUG-CC-PVTZ
  Basis Set: (AUG-CC-PVTZ AUX)
    Blend: AUG-CC-PVTZ-JKFIT

    Orbital Energies [Eh]
    ---------------------

    Doubly Occupied:

       1A    -20.547703     2A    -20.536370     3A    -15.597209
       4A    -11.357373     5A    -11.296802     6A    -11.273385
       7A    -11.230037     8A    -11.224340     9A     -1.407739
      10A     -1.348448    11A     -1.247755    12A     -1.050016
      13A     -1.011915    14A     -0.899503    15A     -0.846849
      16A     -0.796840    17A     -0.742351    18A     -0.678122
      19A     -0.647543    20A     -0.645280    21A     -0.611038
      22A     -0.603268    23A     -0.575730    24A     -0.562557
      25A     -0.544362    26A     -0.534758    27A     -0.523019
      28A     -0.517566    29A     -0.503514    30A     -0.445236
      31A     -0.433186    32A     -0.404752

  @DF-RHF Final Energy:  -400.08788159063971

   => Energetics <=

    Nuclear Repulsion Energy =            400.6803879577989846
    One-Electron Energy =               -1340.2474110498947084
    Two-Electron Energy =                 539.4791415014560698
    Total Energy =                       -400.0878815906396540
  Basis Set: (AUG-CC-PVTZ AUX)
    Blend: AUG-CC-PVTZ-RI
    Molecular point group: c1

    Geometry (in Angstrom), charge = 0, multiplicity = 1:

       Center              X                  Y                   Z               Mass
    ------------   -----------------  -----------------  -----------------  -----------------
         O           -2.521607028144    -0.509793431611     0.026722625368    15.994914619570
         O           -0.090791028144    -1.457670431611     0.170068625368    15.994914619570
         N            0.925469971856     0.409658568389    -0.647229374632    14.003074004430
         C           -1.515208028144     0.406886568389    -0.344950374632    12.000000000000
         C            2.260975871856    -0.155068231611    -0.513929374632    12.000000000000
         C           -0.144680428144    -0.311308231611    -0.242421074632    12.000000000000
         C           -1.584946028144     1.627604568389     0.564151625368    12.000000000000
         C            2.852652971856     0.069959568389     0.868284625368    12.000000000000
         H           -1.667403028144     0.714500568389    -1.391846374632     1.007825032230
         H            2.204040971856    -1.198884431611    -0.754204374632     1.007825032230
         H            2.893012971856     0.339770568389    -1.288434374632     1.007825032230
         H            0.809677971856     1.381147568389    -0.904025374632     1.007825032230
         H           -1.356916028144     1.330957568389     1.590439625368     1.007825032230
         H           -2.598747028144     2.030897568389     0.537849625368     1.007825032230
         H           -0.892364028144     2.417822568389     0.257963625368     1.007825032230
         H            2.903813971856     1.132933568389     1.118329625368     1.007825032230
         H            2.225667971856    -0.435870431611     1.605794625368     1.007825032230
         H            3.862704971856    -0.346154431611     0.927516625368     1.007825032230
         H           -2.033054028144    -1.338250431611     0.227455625368     1.007825032230

  Basis Set: AUG-CC-PVTZ
    Blend: AUG-CC-PVTZ
  Basis Set: (AUG-CC-PVTZ AUX)
    Blend: AUG-CC-PVTZ-JKFIT
	 Reference Energy          =    -400.0878815906397108 [Eh]
	 Singles Energy            =      -0.0000000000000000 [Eh]
	 Same-Spin Energy          =      -0.4016636882121097 [Eh]
	 Opposite-Spin Energy      =      -1.3067684657684688 [Eh]
	 Correlation Energy        =      -1.7084321539805787 [Eh]
	 Total Energy              =    -401.7963137446203064 [Eh]

	 ================> DF-SCS-MP2 Energies <==================
	-----------------------------------------------------------
	 SCS Same-Spin Scale       =       0.3333333333333333 [-]
	 SCS Opposite-Spin Scale   =       1.2000000000000000 [-]
	 SCS Same-Spin Energy      =      -0.1338878960707032 [Eh]
	 SCS Opposite-Spin Energy  =      -1.5681221589221626 [Eh]
	 SCS Correlation Energy    =      -1.7020100549928658 [Eh]
	 SCS Total Energy          =    -401.7898916456325651 [Eh]
	-----------------------------------------------------------

  Dipole Moment: [D]
     X:     3.1207      Y:     3.0633      Z:    -1.0095     Total:     4.4880

*** Psi4 exiting successfully. Buy a developer a beer!
