                               Psi4 1.3.2 release

  ==> Input File <==

--------------------------------------------------------------------------
#psi4
#
memory 32 gb

molecule  {
0 1
  O       -2.5211540    -0.5137840     0.0284240
  O       -0.0903380    -1.4616610     0.1717700
  N        0.9259230     0.4056680    -0.6455280
  C       -1.5147550     0.4028960    -0.3432490
  C        2.2711600    -0.1378510    -0.5222970
  C       -0.1583790    -0.2975740    -0.2472510
  C       -1.5844930     1.6236140     0.5658530
  C        2.8531060     0.0659690     0.8699860
  H       -1.6669500     0.7105100    -1.3901450
  H        2.2044940    -1.2028750    -0.7525030
  H        2.8934660     0.3357800    -1.2867330
  H        0.8330260     1.1850692    -0.8515490
  H       -1.3564630     1.3269670     1.5921410
  H       -2.5982940     2.0269070     0.5395510
  H       -0.8919110     2.4138320     0.2596650
  H        2.9042670     1.1289430     1.1200310
  H        2.2261210    -0.4398610     1.6074960
  H        3.8631580    -0.3501450     0.9292180
  H       -2.0326010    -1.3422410     0.2291570
units angstrom
no_reorient  #important for SAPT in psi4, default
symmetry c1  #important for SAPT in psi4, default
}

set PROPERTIES_ORIGIN ["COM"]
properties('MP2/aug-cc-pvtz', properties = ['dipole'])
--------------------------------------------------------------------------

    Molecular point group: c1
  Charge       = 0
  Multiplicity = 1
  Basis Set: AUG-CC-PVTZ
    Blend: AUG-CC-PVTZ
  Basis Set: (AUG-CC-PVTZ AUX)
    Blend: AUG-CC-PVTZ-JKFIT

    Orbital Energies [Eh]
    ---------------------

    Doubly Occupied:

       1A    -20.549292     2A    -20.534738     3A    -15.577551
       4A    -11.360263     5A    -11.299179     6A    -11.274032
       7A    -11.231707     8A    -11.224991     9A     -1.401344
      10A     -1.348542    11A     -1.277418    12A     -1.054494
      13A     -1.019109    14A     -0.906435    15A     -0.863543
      16A     -0.833614    17A     -0.745571    18A     -0.678643
      19A     -0.655353    20A     -0.643581    21A     -0.613998
      22A     -0.605184    23A     -0.576691    24A     -0.564038
      25A     -0.545016    26A     -0.535416    27A     -0.522002
      28A     -0.517863    29A     -0.503751    30A     -0.446811
      31A     -0.437660    32A     -0.407560

  @DF-RHF Final Energy:  -400.04293294121339

   => Energetics <=

    Nuclear Repulsion Energy =            401.7942827910207484
    One-Electron Energy =               -1342.1636517139081661
    Two-Electron Energy =                 540.3264359816739670
    Total Energy =                       -400.0429329412133939
  Basis Set: (AUG-CC-PVTZ AUX)
    Blend: AUG-CC-PVTZ-RI
    Molecular point group: c1

    Geometry (in Angstrom), charge = 0, multiplicity = 1:

       Center              X                  Y                   Z               Mass
    ------------   -----------------  -----------------  -----------------  -----------------
         O           -2.521351031327    -0.512130318301     0.027986996528    15.994914619570
         O           -0.090535031327    -1.460007318301     0.171332996528    15.994914619570
         N            0.925725968673     0.407321681699    -0.645965003472    14.003074004430
         C           -1.514952031327     0.404549681699    -0.343686003472    12.000000000000
         C            2.270962968673    -0.136197318301    -0.522734003472    12.000000000000
         C           -0.158576031327    -0.295920318301    -0.247688003472    12.000000000000
         C           -1.584690031327     1.625267681699     0.565415996528    12.000000000000
         C            2.852908968673     0.067622681699     0.869548996528    12.000000000000
         H           -1.667147031327     0.712163681699    -1.390582003472     1.007825032230
         H            2.204296968673    -1.201221318301    -0.752940003472     1.007825032230
         H            2.893268968673     0.337433681699    -1.287170003472     1.007825032230
         H            0.832828968673     1.186722881699    -0.851986003472     1.007825032230
         H           -1.356660031327     1.328620681699     1.591703996528     1.007825032230
         H           -2.598491031327     2.028560681699     0.539113996528     1.007825032230
         H           -0.892108031327     2.415485681699     0.259227996528     1.007825032230
         H            2.904069968673     1.130596681699     1.119593996528     1.007825032230
         H            2.225923968673    -0.438207318301     1.607058996528     1.007825032230
         H            3.862960968673    -0.348491318301     0.928780996528     1.007825032230
         H           -2.032798031327    -1.340587318301     0.228719996528     1.007825032230

  Basis Set: AUG-CC-PVTZ
    Blend: AUG-CC-PVTZ
  Basis Set: (AUG-CC-PVTZ AUX)
    Blend: AUG-CC-PVTZ-JKFIT
	 Reference Energy          =    -400.0429329412133939 [Eh]
	 Singles Energy            =      -0.0000000000000000 [Eh]
	 Same-Spin Energy          =      -0.4007552362348653 [Eh]
	 Opposite-Spin Energy      =      -1.3048815098622555 [Eh]
	 Correlation Energy        =      -1.7056367460971207 [Eh]
	 Total Energy              =    -401.7485696873105212 [Eh]

	 ================> DF-SCS-MP2 Energies <==================
	-----------------------------------------------------------
	 SCS Same-Spin Scale       =       0.3333333333333333 [-]
	 SCS Opposite-Spin Scale   =       1.2000000000000000 [-]
	 SCS Same-Spin Energy      =      -0.1335850787449551 [Eh]
	 SCS Opposite-Spin Energy  =      -1.5658578118347066 [Eh]
	 SCS Correlation Energy    =      -1.6994428905796617 [Eh]
	 SCS Total Energy          =    -401.7423758317930833 [Eh]
	-----------------------------------------------------------

  Dipole Moment: [D]
     X:     3.0689      Y:     3.0239      Z:    -0.9925     Total:     4.4212

*** Psi4 exiting successfully. Buy a developer a beer!
