                               Psi4 1.3.2 release

  ==> Input File <==

--------------------------------------------------------------------------
#psi4
#
memory 32 gb

molecule  {
0 1
  O       -2.5211540    -0.5137840     0.0284240
  O       -0.0903380    -1.4616610     0.1717700
  N        0.9259230     0.4056680    -0.6455280
  C       -1.5147550     0.4028960    -0.3432490
  C        2.0863889    -0.0631975    -0.5392230
  C       -0.1583790    -0.2975740    -0.2472510
  C       -1.5844930     1.6236140     0.5658530
  C        2.8531060     0.0659690     0.8699860
  H       -1.6669500     0.7105100    -1.3901450
  H        2.2044940    -1.2028750    -0.7525030
  H        2.8934660     0.3357800    -1.2867330
  H        0.8101310     1.3771570    -0.9023240
  H       -1.3564630     1.3269670     1.5921410
  H       -2.5982940     2.0269070     0.5395510
  H       -0.8919110     2.4138320     0.2596650
  H        2.9042670     1.1289430     1.1200310
  H        2.2261210    -0.4398610     1.6074960
  H        3.8631580    -0.3501450     0.9292180
  H       -2.0326010    -1.3422410     0.2291570
units angstrom
no_reorient  #important for SAPT in psi4, default
symmetry c1  #important for SAPT in psi4, default
}

set PROPERTIES_ORIGIN ["COM"]
properties('MP2/aug-cc-pvtz', properties = ['dipole'])
--------------------------------------------------------------------------

    Molecular point group: c1
  Charge       = 0
  Multiplicity = 1
  Basis Set: AUG-CC-PVTZ
    Blend: AUG-CC-PVTZ
  Basis Set: (AUG-CC-PVTZ AUX)
    Blend: AUG-CC-PVTZ-JKFIT

    Orbital Energies [Eh]
    ---------------------

    Doubly Occupied:

       1A    -20.553696     2A    -20.543927     3A    -15.605611
       4A    -11.367988     5A    -11.304479     6A    -11.273290
       7A    -11.236221     8A    -11.219288     9A     -1.412780
      10A     -1.356087    11A     -1.301083    12A     -1.058208
      13A     -0.996995    14A     -0.919645    15A     -0.851330
      16A     -0.817485    17A     -0.748373    18A     -0.701238
      19A     -0.668823    20A     -0.650675    21A     -0.625272
      22A     -0.584817    23A     -0.577269    24A     -0.568964
      25A     -0.546900    26A     -0.538290    27A     -0.526037
      28A     -0.504310    29A     -0.470990    30A     -0.451196
      31A     -0.445661    32A     -0.383950

  @DF-RHF Final Energy:  -400.03731292939642

   => Energetics <=

    Nuclear Repulsion Energy =            403.5912642040456717
    One-Electron Energy =               -1345.6353997135111058
    Two-Electron Energy =                 542.0068225800689561
    Total Energy =                       -400.0373129293964212
  Basis Set: (AUG-CC-PVTZ AUX)
    Blend: AUG-CC-PVTZ-RI
    Molecular point group: c1

    Geometry (in Angstrom), charge = 0, multiplicity = 1:

       Center              X                  Y                   Z               Mass
    ------------   -----------------  -----------------  -----------------  -----------------
         O           -2.502215851118    -0.521435429315     0.030158900648    15.994914619570
         O           -0.071399851118    -1.469312429315     0.173504900648    15.994914619570
         N            0.944861148882     0.398016570685    -0.643793099352    14.003074004430
         C           -1.495816851118     0.395244570685    -0.341514099352    12.000000000000
         C            2.105327048882    -0.070848929315    -0.537488099352    12.000000000000
         C           -0.139440851118    -0.305225429315    -0.245516099352    12.000000000000
         C           -1.565554851118     1.615962570685     0.567587900648    12.000000000000
         C            2.872044148882     0.058317570685     0.871720900648    12.000000000000
         H           -1.648011851118     0.702858570685    -1.388410099352     1.007825032230
         H            2.223432148882    -1.210526429315    -0.750768099352     1.007825032230
         H            2.912404148882     0.328128570685    -1.284998099352     1.007825032230
         H            0.829069148882     1.369505570685    -0.900589099352     1.007825032230
         H           -1.337524851118     1.319315570685     1.593875900648     1.007825032230
         H           -2.579355851118     2.019255570685     0.541285900648     1.007825032230
         H           -0.872972851118     2.406180570685     0.261399900648     1.007825032230
         H            2.923205148882     1.121291570685     1.121765900648     1.007825032230
         H            2.245059148882    -0.447512429315     1.609230900648     1.007825032230
         H            3.882096148882    -0.357796429315     0.930952900648     1.007825032230
         H           -2.013662851118    -1.349892429315     0.230891900648     1.007825032230

  Basis Set: AUG-CC-PVTZ
    Blend: AUG-CC-PVTZ
  Basis Set: (AUG-CC-PVTZ AUX)
    Blend: AUG-CC-PVTZ-JKFIT
	 Reference Energy          =    -400.0373129293964212 [Eh]
	 Singles Energy            =      -0.0000000000000000 [Eh]
	 Same-Spin Energy          =      -0.4047669601265128 [Eh]
	 Opposite-Spin Energy      =      -1.3106020176174829 [Eh]
	 Correlation Energy        =      -1.7153689777439958 [Eh]
	 Total Energy              =    -401.7526819071404134 [Eh]

	 ================> DF-SCS-MP2 Energies <==================
	-----------------------------------------------------------
	 SCS Same-Spin Scale       =       0.3333333333333333 [-]
	 SCS Opposite-Spin Scale   =       1.2000000000000000 [-]
	 SCS Same-Spin Energy      =      -0.1349223200421709 [Eh]
	 SCS Opposite-Spin Energy  =      -1.5727224211409794 [Eh]
	 SCS Correlation Energy    =      -1.7076447411831503 [Eh]
	 SCS Total Energy          =    -401.7449576705795948 [Eh]
	-----------------------------------------------------------

  Dipole Moment: [D]
     X:     2.3712      Y:     3.2429      Z:    -1.1269     Total:     4.1724

*** Psi4 exiting successfully. Buy a developer a beer!
