                               Psi4 1.3.2 release

  ==> Input File <==

--------------------------------------------------------------------------
#psi4
#
memory 32 gb

molecule  {
0 1
  O       -2.5211540    -0.5137840     0.0284240
  O       -0.0903380    -1.4616610     0.1717700
  N        0.9259230     0.4056680    -0.6455280
  C       -1.5147550     0.4028960    -0.3432490
  C        2.2711600    -0.1378510    -0.5222970
  C       -0.1515841    -0.3071073    -0.2457599
  C       -1.5844930     1.6236140     0.5658530
  C        2.8531060     0.0659690     0.8699860
  H       -1.6669500     0.7105100    -1.3901450
  H        2.2044940    -1.2028750    -0.7525030
  H        2.8934660     0.3357800    -1.2867330
  H        0.8187716     1.3776911    -0.9040478
  H       -1.3564630     1.3269670     1.5921410
  H       -2.5982940     2.0269070     0.5395510
  H       -0.8919110     2.4138320     0.2596650
  H        2.9042670     1.1289430     1.1200310
  H        2.2261210    -0.4398610     1.6074960
  H        3.8631580    -0.3501450     0.9292180
  H       -2.0326010    -1.3422410     0.2291570
units angstrom
no_reorient  #important for SAPT in psi4, default
symmetry c1  #important for SAPT in psi4, default
}

set PROPERTIES_ORIGIN ["COM"]
properties('MP2/aug-cc-pvtz', properties = ['dipole'])
--------------------------------------------------------------------------

    Molecular point group: c1
  Charge       = 0
  Multiplicity = 1
  Basis Set: AUG-CC-PVTZ
    Blend: AUG-CC-PVTZ
  Basis Set: (AUG-CC-PVTZ AUX)
    Blend: AUG-CC-PVTZ-JKFIT

    Orbital Energies [Eh]
    ---------------------

    Doubly Occupied:

       1A    -20.548094     2A    -20.534983     3A    -15.597916
       4A    -11.358630     5A    -11.297558     6A    -11.273243
       7A    -11.230636     8A    -11.224323     9A     -1.402832
      10A     -1.347692    11A     -1.246766    12A     -1.051271
      13A     -1.012169    14A     -0.901505    15A     -0.848109
      16A     -0.795593    17A     -0.743445    18A     -0.677119
      19A     -0.648418    20A     -0.643976    21A     -0.611303
      22A     -0.600642    23A     -0.575692    24A     -0.562771
      25A     -0.543921    26A     -0.534591    27A     -0.522848
      28A     -0.515809    29A     -0.502961    30A     -0.445650
      31A     -0.434939    32A     -0.404039

  @DF-RHF Final Energy:  -400.08842581572577

   => Energetics <=

    Nuclear Repulsion Energy =            400.4695759700501299
    One-Electron Energy =               -1339.8371143175363613
    Two-Electron Energy =                 539.2791125317605747
    Total Energy =                       -400.0884258157257136
  Basis Set: (AUG-CC-PVTZ AUX)
    Blend: AUG-CC-PVTZ-RI
    Molecular point group: c1

    Geometry (in Angstrom), charge = 0, multiplicity = 1:

       Center              X                  Y                   Z               Mass
    ------------   -----------------  -----------------  -----------------  -----------------
         O           -2.521924771034    -0.512811307951     0.028286080148    15.994914619570
         O           -0.091108771034    -1.460688307951     0.171632080148    15.994914619570
         N            0.925152228966     0.406640692049    -0.645665919852    14.003074004430
         C           -1.515525771034     0.403868692049    -0.343386919852    12.000000000000
         C            2.270389228966    -0.136878307951    -0.522434919852    12.000000000000
         C           -0.152354871034    -0.306134607951    -0.245897819852    12.000000000000
         C           -1.585263771034     1.624586692049     0.565715080148    12.000000000000
         C            2.852335228966     0.066941692049     0.869848080148    12.000000000000
         H           -1.667720771034     0.711482692049    -1.390282919852     1.007825032230
         H            2.203723228966    -1.201902307951    -0.752640919852     1.007825032230
         H            2.892695228966     0.336752692049    -1.286870919852     1.007825032230
         H            0.818000828966     1.378663792049    -0.904185719852     1.007825032230
         H           -1.357233771034     1.327939692049     1.592003080148     1.007825032230
         H           -2.599064771034     2.027879692049     0.539413080148     1.007825032230
         H           -0.892681771034     2.414804692049     0.259527080148     1.007825032230
         H            2.903496228966     1.129915692049     1.119893080148     1.007825032230
         H            2.225350228966    -0.438888307951     1.607358080148     1.007825032230
         H            3.862387228966    -0.349172307951     0.929080080148     1.007825032230
         H           -2.033371771034    -1.341268307951     0.229019080148     1.007825032230

  Basis Set: AUG-CC-PVTZ
    Blend: AUG-CC-PVTZ
  Basis Set: (AUG-CC-PVTZ AUX)
    Blend: AUG-CC-PVTZ-JKFIT
	 Reference Energy          =    -400.0884258157257705 [Eh]
	 Singles Energy            =      -0.0000000000000000 [Eh]
	 Same-Spin Energy          =      -0.4018758953068607 [Eh]
	 Opposite-Spin Energy      =      -1.3071815107937870 [Eh]
	 Correlation Energy        =      -1.7090574061006478 [Eh]
	 Total Energy              =    -401.7974832218264396 [Eh]

	 ================> DF-SCS-MP2 Energies <==================
	-----------------------------------------------------------
	 SCS Same-Spin Scale       =       0.3333333333333333 [-]
	 SCS Opposite-Spin Scale   =       1.2000000000000000 [-]
	 SCS Same-Spin Energy      =      -0.1339586317689536 [Eh]
	 SCS Opposite-Spin Energy  =      -1.5686178129525443 [Eh]
	 SCS Correlation Energy    =      -1.7025764447214979 [Eh]
	 SCS Total Energy          =    -401.7910022604472715 [Eh]
	-----------------------------------------------------------

  Dipole Moment: [D]
     X:     3.1160      Y:     3.1258      Z:    -1.0367     Total:     4.5337

*** Psi4 exiting successfully. Buy a developer a beer!
