                               Psi4 1.3.2 release

  ==> Input File <==

--------------------------------------------------------------------------
#psi4
#
memory 32 gb

molecule  {
0 1
  O       -2.5211540    -0.5137840     0.0284240
  O       -0.0903380    -1.4616610     0.1717700
  N        0.9259230     0.4056680    -0.6455280
  C       -1.5147550     0.4028960    -0.3432490
  C        2.2711600    -0.1378510    -0.5222970
  C       -0.1845692    -0.3510491    -0.3007977
  C       -1.6590580     1.6358012     0.5402687
  C        2.8531060     0.0659690     0.8699860
  H       -1.6669500     0.7105100    -1.3901450
  H        2.2044940    -1.2028750    -0.7525030
  H        2.8934660     0.3357800    -1.2867330
  H        0.8101310     1.3771570    -0.9023240
  H       -1.3564630     1.3269670     1.5921410
  H       -2.5982940     2.0269070     0.5395510
  H       -0.8919110     2.4138320     0.2596650
  H        2.9042670     1.1289430     1.1200310
  H        2.2261210    -0.4398610     1.6074960
  H        3.8631580    -0.3501450     0.9292180
  H       -2.0326010    -1.3422410     0.2291570
units angstrom
no_reorient  #important for SAPT in psi4, default
symmetry c1  #important for SAPT in psi4, default
}

set PROPERTIES_ORIGIN ["COM"]
properties('MP2/aug-cc-pvtz', properties = ['dipole'])
--------------------------------------------------------------------------

    Molecular point group: c1
  Charge       = 0
  Multiplicity = 1
  Basis Set: AUG-CC-PVTZ
    Blend: AUG-CC-PVTZ
  Basis Set: (AUG-CC-PVTZ AUX)
    Blend: AUG-CC-PVTZ-JKFIT

    Orbital Energies [Eh]
    ---------------------

    Doubly Occupied:

       1A    -20.548442     2A    -20.543176     3A    -15.592279
       4A    -11.363019     5A    -11.298404     6A    -11.270538
       7A    -11.233446     8A    -11.221943     9A     -1.415687
      10A     -1.351650    11A     -1.236206    12A     -1.048680
      13A     -1.009682    14A     -0.904868    15A     -0.846796
      16A     -0.788141    17A     -0.744403    18A     -0.677448
      19A     -0.652159    20A     -0.645950    21A     -0.610425
      22A     -0.599353    23A     -0.584167    24A     -0.569151
      25A     -0.541470    26A     -0.529148    27A     -0.523060
      28A     -0.514192    29A     -0.501464    30A     -0.448333
      31A     -0.437757    32A     -0.399824

  @DF-RHF Final Energy:  -400.07677486924683

   => Energetics <=

    Nuclear Repulsion Energy =            399.8217577772455229
    One-Electron Energy =               -1338.4945370496704982
    Two-Electron Energy =                 538.5960044031781990
    Total Energy =                       -400.0767748692468331
  Basis Set: (AUG-CC-PVTZ AUX)
    Blend: AUG-CC-PVTZ-RI
    Molecular point group: c1

    Geometry (in Angstrom), charge = 0, multiplicity = 1:

       Center              X                  Y                   Z               Mass
    ------------   -----------------  -----------------  -----------------  -----------------
         O           -2.510827053676    -0.509552025337     0.036534596857    15.994914619570
         O           -0.080011053676    -1.457429025337     0.179880596857    15.994914619570
         N            0.936249946324     0.409899974663    -0.637417403143    14.003074004430
         C           -1.504428053676     0.407127974663    -0.335138403143    12.000000000000
         C            2.281486946324    -0.133619025337    -0.514186403143    12.000000000000
         C           -0.174242253676    -0.346817125337    -0.292687103143    12.000000000000
         C           -1.648731053676     1.640033174663     0.548379296857    12.000000000000
         C            2.863432946324     0.070200974663     0.878096596857    12.000000000000
         H           -1.656623053676     0.714741974663    -1.382034403143     1.007825032230
         H            2.214820946324    -1.198643025337    -0.744392403143     1.007825032230
         H            2.903792946324     0.340011974663    -1.278622403143     1.007825032230
         H            0.820457946324     1.381388974663    -0.894213403143     1.007825032230
         H           -1.346136053676     1.331198974663     1.600251596857     1.007825032230
         H           -2.587967053676     2.031138974663     0.547661596857     1.007825032230
         H           -0.881584053676     2.418063974663     0.267775596857     1.007825032230
         H            2.914593946324     1.133174974663     1.128141596857     1.007825032230
         H            2.236447946324    -0.435629025337     1.615606596857     1.007825032230
         H            3.873484946324    -0.345913025337     0.937328596857     1.007825032230
         H           -2.022274053676    -1.338009025337     0.237267596857     1.007825032230

  Basis Set: AUG-CC-PVTZ
    Blend: AUG-CC-PVTZ
  Basis Set: (AUG-CC-PVTZ AUX)
    Blend: AUG-CC-PVTZ-JKFIT
	 Reference Energy          =    -400.0767748692468331 [Eh]
	 Singles Energy            =      -0.0000000000000000 [Eh]
	 Same-Spin Energy          =      -0.4017240282865885 [Eh]
	 Opposite-Spin Energy      =      -1.3073590290866421 [Eh]
	 Correlation Energy        =      -1.7090830573732307 [Eh]
	 Total Energy              =    -401.7858579266200536 [Eh]

	 ================> DF-SCS-MP2 Energies <==================
	-----------------------------------------------------------
	 SCS Same-Spin Scale       =       0.3333333333333333 [-]
	 SCS Opposite-Spin Scale   =       1.2000000000000000 [-]
	 SCS Same-Spin Energy      =      -0.1339080094288628 [Eh]
	 SCS Opposite-Spin Energy  =      -1.5688308349039706 [Eh]
	 SCS Correlation Energy    =      -1.7027388443328335 [Eh]
	 SCS Total Energy          =    -401.7795137135796608 [Eh]
	-----------------------------------------------------------

  Dipole Moment: [D]
     X:     2.8801      Y:     2.9342      Z:    -1.0066     Total:     4.2329

*** Psi4 exiting successfully. Buy a developer a beer!
