                               Psi4 1.3.2 release

  ==> Input File <==

--------------------------------------------------------------------------
#psi4
#
memory 32 gb

molecule  {
0 1
  O       -2.5211540    -0.5137840     0.0284240
  O       -0.0903380    -1.4616610     0.1717700
  N        0.9259230     0.4056680    -0.6455280
  C       -1.5147550     0.4028960    -0.3432490
  C        2.2711600    -0.1378510    -0.5222970
  C       -0.1668838    -0.3048535    -0.1950480
  C       -1.5844930     1.6236140     0.5658530
  C        2.8531060     0.0659690     0.8699860
  H       -1.7009875     0.7253423    -1.3801322
  H        2.2044940    -1.2028750    -0.7525030
  H        2.8934660     0.3357800    -1.2867330
  H        0.8101310     1.3771570    -0.9023240
  H       -1.3564630     1.3269670     1.5921410
  H       -2.5982940     2.0269070     0.5395510
  H       -0.8919110     2.4138320     0.2596650
  H        2.9042670     1.1289430     1.1200310
  H        2.2261210    -0.4398610     1.6074960
  H        3.8631580    -0.3501450     0.9292180
  H       -2.0326010    -1.3422410     0.2291570
units angstrom
no_reorient  #important for SAPT in psi4, default
symmetry c1  #important for SAPT in psi4, default
}

set PROPERTIES_ORIGIN ["COM"]
properties('MP2/aug-cc-pvtz', properties = ['dipole'])
--------------------------------------------------------------------------

    Molecular point group: c1
  Charge       = 0
  Multiplicity = 1
  Basis Set: AUG-CC-PVTZ
    Blend: AUG-CC-PVTZ
  Basis Set: (AUG-CC-PVTZ AUX)
    Blend: AUG-CC-PVTZ-JKFIT

    Orbital Energies [Eh]
    ---------------------

    Doubly Occupied:

       1A    -20.548871     2A    -20.540471     3A    -15.593541
       4A    -11.360698     5A    -11.297977     6A    -11.271083
       7A    -11.230676     8A    -11.223010     9A     -1.411510
      10A     -1.350632    11A     -1.238855    12A     -1.051254
      13A     -1.010485    14A     -0.900173    15A     -0.846731
      16A     -0.788893    17A     -0.747880    18A     -0.677940
      19A     -0.648056    20A     -0.646225    21A     -0.611103
      22A     -0.599795    23A     -0.576255    24A     -0.562988
      25A     -0.543201    26A     -0.534959    27A     -0.524716
      28A     -0.519017    29A     -0.502078    30A     -0.445669
      31A     -0.439014    32A     -0.401580

  @DF-RHF Final Energy:  -400.08649467633393

   => Energetics <=

    Nuclear Repulsion Energy =            400.5505670379537833
    One-Electron Energy =               -1339.9834486535276028
    Two-Electron Energy =                 539.3463869392398919
    Total Energy =                       -400.0864946763339276
  Basis Set: (AUG-CC-PVTZ AUX)
    Blend: AUG-CC-PVTZ-RI
    Molecular point group: c1

    Geometry (in Angstrom), charge = 0, multiplicity = 1:

       Center              X                  Y                   Z               Mass
    ------------   -----------------  -----------------  -----------------  -----------------
         O           -2.519989253145    -0.513165391018     0.022987338677    15.994914619570
         O           -0.089173253145    -1.461042391018     0.166333338677    15.994914619570
         N            0.927087746855     0.406286608982    -0.650964661323    14.003074004430
         C           -1.513590253145     0.403514608982    -0.348685661323    12.000000000000
         C            2.272324746855    -0.137232391018    -0.527733661323    12.000000000000
         C           -0.165719053145    -0.304234891018    -0.200484661323    12.000000000000
         C           -1.583328253145     1.624232608982     0.560416338677    12.000000000000
         C            2.854270746855     0.066587608982     0.864549338677    12.000000000000
         H           -1.699822753145     0.725960908982    -1.385568861323     1.007825032230
         H            2.205658746855    -1.202256391018    -0.757939661323     1.007825032230
         H            2.894630746855     0.336398608982    -1.292169661323     1.007825032230
         H            0.811295746855     1.377775608982    -0.907760661323     1.007825032230
         H           -1.355298253145     1.327585608982     1.586704338677     1.007825032230
         H           -2.597129253145     2.027525608982     0.534114338677     1.007825032230
         H           -0.890746253145     2.414450608982     0.254228338677     1.007825032230
         H            2.905431746855     1.129561608982     1.114594338677     1.007825032230
         H            2.227285746855    -0.439242391018     1.602059338677     1.007825032230
         H            3.864322746855    -0.349526391018     0.923781338677     1.007825032230
         H           -2.031436253145    -1.341622391018     0.223720338677     1.007825032230

  Basis Set: AUG-CC-PVTZ
    Blend: AUG-CC-PVTZ
  Basis Set: (AUG-CC-PVTZ AUX)
    Blend: AUG-CC-PVTZ-JKFIT
	 Reference Energy          =    -400.0864946763339276 [Eh]
	 Singles Energy            =      -0.0000000000000000 [Eh]
	 Same-Spin Energy          =      -0.4018135552561388 [Eh]
	 Opposite-Spin Energy      =      -1.3072102284991374 [Eh]
	 Correlation Energy        =      -1.7090237837552762 [Eh]
	 Total Energy              =    -401.7955184600892267 [Eh]

	 ================> DF-SCS-MP2 Energies <==================
	-----------------------------------------------------------
	 SCS Same-Spin Scale       =       0.3333333333333333 [-]
	 SCS Opposite-Spin Scale   =       1.2000000000000000 [-]
	 SCS Same-Spin Energy      =      -0.1339378517520463 [Eh]
	 SCS Opposite-Spin Energy  =      -1.5686522741989648 [Eh]
	 SCS Correlation Energy    =      -1.7025901259510110 [Eh]
	 SCS Total Energy          =    -401.7890848022849468 [Eh]
	-----------------------------------------------------------

  Dipole Moment: [D]
     X:     2.9457      Y:     3.0255      Z:    -0.9595     Total:     4.3303

*** Psi4 exiting successfully. Buy a developer a beer!
