                               Psi4 1.3.2 release

  ==> Input File <==

--------------------------------------------------------------------------
#psi4
#
memory 32 gb

molecule  {
0 1
  O       -2.4862698    -0.5477624     0.0358150
  O       -0.0903380    -1.4616610     0.1717700
  N        0.9259230     0.4056680    -0.6455280
  C       -1.5147550     0.4028960    -0.3432490
  C        2.2711600    -0.1378510    -0.5222970
  C       -0.1834667    -0.3419397    -0.2313521
  C       -1.5844930     1.6236140     0.5658530
  C        2.8531060     0.0659690     0.8699860
  H       -1.6669500     0.7105100    -1.3901450
  H        2.2044940    -1.2028750    -0.7525030
  H        2.8934660     0.3357800    -1.2867330
  H        0.8101310     1.3771570    -0.9023240
  H       -1.3564630     1.3269670     1.5921410
  H       -2.5982940     2.0269070     0.5395510
  H       -0.8919110     2.4138320     0.2596650
  H        2.9042670     1.1289430     1.1200310
  H        2.2261210    -0.4398610     1.6074960
  H        3.8631580    -0.3501450     0.9292180
  H       -2.0326010    -1.3422410     0.2291570
units angstrom
no_reorient  #important for SAPT in psi4, default
symmetry c1  #important for SAPT in psi4, default
}

set PROPERTIES_ORIGIN ["COM"]
properties('MP2/aug-cc-pvtz', properties = ['dipole'])
--------------------------------------------------------------------------

    Molecular point group: c1
  Charge       = 0
  Multiplicity = 1
  Basis Set: AUG-CC-PVTZ
    Blend: AUG-CC-PVTZ
  Basis Set: (AUG-CC-PVTZ AUX)
    Blend: AUG-CC-PVTZ-JKFIT

    Orbital Energies [Eh]
    ---------------------

    Doubly Occupied:

       1A    -20.545145     2A    -20.543431     3A    -15.587033
       4A    -11.358544     5A    -11.299504     6A    -11.267889
       7A    -11.232848     8A    -11.220626     9A     -1.425726
      10A     -1.360898    11A     -1.231002    12A     -1.051120
      13A     -1.008382    14A     -0.900661    15A     -0.846277
      16A     -0.784658    17A     -0.751577    18A     -0.683677
      19A     -0.652839    20A     -0.645455    21A     -0.610821
      22A     -0.598988    23A     -0.580153    24A     -0.563664
      25A     -0.543967    26A     -0.536046    27A     -0.527391
      28A     -0.520391    29A     -0.500408    30A     -0.449998
      31A     -0.437343    32A     -0.397740

  @DF-RHF Final Energy:  -400.08687344825421

   => Energetics <=

    Nuclear Repulsion Energy =            401.1671727713533642
    One-Electron Energy =               -1341.1796940714266384
    Two-Electron Energy =                 539.9256478518191216
    Total Energy =                       -400.0868734482542095
  Basis Set: (AUG-CC-PVTZ AUX)
    Blend: AUG-CC-PVTZ-RI
    Molecular point group: c1

    Geometry (in Angstrom), charge = 0, multiplicity = 1:

       Center              X                  Y                   Z               Mass
    ------------   -----------------  -----------------  -----------------  -----------------
         O           -2.488464143306    -0.538572958046     0.033175783107    15.994914619570
         O           -0.092532343306    -1.452471558046     0.169130783107    15.994914619570
         N            0.923728656694     0.414857441954    -0.648167216893    14.003074004430
         C           -1.516949343306     0.412085441954    -0.345888216893    12.000000000000
         C            2.268965656694    -0.128661558046    -0.524936216893    12.000000000000
         C           -0.185661043306    -0.332750258046    -0.233991316893    12.000000000000
         C           -1.586687343306     1.632803441954     0.563213783107    12.000000000000
         C            2.850911656694     0.075158441954     0.867346783107    12.000000000000
         H           -1.669144343306     0.719699441954    -1.392784216893     1.007825032230
         H            2.202299656694    -1.193685558046    -0.755142216893     1.007825032230
         H            2.891271656694     0.344969441954    -1.289372216893     1.007825032230
         H            0.807936656694     1.386346441954    -0.904963216893     1.007825032230
         H           -1.358657343306     1.336156441954     1.589501783107     1.007825032230
         H           -2.600488343306     2.036096441954     0.536911783107     1.007825032230
         H           -0.894105343306     2.423021441954     0.257025783107     1.007825032230
         H            2.902072656694     1.138132441954     1.117391783107     1.007825032230
         H            2.223926656694    -0.430671558046     1.604856783107     1.007825032230
         H            3.860963656694    -0.340955558046     0.926578783107     1.007825032230
         H           -2.034795343306    -1.333051558046     0.226517783107     1.007825032230

  Basis Set: AUG-CC-PVTZ
    Blend: AUG-CC-PVTZ
  Basis Set: (AUG-CC-PVTZ AUX)
    Blend: AUG-CC-PVTZ-JKFIT
	 Reference Energy          =    -400.0868734482542095 [Eh]
	 Singles Energy            =      -0.0000000000000000 [Eh]
	 Same-Spin Energy          =      -0.4005669996476560 [Eh]
	 Opposite-Spin Energy      =      -1.3046017592360779 [Eh]
	 Correlation Energy        =      -1.7051687588837339 [Eh]
	 Total Energy              =    -401.7920422071379676 [Eh]

	 ================> DF-SCS-MP2 Energies <==================
	-----------------------------------------------------------
	 SCS Same-Spin Scale       =       0.3333333333333333 [-]
	 SCS Opposite-Spin Scale   =       1.2000000000000000 [-]
	 SCS Same-Spin Energy      =      -0.1335223332158853 [Eh]
	 SCS Opposite-Spin Energy  =      -1.5655221110832935 [Eh]
	 SCS Correlation Energy    =      -1.6990444442991788 [Eh]
	 SCS Total Energy          =    -401.7859178925534138 [Eh]
	-----------------------------------------------------------

  Dipole Moment: [D]
     X:     2.6914      Y:     2.9519      Z:    -0.9306     Total:     4.1016

*** Psi4 exiting successfully. Buy a developer a beer!
