                               Psi4 1.3.2 release

  ==> Input File <==

--------------------------------------------------------------------------
#psi4
#
memory 32 gb

molecule  {
0 1
  O       -2.5211540    -0.5137840     0.0284240
  O       -0.0903380    -1.4616610     0.1717700
  N        0.9259230     0.4056680    -0.6455280
  C       -1.5147550     0.4028960    -0.3432490
  C        2.2711600    -0.1378510    -0.5222970
  C       -0.1754303    -0.3334466    -0.2829286
  C       -1.6342369     1.6321128     0.5490695
  C        2.8531060     0.0659690     0.8699860
  H       -1.6669500     0.7105100    -1.3901450
  H        2.2044940    -1.2028750    -0.7525030
  H        2.8934660     0.3357800    -1.2867330
  H        0.8101310     1.3771570    -0.9023240
  H       -1.3564630     1.3269670     1.5921410
  H       -2.5982940     2.0269070     0.5395510
  H       -0.8919110     2.4138320     0.2596650
  H        2.9042670     1.1289430     1.1200310
  H        2.2261210    -0.4398610     1.6074960
  H        3.8631580    -0.3501450     0.9292180
  H       -2.0326010    -1.3422410     0.2291570
units angstrom
no_reorient  #important for SAPT in psi4, default
symmetry c1  #important for SAPT in psi4, default
}

set PROPERTIES_ORIGIN ["COM"]
properties('MP2/aug-cc-pvtz', properties = ['dipole'])
--------------------------------------------------------------------------

    Molecular point group: c1
  Charge       = 0
  Multiplicity = 1
  Basis Set: AUG-CC-PVTZ
    Blend: AUG-CC-PVTZ
  Basis Set: (AUG-CC-PVTZ AUX)
    Blend: AUG-CC-PVTZ-JKFIT

    Orbital Energies [Eh]
    ---------------------

    Doubly Occupied:

       1A    -20.548400     2A    -20.539845     3A    -15.594392
       4A    -11.361518     5A    -11.298123     6A    -11.271605
       7A    -11.232498     8A    -11.222739     9A     -1.409759
      10A     -1.350106    11A     -1.239786    12A     -1.049967
      13A     -1.010675    14A     -0.903973    15A     -0.847666
      16A     -0.790219    17A     -0.744282    18A     -0.677052
      19A     -0.648819    20A     -0.646891    21A     -0.610008
      22A     -0.599298    23A     -0.579118    24A     -0.569969
      25A     -0.541882    26A     -0.527697    27A     -0.524816
      28A     -0.516392    29A     -0.502109    30A     -0.446974
      31A     -0.438203    32A     -0.401267

  @DF-RHF Final Energy:  -400.08346499215179

   => Energetics <=

    Nuclear Repulsion Energy =            400.0365012437550831
    One-Electron Energy =               -1338.9478347736085198
    Two-Electron Energy =                 538.8278685377016473
    Total Energy =                       -400.0834649921517894
  Basis Set: (AUG-CC-PVTZ AUX)
    Blend: AUG-CC-PVTZ-RI
    Molecular point group: c1

    Geometry (in Angstrom), charge = 0, multiplicity = 1:

       Center              X                  Y                   Z               Mass
    ------------   -----------------  -----------------  -----------------  -----------------
         O           -2.514307781002    -0.510978149839     0.033801067714    15.994914619570
         O           -0.083491781002    -1.458855149839     0.177147067714    15.994914619570
         N            0.932769218998     0.408473850161    -0.640150932286    14.003074004430
         C           -1.507908781002     0.405701850161    -0.337871932286    12.000000000000
         C            2.278006218998    -0.135045149839    -0.516919932286    12.000000000000
         C           -0.168584081002    -0.330640749839    -0.277551532286    12.000000000000
         C           -1.627390681002     1.634918650161     0.554446567714    12.000000000000
         C            2.859952218998     0.068774850161     0.875363067714    12.000000000000
         H           -1.660103781002     0.713315850161    -1.384767932286     1.007825032230
         H            2.211340218998    -1.200069149839    -0.747125932286     1.007825032230
         H            2.900312218998     0.338585850161    -1.281355932286     1.007825032230
         H            0.816977218998     1.379962850161    -0.896946932286     1.007825032230
         H           -1.349616781002     1.329772850161     1.597518067714     1.007825032230
         H           -2.591447781002     2.029712850161     0.544928067714     1.007825032230
         H           -0.885064781002     2.416637850161     0.265042067714     1.007825032230
         H            2.911113218998     1.131748850161     1.125408067714     1.007825032230
         H            2.232967218998    -0.437055149839     1.612873067714     1.007825032230
         H            3.870004218998    -0.347339149839     0.934595067714     1.007825032230
         H           -2.025754781002    -1.339435149839     0.234534067714     1.007825032230

  Basis Set: AUG-CC-PVTZ
    Blend: AUG-CC-PVTZ
  Basis Set: (AUG-CC-PVTZ AUX)
    Blend: AUG-CC-PVTZ-JKFIT
	 Reference Energy          =    -400.0834649921517894 [Eh]
	 Singles Energy            =      -0.0000000000000000 [Eh]
	 Same-Spin Energy          =      -0.4017684257945217 [Eh]
	 Opposite-Spin Energy      =      -1.3072316847782262 [Eh]
	 Correlation Energy        =      -1.7090001105727479 [Eh]
	 Total Energy              =    -401.7924651027245204 [Eh]

	 ================> DF-SCS-MP2 Energies <==================
	-----------------------------------------------------------
	 SCS Same-Spin Scale       =       0.3333333333333333 [-]
	 SCS Opposite-Spin Scale   =       1.2000000000000000 [-]
	 SCS Same-Spin Energy      =      -0.1339228085981739 [Eh]
	 SCS Opposite-Spin Energy  =      -1.5686780217338714 [Eh]
	 SCS Correlation Energy    =      -1.7026008303320452 [Eh]
	 SCS Total Energy          =    -401.7860658224838062 [Eh]
	-----------------------------------------------------------

  Dipole Moment: [D]
     X:     2.9529      Y:     3.0179      Z:    -1.0173     Total:     4.3431

*** Psi4 exiting successfully. Buy a developer a beer!
