                               Psi4 1.3.2 release

  ==> Input File <==

--------------------------------------------------------------------------
#psi4
#
memory 32 gb

molecule  {
0 1
  O       -2.5211540    -0.5137840     0.0284240
  O       -0.0903380    -1.4616610     0.1717700
  N        0.9259230     0.4056680    -0.6455280
  C       -1.5147550     0.4028960    -0.3432490
  C        2.2711600    -0.1378510    -0.5222970
  C       -0.1583790    -0.2975740    -0.2472510
  C       -1.5844930     1.6236140     0.5658530
  C        2.8531060     0.0659690     0.8699860
  H       -1.6393213     0.6546674    -1.2000970
  H        2.2044940    -1.2028750    -0.7525030
  H        2.8934660     0.3357800    -1.2867330
  H        0.8101310     1.3771570    -0.9023240
  H       -1.3564630     1.3269670     1.5921410
  H       -2.5982940     2.0269070     0.5395510
  H       -0.8919110     2.4138320     0.2596650
  H        2.9042670     1.1289430     1.1200310
  H        2.2261210    -0.4398610     1.6074960
  H        3.8631580    -0.3501450     0.9292180
  H       -2.0326010    -1.3422410     0.2291570
units angstrom
no_reorient  #important for SAPT in psi4, default
symmetry c1  #important for SAPT in psi4, default
}

set PROPERTIES_ORIGIN ["COM"]
properties('MP2/aug-cc-pvtz', properties = ['dipole'])
--------------------------------------------------------------------------

    Molecular point group: c1
  Charge       = 0
  Multiplicity = 1
  Basis Set: AUG-CC-PVTZ
    Blend: AUG-CC-PVTZ
  Basis Set: (AUG-CC-PVTZ AUX)
    Blend: AUG-CC-PVTZ-JKFIT

    Orbital Energies [Eh]
    ---------------------

    Doubly Occupied:

       1A    -20.545262     2A    -20.532684     3A    -15.599388
       4A    -11.357876     5A    -11.273970     6A    -11.273109
       7A    -11.229931     8A    -11.224490     9A     -1.397853
      10A     -1.345438    11A     -1.246423    12A     -1.060571
      13A     -1.016239    14A     -0.908224    15A     -0.861699
      16A     -0.798572    17A     -0.752986    18A     -0.687813
      19A     -0.655618    20A     -0.641985    21A     -0.611633
      22A     -0.599393    23A     -0.574899    24A     -0.562685
      25A     -0.544143    26A     -0.540483    27A     -0.521088
      28A     -0.515036    29A     -0.502440    30A     -0.450884
      31A     -0.436339    32A     -0.404209

  @DF-RHF Final Energy:  -400.05663901610512

   => Energetics <=

    Nuclear Repulsion Energy =            401.6382949112840492
    One-Electron Energy =               -1342.0431426413638292
    Two-Electron Energy =                 540.3482087139747136
    Total Energy =                       -400.0566390161051231
  Basis Set: (AUG-CC-PVTZ AUX)
    Blend: AUG-CC-PVTZ-RI
    Molecular point group: c1

    Geometry (in Angstrom), charge = 0, multiplicity = 1:

       Center              X                  Y                   Z               Mass
    ------------   -----------------  -----------------  -----------------  -----------------
         O           -2.521391779388    -0.513303127671     0.026788123618    15.994914619570
         O           -0.090575779388    -1.461180127671     0.170134123618    15.994914619570
         N            0.925685220612     0.406148872329    -0.647163876382    14.003074004430
         C           -1.514992779388     0.403376872329    -0.344884876382    12.000000000000
         C            2.270922220612    -0.137370127671    -0.523932876382    12.000000000000
         C           -0.158616779388    -0.297093127671    -0.248886876382    12.000000000000
         C           -1.584730779388     1.624094872329     0.564217123618    12.000000000000
         C            2.852868220612     0.066449872329     0.868350123618    12.000000000000
         H           -1.639559079388     0.655148272329    -1.201732876382     1.007825032230
         H            2.204256220612    -1.202394127671    -0.754138876382     1.007825032230
         H            2.893228220612     0.336260872329    -1.288368876382     1.007825032230
         H            0.809893220612     1.377637872329    -0.903959876382     1.007825032230
         H           -1.356700779388     1.327447872329     1.590505123618     1.007825032230
         H           -2.598531779388     2.027387872329     0.537915123618     1.007825032230
         H           -0.892148779388     2.414312872329     0.258029123618     1.007825032230
         H            2.904029220612     1.129423872329     1.118395123618     1.007825032230
         H            2.225883220612    -0.439380127671     1.605860123618     1.007825032230
         H            3.862920220612    -0.349664127671     0.927582123618     1.007825032230
         H           -2.032838779388    -1.341760127671     0.227521123618     1.007825032230

  Basis Set: AUG-CC-PVTZ
    Blend: AUG-CC-PVTZ
  Basis Set: (AUG-CC-PVTZ AUX)
    Blend: AUG-CC-PVTZ-JKFIT
	 Reference Energy          =    -400.0566390161051231 [Eh]
	 Singles Energy            =      -0.0000000000000000 [Eh]
	 Same-Spin Energy          =      -0.4019817418075731 [Eh]
	 Opposite-Spin Energy      =      -1.3068018216466455 [Eh]
	 Correlation Energy        =      -1.7087835634542186 [Eh]
	 Total Energy              =    -401.7654225795593561 [Eh]

	 ================> DF-SCS-MP2 Energies <==================
	-----------------------------------------------------------
	 SCS Same-Spin Scale       =       0.3333333333333333 [-]
	 SCS Opposite-Spin Scale   =       1.2000000000000000 [-]
	 SCS Same-Spin Energy      =      -0.1339939139358577 [Eh]
	 SCS Opposite-Spin Energy  =      -1.5681621859759745 [Eh]
	 SCS Correlation Energy    =      -1.7021560999118321 [Eh]
	 SCS Total Energy          =    -401.7587951160169268 [Eh]
	-----------------------------------------------------------

  Dipole Moment: [D]
     X:     3.1427      Y:     3.2218      Z:    -1.1216     Total:     4.6383

*** Psi4 exiting successfully. Buy a developer a beer!
