                               Psi4 1.3.2 release

  ==> Input File <==

--------------------------------------------------------------------------
#psi4
#
memory 32 gb

molecule  {
0 1
  O       -2.5418107    -0.4666404     0.0814216
  O       -0.0903380    -1.4616610     0.1717700
  N        0.9259230     0.4056680    -0.6455280
  C       -1.5147550     0.4028960    -0.3432490
  C        2.2711600    -0.1378510    -0.5222970
  C       -0.1583790    -0.2975740    -0.2472510
  C       -1.6459363     1.5894372     0.6035318
  C        2.8531060     0.0659690     0.8699860
  H       -1.6669500     0.7105100    -1.3901450
  H        2.2044940    -1.2028750    -0.7525030
  H        2.8934660     0.3357800    -1.2867330
  H        0.8101310     1.3771570    -0.9023240
  H       -1.3564630     1.3269670     1.5921410
  H       -2.5982940     2.0269070     0.5395510
  H       -0.8919110     2.4138320     0.2596650
  H        2.9042670     1.1289430     1.1200310
  H        2.2261210    -0.4398610     1.6074960
  H        3.8631580    -0.3501450     0.9292180
  H       -2.0326010    -1.3422410     0.2291570
units angstrom
no_reorient  #important for SAPT in psi4, default
symmetry c1  #important for SAPT in psi4, default
}

set PROPERTIES_ORIGIN ["COM"]
properties('MP2/aug-cc-pvtz', properties = ['dipole'])
--------------------------------------------------------------------------

    Molecular point group: c1
  Charge       = 0
  Multiplicity = 1
  Basis Set: AUG-CC-PVTZ
    Blend: AUG-CC-PVTZ
  Basis Set: (AUG-CC-PVTZ AUX)
    Blend: AUG-CC-PVTZ-JKFIT

    Orbital Energies [Eh]
    ---------------------

    Doubly Occupied:

       1A    -20.550712     2A    -20.535844     3A    -15.599760
       4A    -11.361458     5A    -11.297355     6A    -11.274407
       7A    -11.230469     8A    -11.224775     9A     -1.398296
      10A     -1.343004    11A     -1.246892    12A     -1.050379
      13A     -1.011307    14A     -0.904744    15A     -0.848995
      16A     -0.795167    17A     -0.739821    18A     -0.676449
      19A     -0.648804    20A     -0.644171    21A     -0.610963
      22A     -0.599185    23A     -0.573918    24A     -0.570529
      25A     -0.543042    26A     -0.525554    27A     -0.521987
      28A     -0.510610    29A     -0.503097    30A     -0.444191
      31A     -0.437685    32A     -0.404495

  @DF-RHF Final Energy:  -400.07528729567213

   => Energetics <=

    Nuclear Repulsion Energy =            400.0738948210247941
    One-Electron Energy =               -1339.0422334156353372
    Two-Electron Energy =                 538.8930512989383033
    Total Energy =                       -400.0752872956721831
  Basis Set: (AUG-CC-PVTZ AUX)
    Blend: AUG-CC-PVTZ-RI
    Molecular point group: c1

    Geometry (in Angstrom), charge = 0, multiplicity = 1:

       Center              X                  Y                   Z               Mass
    ------------   -----------------  -----------------  -----------------  -----------------
         O           -2.532690978482    -0.469577868280     0.070319442236    15.994914619570
         O           -0.081218278482    -1.464598468280     0.160667842236    15.994914619570
         N            0.935042721518     0.402730531720    -0.656630157764    14.003074004430
         C           -1.505635278482     0.399958531720    -0.354351157764    12.000000000000
         C            2.280279721518    -0.140788468280    -0.533399157764    12.000000000000
         C           -0.149259278482    -0.300511468280    -0.258353157764    12.000000000000
         C           -1.636816578482     1.586499731720     0.592429642236    12.000000000000
         C            2.862225721518     0.063031531720     0.858883842236    12.000000000000
         H           -1.657830278482     0.707572531720    -1.401247157764     1.007825032230
         H            2.213613721518    -1.205812468280    -0.763605157764     1.007825032230
         H            2.902585721518     0.332842531720    -1.297835157764     1.007825032230
         H            0.819250721518     1.374219531720    -0.913426157764     1.007825032230
         H           -1.347343278482     1.324029531720     1.581038842236     1.007825032230
         H           -2.589174278482     2.023969531720     0.528448842236     1.007825032230
         H           -0.882791278482     2.410894531720     0.248562842236     1.007825032230
         H            2.913386721518     1.126005531720     1.108928842236     1.007825032230
         H            2.235240721518    -0.442798468280     1.596393842236     1.007825032230
         H            3.872277721518    -0.353082468280     0.918115842236     1.007825032230
         H           -2.023481278482    -1.345178468280     0.218054842236     1.007825032230

  Basis Set: AUG-CC-PVTZ
    Blend: AUG-CC-PVTZ
  Basis Set: (AUG-CC-PVTZ AUX)
    Blend: AUG-CC-PVTZ-JKFIT
	 Reference Energy          =    -400.0752872956721262 [Eh]
	 Singles Energy            =      -0.0000000000000000 [Eh]
	 Same-Spin Energy          =      -0.4029416997055851 [Eh]
	 Opposite-Spin Energy      =      -1.3096073451045742 [Eh]
	 Correlation Energy        =      -1.7125490448101592 [Eh]
	 Total Energy              =    -401.7878363404822721 [Eh]

	 ================> DF-SCS-MP2 Energies <==================
	-----------------------------------------------------------
	 SCS Same-Spin Scale       =       0.3333333333333333 [-]
	 SCS Opposite-Spin Scale   =       1.2000000000000000 [-]
	 SCS Same-Spin Energy      =      -0.1343138999018617 [Eh]
	 SCS Opposite-Spin Energy  =      -1.5715288141254891 [Eh]
	 SCS Correlation Energy    =      -1.7058427140273507 [Eh]
	 SCS Total Energy          =    -401.7811300096994955 [Eh]
	-----------------------------------------------------------

  Dipole Moment: [D]
     X:     3.1326      Y:     3.0074      Z:    -1.1405     Total:     4.4898

*** Psi4 exiting successfully. Buy a developer a beer!
