                               Psi4 1.3.2 release

  ==> Input File <==

--------------------------------------------------------------------------
#psi4
#
memory 32 gb

molecule  {
0 1
  O       -2.5260229    -0.5129289     0.0171454
  O       -0.0903380    -1.4616610     0.1717700
  N        0.9259230     0.4056680    -0.6455280
  C       -1.5147550     0.4028960    -0.3432490
  C        2.2711600    -0.1378510    -0.5222970
  C       -0.1583790    -0.2975740    -0.2472510
  C       -1.5844930     1.6236140     0.5658530
  C        2.8531060     0.0659690     0.8699860
  H       -1.6746856     0.7048229    -1.3906473
  H        2.2044940    -1.2028750    -0.7525030
  H        2.8934660     0.3357800    -1.2867330
  H        0.8101310     1.3771570    -0.9023240
  H       -1.3564630     1.3269670     1.5921410
  H       -2.5982940     2.0269070     0.5395510
  H       -0.8919110     2.4138320     0.2596650
  H        2.9042670     1.1289430     1.1200310
  H        2.2261210    -0.4398610     1.6074960
  H        3.8631580    -0.3501450     0.9292180
  H       -2.0326010    -1.3422410     0.2291570
units angstrom
no_reorient  #important for SAPT in psi4, default
symmetry c1  #important for SAPT in psi4, default
}

set PROPERTIES_ORIGIN ["COM"]
properties('MP2/aug-cc-pvtz', properties = ['dipole'])
--------------------------------------------------------------------------

    Molecular point group: c1
  Charge       = 0
  Multiplicity = 1
  Basis Set: AUG-CC-PVTZ
    Blend: AUG-CC-PVTZ
  Basis Set: (AUG-CC-PVTZ AUX)
    Blend: AUG-CC-PVTZ-JKFIT

    Orbital Energies [Eh]
    ---------------------

    Doubly Occupied:

       1A    -20.548706     2A    -20.533734     3A    -15.598835
       4A    -11.359433     5A    -11.297955     6A    -11.273829
       7A    -11.231522     8A    -11.224437     9A     -1.398274
      10A     -1.346004    11A     -1.246056    12A     -1.052742
      13A     -1.012805    14A     -0.903020    15A     -0.849356
      16A     -0.794385    17A     -0.743975    18A     -0.676495
      19A     -0.648409    20A     -0.642449    21A     -0.611188
      22A     -0.599560    23A     -0.575811    24A     -0.563450
      25A     -0.543936    26A     -0.534780    27A     -0.521190
      28A     -0.515034    29A     -0.502729    30A     -0.445519
      31A     -0.436434    32A     -0.403607

  @DF-RHF Final Energy:  -400.08737058208902

   => Energetics <=

    Nuclear Repulsion Energy =            400.3334388647069773
    One-Electron Energy =               -1339.5702945499197085
    Two-Electron Energy =                 539.1494851031236522
    Total Energy =                       -400.0873705820890791
  Basis Set: (AUG-CC-PVTZ AUX)
    Blend: AUG-CC-PVTZ-RI
    Molecular point group: c1

    Geometry (in Angstrom), charge = 0, multiplicity = 1:

       Center              X                  Y                   Z               Mass
    ------------   -----------------  -----------------  -----------------  -----------------
         O           -2.525291088878    -0.512996590877     0.018690637860    15.994914619570
         O           -0.089606188878    -1.461728690877     0.173315237860    15.994914619570
         N            0.926654811122     0.405600309123    -0.643982762140    14.003074004430
         C           -1.514023188878     0.402828309123    -0.341703762140    12.000000000000
         C            2.271891811122    -0.137918690877    -0.520751762140    12.000000000000
         C           -0.157647188878    -0.297641690877    -0.245705762140    12.000000000000
         C           -1.583761188878     1.623546309123     0.567398237860    12.000000000000
         C            2.853837811122     0.065901309123     0.871531237860    12.000000000000
         H           -1.673953788878     0.704755209123    -1.389102062140     1.007825032230
         H            2.205225811122    -1.202942690877    -0.750957762140     1.007825032230
         H            2.894197811122     0.335712309123    -1.285187762140     1.007825032230
         H            0.810862811122     1.377089309123    -0.900778762140     1.007825032230
         H           -1.355731188878     1.326899309123     1.593686237860     1.007825032230
         H           -2.597562188878     2.026839309123     0.541096237860     1.007825032230
         H           -0.891179188878     2.413764309123     0.261210237860     1.007825032230
         H            2.904998811122     1.128875309123     1.121576237860     1.007825032230
         H            2.226852811122    -0.439928690877     1.609041237860     1.007825032230
         H            3.863889811122    -0.350212690877     0.930763237860     1.007825032230
         H           -2.031869188878    -1.342308690877     0.230702237860     1.007825032230

  Basis Set: AUG-CC-PVTZ
    Blend: AUG-CC-PVTZ
  Basis Set: (AUG-CC-PVTZ AUX)
    Blend: AUG-CC-PVTZ-JKFIT
	 Reference Energy          =    -400.0873705820890223 [Eh]
	 Singles Energy            =      -0.0000000000000000 [Eh]
	 Same-Spin Energy          =      -0.4021936173270942 [Eh]
	 Opposite-Spin Energy      =      -1.3078326433134106 [Eh]
	 Correlation Energy        =      -1.7100262606405048 [Eh]
	 Total Energy              =    -401.7973968427295404 [Eh]

	 ================> DF-SCS-MP2 Energies <==================
	-----------------------------------------------------------
	 SCS Same-Spin Scale       =       0.3333333333333333 [-]
	 SCS Opposite-Spin Scale   =       1.2000000000000000 [-]
	 SCS Same-Spin Energy      =      -0.1340645391090314 [Eh]
	 SCS Opposite-Spin Energy  =      -1.5693991719760927 [Eh]
	 SCS Correlation Energy    =      -1.7034637110851241 [Eh]
	 SCS Total Energy          =    -401.7908342931741572 [Eh]
	-----------------------------------------------------------

  Dipole Moment: [D]
     X:     3.1115      Y:     3.1759      Z:    -1.0228     Total:     4.5622

*** Psi4 exiting successfully. Buy a developer a beer!
