                               Psi4 1.3.2 release

  ==> Input File <==

--------------------------------------------------------------------------
#psi4
#
memory 32 gb

molecule  {
0 1
  O       -2.5211540    -0.5137840     0.0284240
  O       -0.0903380    -1.4616610     0.1717700
  N        0.8975819     0.4420208    -0.6557002
  C       -1.4900268     0.4460997    -0.3625475
  C        2.2711600    -0.1378510    -0.5222970
  C       -0.1583790    -0.2975740    -0.2472510
  C       -1.5844930     1.6236140     0.5658530
  C        2.8531060     0.0659690     0.8699860
  H       -1.6669500     0.7105100    -1.3901450
  H        2.2044940    -1.2028750    -0.7525030
  H        2.8934660     0.3357800    -1.2867330
  H        0.8101310     1.3771570    -0.9023240
  H       -1.3564630     1.3269670     1.5921410
  H       -2.5982940     2.0269070     0.5395510
  H       -0.8919110     2.4138320     0.2596650
  H        2.9042670     1.1289430     1.1200310
  H        2.2261210    -0.4398610     1.6074960
  H        3.8631580    -0.3501450     0.9292180
  H       -2.0326010    -1.3422410     0.2291570
units angstrom
no_reorient  #important for SAPT in psi4, default
symmetry c1  #important for SAPT in psi4, default
}

set PROPERTIES_ORIGIN ["COM"]
properties('MP2/aug-cc-pvtz', properties = ['dipole'])
--------------------------------------------------------------------------

    Molecular point group: c1
  Charge       = 0
  Multiplicity = 1
  Basis Set: AUG-CC-PVTZ
    Blend: AUG-CC-PVTZ
  Basis Set: (AUG-CC-PVTZ AUX)
    Blend: AUG-CC-PVTZ-JKFIT

    Orbital Energies [Eh]
    ---------------------

    Doubly Occupied:

       1A    -20.541368     2A    -20.536443     3A    -15.596730
       4A    -11.361349     5A    -11.295278     6A    -11.277356
       7A    -11.231575     8A    -11.226256     9A     -1.394611
      10A     -1.328038    11A     -1.246204    12A     -1.055919
      13A     -1.016664    14A     -0.903000    15A     -0.848847
      16A     -0.806544    17A     -0.736711    18A     -0.673911
      19A     -0.644267    20A     -0.640538    21A     -0.611387
      22A     -0.601849    23A     -0.573095    24A     -0.562901
      25A     -0.540125    26A     -0.532418    27A     -0.522375
      28A     -0.511685    29A     -0.501301    30A     -0.449057
      31A     -0.436592    32A     -0.407737

  @DF-RHF Final Energy:  -400.08120022573536

   => Energetics <=

    Nuclear Repulsion Energy =            399.7916649847317103
    One-Electron Energy =               -1338.5214755599274667
    Two-Electron Energy =                 538.6486103494604549
    Total Energy =                       -400.0812002257353015
  Basis Set: (AUG-CC-PVTZ AUX)
    Blend: AUG-CC-PVTZ-RI
    Molecular point group: c1

    Geometry (in Angstrom), charge = 0, multiplicity = 1:

       Center              X                  Y                   Z               Mass
    ------------   -----------------  -----------------  -----------------  -----------------
         O           -2.520298764932    -0.522559912551     0.031618702155    15.994914619570
         O           -0.089482764932    -1.470436912551     0.174964702155    15.994914619570
         N            0.898437135068     0.433244887449    -0.652505497845    14.003074004430
         C           -1.489171564932     0.437323787449    -0.359352797845    12.000000000000
         C            2.272015235068    -0.146626912551    -0.519102297845    12.000000000000
         C           -0.157523764932    -0.306349912551    -0.244056297845    12.000000000000
         C           -1.583637764932     1.614838087449     0.569047702155    12.000000000000
         C            2.853961235068     0.057193087449     0.873180702155    12.000000000000
         H           -1.666094764932     0.701734087449    -1.386950297845     1.007825032230
         H            2.205349235068    -1.211650912551    -0.749308297845     1.007825032230
         H            2.894321235068     0.327004087449    -1.283538297845     1.007825032230
         H            0.810986235068     1.368381087449    -0.899129297845     1.007825032230
         H           -1.355607764932     1.318191087449     1.595335702155     1.007825032230
         H           -2.597438764932     2.018131087449     0.542745702155     1.007825032230
         H           -0.891055764932     2.405056087449     0.262859702155     1.007825032230
         H            2.905122235068     1.120167087449     1.123225702155     1.007825032230
         H            2.226976235068    -0.448636912551     1.610690702155     1.007825032230
         H            3.864013235068    -0.358920912551     0.932412702155     1.007825032230
         H           -2.031745764932    -1.351016912551     0.232351702155     1.007825032230

  Basis Set: AUG-CC-PVTZ
    Blend: AUG-CC-PVTZ
  Basis Set: (AUG-CC-PVTZ AUX)
    Blend: AUG-CC-PVTZ-JKFIT
	 Reference Energy          =    -400.0812002257353583 [Eh]
	 Singles Energy            =      -0.0000000000000000 [Eh]
	 Same-Spin Energy          =      -0.4020255771887006 [Eh]
	 Opposite-Spin Energy      =      -1.3085890725086573 [Eh]
	 Correlation Energy        =      -1.7106146496973578 [Eh]
	 Total Energy              =    -401.7918148754326921 [Eh]

	 ================> DF-SCS-MP2 Energies <==================
	-----------------------------------------------------------
	 SCS Same-Spin Scale       =       0.3333333333333333 [-]
	 SCS Opposite-Spin Scale   =       1.2000000000000000 [-]
	 SCS Same-Spin Energy      =      -0.1340085257295668 [Eh]
	 SCS Opposite-Spin Energy  =      -1.5703068870103887 [Eh]
	 SCS Correlation Energy    =      -1.7043154127399556 [Eh]
	 SCS Total Energy          =    -401.7855156384753172 [Eh]
	-----------------------------------------------------------

  Dipole Moment: [D]
     X:     3.3061      Y:     3.2434      Z:    -1.0501     Total:     4.7490

*** Psi4 exiting successfully. Buy a developer a beer!
