                               Psi4 1.3.2 release

  ==> Input File <==

--------------------------------------------------------------------------
#psi4
#
memory 32 gb

molecule  {
0 1
  O       -2.5211540    -0.5137840     0.0284240
  O       -0.0260805    -1.4591719     0.1632294
  N        0.9259230     0.4056680    -0.6455280
  C       -1.4769715     0.4676130    -0.3714782
  C        2.2711600    -0.1378510    -0.5222970
  C       -0.1583790    -0.2975740    -0.2472510
  C       -1.5844930     1.6236140     0.5658530
  C        2.8531060     0.0659690     0.8699860
  H       -1.6669500     0.7105100    -1.3901450
  H        2.2044940    -1.2028750    -0.7525030
  H        2.8934660     0.3357800    -1.2867330
  H        0.8101310     1.3771570    -0.9023240
  H       -1.3564630     1.3269670     1.5921410
  H       -2.5982940     2.0269070     0.5395510
  H       -0.8919110     2.4138320     0.2596650
  H        2.9042670     1.1289430     1.1200310
  H        2.2261210    -0.4398610     1.6074960
  H        3.8631580    -0.3501450     0.9292180
  H       -2.0326010    -1.3422410     0.2291570
units angstrom
no_reorient  #important for SAPT in psi4, default
symmetry c1  #important for SAPT in psi4, default
}

set PROPERTIES_ORIGIN ["COM"]
properties('MP2/aug-cc-pvtz', properties = ['dipole'])
--------------------------------------------------------------------------

    Molecular point group: c1
  Charge       = 0
  Multiplicity = 1
  Basis Set: AUG-CC-PVTZ
    Blend: AUG-CC-PVTZ
  Basis Set: (AUG-CC-PVTZ AUX)
    Blend: AUG-CC-PVTZ-JKFIT

    Orbital Energies [Eh]
    ---------------------

    Doubly Occupied:

       1A    -20.544379     2A    -20.533769     3A    -15.595772
       4A    -11.361087     5A    -11.301592     6A    -11.271361
       7A    -11.234965     8A    -11.223048     9A     -1.394009
      10A     -1.325461    11A     -1.243131    12A     -1.061333
      13A     -1.016410    14A     -0.906558    15A     -0.849892
      16A     -0.793521    17A     -0.737913    18A     -0.675199
      19A     -0.646908    20A     -0.642547    21A     -0.609213
      22A     -0.597153    23A     -0.577131    24A     -0.565741
      25A     -0.538350    26A     -0.533294    27A     -0.520973
      28A     -0.510838    29A     -0.499346    30A     -0.453963
      31A     -0.438714    32A     -0.401677

  @DF-RHF Final Energy:  -400.07846317666741

   => Energetics <=

    Nuclear Repulsion Energy =            400.0184767836248056
    One-Electron Energy =               -1338.9833858145764225
    Two-Electron Energy =                 538.8864458542841476
    Total Energy =                       -400.0784631766674693
  Basis Set: (AUG-CC-PVTZ AUX)
    Blend: AUG-CC-PVTZ-RI
    Molecular point group: c1

    Geometry (in Angstrom), charge = 0, multiplicity = 1:

       Center              X                  Y                   Z               Mass
    ------------   -----------------  -----------------  -----------------  -----------------
         O           -2.533805197647    -0.520757040599     0.032484207642    15.994914619570
         O           -0.038731697647    -1.466144940599     0.167289607642    15.994914619570
         N            0.913271802353     0.398694959401    -0.641467792358    14.003074004430
         C           -1.489622697647     0.460639959401    -0.367417992358    12.000000000000
         C            2.258508802353    -0.144824040599    -0.518236792358    12.000000000000
         C           -0.171030197647    -0.304547040599    -0.243190792358    12.000000000000
         C           -1.597144197647     1.616640959401     0.569913207642    12.000000000000
         C            2.840454802353     0.058995959401     0.874046207642    12.000000000000
         H           -1.679601197647     0.703536959401    -1.386084792358     1.007825032230
         H            2.191842802353    -1.209848040599    -0.748442792358     1.007825032230
         H            2.880814802353     0.328806959401    -1.282672792358     1.007825032230
         H            0.797479802353     1.370183959401    -0.898263792358     1.007825032230
         H           -1.369114197647     1.319993959401     1.596201207642     1.007825032230
         H           -2.610945197647     2.019933959401     0.543611207642     1.007825032230
         H           -0.904562197647     2.406858959401     0.263725207642     1.007825032230
         H            2.891615802353     1.121969959401     1.124091207642     1.007825032230
         H            2.213469802353    -0.446834040599     1.611556207642     1.007825032230
         H            3.850506802353    -0.357118040599     0.933278207642     1.007825032230
         H           -2.045252197647    -1.349214040599     0.233217207642     1.007825032230

  Basis Set: AUG-CC-PVTZ
    Blend: AUG-CC-PVTZ
  Basis Set: (AUG-CC-PVTZ AUX)
    Blend: AUG-CC-PVTZ-JKFIT
	 Reference Energy          =    -400.0784631766674124 [Eh]
	 Singles Energy            =      -0.0000000000000000 [Eh]
	 Same-Spin Energy          =      -0.4026147040630612 [Eh]
	 Opposite-Spin Energy      =      -1.3097370087455489 [Eh]
	 Correlation Energy        =      -1.7123517128086101 [Eh]
	 Total Energy              =    -401.7908148894759961 [Eh]

	 ================> DF-SCS-MP2 Energies <==================
	-----------------------------------------------------------
	 SCS Same-Spin Scale       =       0.3333333333333333 [-]
	 SCS Opposite-Spin Scale   =       1.2000000000000000 [-]
	 SCS Same-Spin Energy      =      -0.1342049013543537 [Eh]
	 SCS Opposite-Spin Energy  =      -1.5716844104946586 [Eh]
	 SCS Correlation Energy    =      -1.7058893118490124 [Eh]
	 SCS Total Energy          =    -401.7843524885164470 [Eh]
	-----------------------------------------------------------

  Dipole Moment: [D]
     X:     3.0183      Y:     3.3717      Z:    -1.0665     Total:     4.6493

*** Psi4 exiting successfully. Buy a developer a beer!
