                               Psi4 1.4a3.dev225

  ==> Input File <==

--------------------------------------------------------------------------
#psi4
#
memory 32 gb

molecule  {
0 1
  O       -1.5707600    -1.5123310    -0.2332890
  O        0.1382410     1.6075510    -0.3059650
  N        0.6999210    -0.4896500     0.4239600
  C       -1.5456480    -0.0933390    -0.4361750
  C        2.0783650    -0.1398720     0.7271540
  C       -0.1470270     0.4197650    -0.1121660
  C       -2.5344382     0.6024824     0.4021689
  C        2.9727550    -0.1683320    -0.5071050
  H       -1.7217520     0.1422920    -1.4952760
  H        2.0695770     0.8628690     1.1612900
  H        2.4371510    -0.8367210     1.4904630
  H        0.3848370    -1.4513440     0.4597870
  H       -2.3944150     0.3774590     1.4809910
  H       -3.5869010     0.3276930     0.1608950
  H       -2.4702460     1.7050790     0.2962630
  H        2.9788310    -1.1637080    -0.9596270
  H        2.6039680     0.5505970    -1.2414500
  H        4.0012360     0.0983730    -0.2444710
  H       -2.4840080    -1.8129070    -0.3767550
units angstrom
no_reorient  #important for SAPT in psi4, default
symmetry c1  #important for SAPT in psi4, default
}

set PROPERTIES_ORIGIN ["COM"]
properties('MP2/aug-cc-pvtz', properties = ['dipole'])
--------------------------------------------------------------------------

    Molecular point group: c1
  Charge       = 0
  Multiplicity = 1
  Basis Set: AUG-CC-PVTZ
    Blend: AUG-CC-PVTZ
  Basis Set: (AUG-CC-PVTZ AUX)
    Blend: AUG-CC-PVTZ-JKFIT

    Orbital Energies [Eh]
    ---------------------

    Doubly Occupied:

       1A    -20.581311     2A    -20.510815     3A    -15.578504
       4A    -11.344143     5A    -11.299744     6A    -11.259999
       7A    -11.231200     8A    -11.212132     9A     -1.389489
      10A     -1.360265    11A     -1.225448    12A     -1.052723
      13A     -1.011614    14A     -0.899958    15A     -0.842229
      16A     -0.776289    17A     -0.719454    18A     -0.698355
      19A     -0.647934    20A     -0.634028    21A     -0.610398
      22A     -0.588566    23A     -0.581906    24A     -0.559308
      25A     -0.533844    26A     -0.523474    27A     -0.517654
      28A     -0.506804    29A     -0.490811    30A     -0.465952
      31A     -0.415608    32A     -0.384496

  @DF-RHF Final Energy:  -400.08492049291146

   => Energetics <=

    Nuclear Repulsion Energy =            400.8264720237861525
    One-Electron Energy =               -1340.9138777437619865
    Two-Electron Energy =                 540.0024852270643123
    Total Energy =                       -400.0849204929114649
  Basis Set: (AUG-CC-PVTZ AUX)
    Blend: AUG-CC-PVTZ-RI
    Molecular point group: c1

    Geometry (in Angstrom), charge = 0, multiplicity = 1:

       Center              X                  Y                   Z               Mass
    ------------   -----------------  -----------------  -----------------  -----------------
         O           -1.558875835410    -1.520062301277    -0.224199265346    15.994914619570
         O            0.150125164590     1.599819698723    -0.296875265346    15.994914619570
         N            0.711805164590    -0.497381301277     0.433049734654    14.003074004430
         C           -1.533763835410    -0.101070301277    -0.427085265346    12.000000000000
         C            2.090249164590    -0.147603301277     0.736243734654    12.000000000000
         C           -0.135142835410     0.412033698723    -0.103076265346    12.000000000000
         C           -2.522554035410     0.594751098723     0.411258634654    12.000000000000
         C            2.984639164590    -0.176063301277    -0.498015265346    12.000000000000
         H           -1.709867835410     0.134560698723    -1.486186265346     1.007825032230
         H            2.081461164590     0.855137698723     1.170379734654     1.007825032230
         H            2.449035164590    -0.844452301277     1.499552734654     1.007825032230
         H            0.396721164590    -1.459075301277     0.468876734654     1.007825032230
         H           -2.382530835410     0.369727698723     1.490080734654     1.007825032230
         H           -3.575016835410     0.319961698723     0.169984734654     1.007825032230
         H           -2.458361835410     1.697347698723     0.305352734654     1.007825032230
         H            2.990715164590    -1.171439301277    -0.950537265346     1.007825032230
         H            2.615852164590     0.542865698723    -1.232360265346     1.007825032230
         H            4.013120164590     0.090641698723    -0.235381265346     1.007825032230
         H           -2.472123835410    -1.820638301277    -0.367665265346     1.007825032230

  Basis Set: AUG-CC-PVTZ
    Blend: AUG-CC-PVTZ
  Basis Set: (AUG-CC-PVTZ AUX)
    Blend: AUG-CC-PVTZ-JKFIT
	 Reference Energy          =    -400.0849204929114649 [Eh]
	 Singles Energy            =      -0.0000000000000000 [Eh]
	 Same-Spin Energy          =      -0.4020286387575250 [Eh]
	 Opposite-Spin Energy      =      -1.3078846949559171 [Eh]
	 Correlation Energy        =      -1.7099133337134420 [Eh]
	 Total Energy              =    -401.7948338266248811 [Eh]

	 ================> DF-SCS-MP2 Energies <==================
	-----------------------------------------------------------
	 SCS Same-Spin Scale       =       0.3333333333333333 [-]
	 SCS Opposite-Spin Scale   =       1.2000000000000000 [-]
	 SCS Same-Spin Energy      =      -0.1340095462525083 [Eh]
	 SCS Opposite-Spin Energy  =      -1.5694616339471004 [Eh]
	 SCS Correlation Energy    =      -1.7034711801996087 [Eh]
	 SCS Total Energy          =    -401.7883916731110503 [Eh]
	-----------------------------------------------------------

  Dipole Moment: [D]
     X:    -1.1562      Y:    -2.7279      Z:     0.4869     Total:     3.0026

*** Psi4 exiting successfully. Buy a developer a beer!
