                               Psi4 1.3.2 release

  ==> Input File <==

--------------------------------------------------------------------------
#psi4
#
memory 32 gb

molecule  {
0 1
  O       -2.4683811    -0.5643199     0.0393379
  O       -0.0903380    -1.4616610     0.1717700
  N        0.9259230     0.4056680    -0.6455280
  C       -1.5147550     0.4028960    -0.3432490
  C        2.2711600    -0.1378510    -0.5222970
  C       -0.1966207    -0.3637855    -0.2234526
  C       -1.5844930     1.6236140     0.5658530
  C        2.8531060     0.0659690     0.8699860
  H       -1.6669500     0.7105100    -1.3901450
  H        2.2044940    -1.2028750    -0.7525030
  H        2.8934660     0.3357800    -1.2867330
  H        0.8101310     1.3771570    -0.9023240
  H       -1.3564630     1.3269670     1.5921410
  H       -2.5982940     2.0269070     0.5395510
  H       -0.8919110     2.4138320     0.2596650
  H        2.9042670     1.1289430     1.1200310
  H        2.2261210    -0.4398610     1.6074960
  H        3.8631580    -0.3501450     0.9292180
  H       -2.0326010    -1.3422410     0.2291570
units angstrom
no_reorient  #important for SAPT in psi4, default
symmetry c1  #important for SAPT in psi4, default
}

set PROPERTIES_ORIGIN ["COM"]
properties('MP2/aug-cc-pvtz', properties = ['dipole'])
--------------------------------------------------------------------------

    Molecular point group: c1
  Charge       = 0
  Multiplicity = 1
  Basis Set: AUG-CC-PVTZ
    Blend: AUG-CC-PVTZ
  Basis Set: (AUG-CC-PVTZ AUX)
    Blend: AUG-CC-PVTZ-JKFIT

    Orbital Energies [Eh]
    ---------------------

    Doubly Occupied:

       1A    -20.548305     2A    -20.543340     3A    -15.580929
       4A    -11.358043     5A    -11.300493     6A    -11.264930
       7A    -11.233630     8A    -11.218752     9A     -1.441351
      10A     -1.368485    11A     -1.222744    12A     -1.050981
      13A     -1.005688    14A     -0.900068    15A     -0.844618
      16A     -0.780885    17A     -0.755017    18A     -0.688655
      19A     -0.658425    20A     -0.642609    21A     -0.612832
      22A     -0.598113    23A     -0.581957    24A     -0.563538
      25A     -0.545415    26A     -0.537935    27A     -0.529167
      28A     -0.522088    29A     -0.499094    30A     -0.451919
      31A     -0.436137    32A     -0.393989

  @DF-RHF Final Energy:  -400.08060314564102

   => Energetics <=

    Nuclear Repulsion Energy =            401.5758852210176997
    One-Electron Energy =               -1341.9527085870106475
    Two-Electron Energy =                 540.2962202203519837
    Total Energy =                       -400.0806031456410210
  Basis Set: (AUG-CC-PVTZ AUX)
    Blend: AUG-CC-PVTZ-RI
    Molecular point group: c1

    Geometry (in Angstrom), charge = 0, multiplicity = 1:

       Center              X                  Y                   Z               Mass
    ------------   -----------------  -----------------  -----------------  -----------------
         O           -2.471671115908    -0.550629347726     0.035407738426    15.994914619570
         O           -0.093628015908    -1.447970447726     0.167839838426    15.994914619570
         N            0.922632984092     0.419358552274    -0.649458161574    14.003074004430
         C           -1.518045015908     0.416586552274    -0.347179161574    12.000000000000
         C            2.267869984092    -0.124160447726    -0.526227161574    12.000000000000
         C           -0.199910715908    -0.350094947726    -0.227382761574    12.000000000000
         C           -1.587783015908     1.637304552274     0.561922838426    12.000000000000
         C            2.849815984092     0.079659552274     0.866055838426    12.000000000000
         H           -1.670240015908     0.724200552274    -1.394075161574     1.007825032230
         H            2.201203984092    -1.189184447726    -0.756433161574     1.007825032230
         H            2.890175984092     0.349470552274    -1.290663161574     1.007825032230
         H            0.806840984092     1.390847552274    -0.906254161574     1.007825032230
         H           -1.359753015908     1.340657552274     1.588210838426     1.007825032230
         H           -2.601584015908     2.040597552274     0.535620838426     1.007825032230
         H           -0.895201015908     2.427522552274     0.255734838426     1.007825032230
         H            2.900976984092     1.142633552274     1.116100838426     1.007825032230
         H            2.222830984092    -0.426170447726     1.603565838426     1.007825032230
         H            3.859867984092    -0.336454447726     0.925287838426     1.007825032230
         H           -2.035891015908    -1.328550447726     0.225226838426     1.007825032230

  Basis Set: AUG-CC-PVTZ
    Blend: AUG-CC-PVTZ
  Basis Set: (AUG-CC-PVTZ AUX)
    Blend: AUG-CC-PVTZ-JKFIT
	 Reference Energy          =    -400.0806031456410210 [Eh]
	 Singles Energy            =      -0.0000000000000000 [Eh]
	 Same-Spin Energy          =      -0.3998630709679234 [Eh]
	 Opposite-Spin Energy      =      -1.3032367761749115 [Eh]
	 Correlation Energy        =      -1.7030998471428349 [Eh]
	 Total Energy              =    -401.7837029927838444 [Eh]

	 ================> DF-SCS-MP2 Energies <==================
	-----------------------------------------------------------
	 SCS Same-Spin Scale       =       0.3333333333333333 [-]
	 SCS Opposite-Spin Scale   =       1.2000000000000000 [-]
	 SCS Same-Spin Energy      =      -0.1332876903226411 [Eh]
	 SCS Opposite-Spin Energy  =      -1.5638841314098937 [Eh]
	 SCS Correlation Energy    =      -1.6971718217325349 [Eh]
	 SCS Total Energy          =    -401.7777749673735457 [Eh]
	-----------------------------------------------------------

  Dipole Moment: [D]
     X:     2.4774      Y:     2.8374      Z:    -0.8708     Total:     3.8661

*** Psi4 exiting successfully. Buy a developer a beer!
