                               Psi4 1.3.2 release

  ==> Input File <==

--------------------------------------------------------------------------
#psi4
#
memory 32 gb

molecule  {
0 1
  O       -2.5211540    -0.5137840     0.0284240
  O       -0.0903380    -1.4616610     0.1717700
  N        0.9259230     0.4056680    -0.6455280
  C       -1.5147550     0.4028960    -0.3432490
  C        2.2804813    -0.1164776    -0.5324036
  C       -0.1722003    -0.2796350    -0.2539036
  C       -1.5844930     1.6236140     0.5658530
  C        2.8531060     0.0659690     0.8699860
  H       -1.6669500     0.7105100    -1.3901450
  H        2.2044940    -1.2028750    -0.7525030
  H        2.8934660     0.3357800    -1.2867330
  H        0.8101310     1.3771570    -0.9023240
  H       -1.3564630     1.3269670     1.5921410
  H       -2.5982940     2.0269070     0.5395510
  H       -0.8919110     2.4138320     0.2596650
  H        2.9042670     1.1289430     1.1200310
  H        2.2261210    -0.4398610     1.6074960
  H        3.8631580    -0.3501450     0.9292180
  H       -2.0326010    -1.3422410     0.2291570
units angstrom
no_reorient  #important for SAPT in psi4, default
symmetry c1  #important for SAPT in psi4, default
}

set PROPERTIES_ORIGIN ["COM"]
properties('MP2/aug-cc-pvtz', properties = ['dipole'])
--------------------------------------------------------------------------

    Molecular point group: c1
  Charge       = 0
  Multiplicity = 1
  Basis Set: AUG-CC-PVTZ
    Blend: AUG-CC-PVTZ
  Basis Set: (AUG-CC-PVTZ AUX)
    Blend: AUG-CC-PVTZ-JKFIT

    Orbital Energies [Eh]
    ---------------------

    Doubly Occupied:

       1A    -20.549291     2A    -20.530597     3A    -15.600391
       4A    -11.361130     5A    -11.299406     6A    -11.274346
       7A    -11.232771     8A    -11.224540     9A     -1.390959
      10A     -1.343882    11A     -1.243914    12A     -1.056140
      13A     -1.013825    14A     -0.906620    15A     -0.852445
      16A     -0.791774    17A     -0.746081    18A     -0.677416
      19A     -0.652222    20A     -0.638718    21A     -0.610995
      22A     -0.595316    23A     -0.575520    24A     -0.564137
      25A     -0.544180    26A     -0.535353    27A     -0.520621
      28A     -0.513451    29A     -0.498725    30A     -0.446766
      31A     -0.437852    32A     -0.401921

  @DF-RHF Final Energy:  -400.08424447050743

   => Energetics <=

    Nuclear Repulsion Energy =            400.2103014719254475
    One-Electron Energy =               -1339.3264774932802084
    Two-Electron Energy =                 539.0319315508472755
    Total Energy =                       -400.0842444705074286
  Basis Set: (AUG-CC-PVTZ AUX)
    Blend: AUG-CC-PVTZ-RI
    Molecular point group: c1

    Geometry (in Angstrom), charge = 0, multiplicity = 1:

       Center              X                  Y                   Z               Mass
    ------------   -----------------  -----------------  -----------------  -----------------
         O           -2.520692722252    -0.517813146262     0.030141804496    15.994914619570
         O           -0.089876722252    -1.465690146262     0.173487804496    15.994914619570
         N            0.926384277748     0.401638853738    -0.643810195504    14.003074004430
         C           -1.514293722252     0.398866853738    -0.341531195504    12.000000000000
         C            2.280942577748    -0.120506746262    -0.530685795504    12.000000000000
         C           -0.171739022252    -0.283664146262    -0.252185795504    12.000000000000
         C           -1.584031722252     1.619584853738     0.567570804496    12.000000000000
         C            2.853567277748     0.061939853738     0.871703804496    12.000000000000
         H           -1.666488722252     0.706480853738    -1.388427195504     1.007825032230
         H            2.204955277748    -1.206904146262    -0.750785195504     1.007825032230
         H            2.893927277748     0.331750853738    -1.285015195504     1.007825032230
         H            0.810592277748     1.373127853738    -0.900606195504     1.007825032230
         H           -1.356001722252     1.322937853738     1.593858804496     1.007825032230
         H           -2.597832722252     2.022877853738     0.541268804496     1.007825032230
         H           -0.891449722252     2.409802853738     0.261382804496     1.007825032230
         H            2.904728277748     1.124913853738     1.121748804496     1.007825032230
         H            2.226582277748    -0.443890146262     1.609213804496     1.007825032230
         H            3.863619277748    -0.354174146262     0.930935804496     1.007825032230
         H           -2.032139722252    -1.346270146262     0.230874804496     1.007825032230

  Basis Set: AUG-CC-PVTZ
    Blend: AUG-CC-PVTZ
  Basis Set: (AUG-CC-PVTZ AUX)
    Blend: AUG-CC-PVTZ-JKFIT
	 Reference Energy          =    -400.0842444705074286 [Eh]
	 Singles Energy            =      -0.0000000000000000 [Eh]
	 Same-Spin Energy          =      -0.4026601625823226 [Eh]
	 Opposite-Spin Energy      =      -1.3087176012925044 [Eh]
	 Correlation Energy        =      -1.7113777638748269 [Eh]
	 Total Energy              =    -401.7956222343822787 [Eh]

	 ================> DF-SCS-MP2 Energies <==================
	-----------------------------------------------------------
	 SCS Same-Spin Scale       =       0.3333333333333333 [-]
	 SCS Opposite-Spin Scale   =       1.2000000000000000 [-]
	 SCS Same-Spin Energy      =      -0.1342200541941075 [Eh]
	 SCS Opposite-Spin Energy  =      -1.5704611215510051 [Eh]
	 SCS Correlation Energy    =      -1.7046811757451126 [Eh]
	 SCS Total Energy          =    -401.7889256462525509 [Eh]
	-----------------------------------------------------------

  Dipole Moment: [D]
     X:     3.0747      Y:     3.2833      Z:    -1.0768     Total:     4.6253

*** Psi4 exiting successfully. Buy a developer a beer!
