                               Psi4 1.4a3.dev225

  ==> Input File <==

--------------------------------------------------------------------------
#psi4
#
memory 32 gb

molecule  {
0 1
  O       -1.5707600    -1.5123310    -0.2332890
  O        0.1382410     1.6075510    -0.3059650
  N        0.6999210    -0.4896500     0.4239600
  C       -1.5456480    -0.0933390    -0.4361750
  C        2.0783650    -0.1398720     0.7271540
  C       -0.1157382     0.3861685    -0.0923599
  C       -2.5680410     0.6261290     0.4306590
  C        2.9727550    -0.1683320    -0.5071050
  H       -1.7217520     0.1422920    -1.4952760
  H        2.0695770     0.8628690     1.1612900
  H        2.4371510    -0.8367210     1.4904630
  H        0.3848370    -1.4513440     0.4597870
  H       -2.3944150     0.3774590     1.4809910
  H       -3.5869010     0.3276930     0.1608950
  H       -2.4702460     1.7050790     0.2962630
  H        2.9788310    -1.1637080    -0.9596270
  H        2.6039680     0.5505970    -1.2414500
  H        4.0012360     0.0983730    -0.2444710
  H       -2.4840080    -1.8129070    -0.3767550
units angstrom
no_reorient  #important for SAPT in psi4, default
symmetry c1  #important for SAPT in psi4, default
}

set PROPERTIES_ORIGIN ["COM"]
properties('MP2/aug-cc-pvtz', properties = ['dipole'])
--------------------------------------------------------------------------

    Molecular point group: c1
  Charge       = 0
  Multiplicity = 1
  Basis Set: AUG-CC-PVTZ
    Blend: AUG-CC-PVTZ
  Basis Set: (AUG-CC-PVTZ AUX)
    Blend: AUG-CC-PVTZ-JKFIT

    Orbital Energies [Eh]
    ---------------------

    Doubly Occupied:

       1A    -20.580071     2A    -20.500635     3A    -15.586905
       4A    -11.340311     5A    -11.300839     6A    -11.264541
       7A    -11.227256     8A    -11.215284     9A     -1.386399
      10A     -1.345927    11A     -1.238050    12A     -1.042759
      13A     -1.014995    14A     -0.901107    15A     -0.847080
      16A     -0.788119    17A     -0.718540    18A     -0.691536
      19A     -0.641299    20A     -0.638299    21A     -0.608700
      22A     -0.590495    23A     -0.580037    24A     -0.557477
      25A     -0.536161    26A     -0.525777    27A     -0.516999
      28A     -0.505964    29A     -0.492867    30A     -0.460275
      31A     -0.408202    32A     -0.386774

  @DF-RHF Final Energy:  -400.08346965637003

   => Energetics <=

    Nuclear Repulsion Energy =            400.1057882531735572
    One-Electron Energy =               -1339.4991494771020371
    Two-Electron Energy =                 539.3098915675584522
    Total Energy =                       -400.0834696563699708
  Basis Set: (AUG-CC-PVTZ AUX)
    Blend: AUG-CC-PVTZ-RI
    Molecular point group: c1

    Geometry (in Angstrom), charge = 0, multiplicity = 1:

       Center              X                  Y                   Z               Mass
    ------------   -----------------  -----------------  -----------------  -----------------
         O           -1.558638662176    -1.519042487119    -0.229149380277    15.994914619570
         O            0.150362337824     1.600839512881    -0.301825380277    15.994914619570
         N            0.712042337824    -0.496361487119     0.428099619723    14.003074004430
         C           -1.533526662176    -0.100050487119    -0.432035380277    12.000000000000
         C            2.090486337824    -0.146583487119     0.731293619723    12.000000000000
         C           -0.103616862176     0.379457012881    -0.088220280277    12.000000000000
         C           -2.555919662176     0.619417512881     0.434798619723    12.000000000000
         C            2.984876337824    -0.175043487119    -0.502965380277    12.000000000000
         H           -1.709630662176     0.135580512881    -1.491136380277     1.007825032230
         H            2.081698337824     0.856157512881     1.165429619723     1.007825032230
         H            2.449272337824    -0.843432487119     1.494602619723     1.007825032230
         H            0.396958337824    -1.458055487119     0.463926619723     1.007825032230
         H           -2.382293662176     0.370747512881     1.485130619723     1.007825032230
         H           -3.574779662176     0.320981512881     0.165034619723     1.007825032230
         H           -2.458124662176     1.698367512881     0.300402619723     1.007825032230
         H            2.990952337824    -1.170419487119    -0.955487380277     1.007825032230
         H            2.616089337824     0.543885512881    -1.237310380277     1.007825032230
         H            4.013357337824     0.091661512881    -0.240331380277     1.007825032230
         H           -2.471886662176    -1.819618487119    -0.372615380277     1.007825032230

  Basis Set: AUG-CC-PVTZ
    Blend: AUG-CC-PVTZ
  Basis Set: (AUG-CC-PVTZ AUX)
    Blend: AUG-CC-PVTZ-JKFIT
	 Reference Energy          =    -400.0834696563700277 [Eh]
	 Singles Energy            =      -0.0000000000000000 [Eh]
	 Same-Spin Energy          =      -0.4018519336688100 [Eh]
	 Opposite-Spin Energy      =      -1.3079261842091634 [Eh]
	 Correlation Energy        =      -1.7097781178779734 [Eh]
	 Total Energy              =    -401.7932477742480160 [Eh]

	 ================> DF-SCS-MP2 Energies <==================
	-----------------------------------------------------------
	 SCS Same-Spin Scale       =       0.3333333333333333 [-]
	 SCS Opposite-Spin Scale   =       1.2000000000000000 [-]
	 SCS Same-Spin Energy      =      -0.1339506445562700 [Eh]
	 SCS Opposite-Spin Energy  =      -1.5695114210509959 [Eh]
	 SCS Correlation Energy    =      -1.7034620656072659 [Eh]
	 SCS Total Energy          =    -401.7869317219772825 [Eh]
	-----------------------------------------------------------

  Dipole Moment: [D]
     X:    -0.9026      Y:    -3.0438      Z:     0.6034     Total:     3.2316

*** Psi4 exiting successfully. Buy a developer a beer!
