                               Psi4 1.3.2 release

  ==> Input File <==

--------------------------------------------------------------------------
#psi4
#
memory 32 gb

molecule  {
0 1
  O       -2.5211540    -0.5137840     0.0284240
  O       -0.0903380    -1.4616610     0.1717700
  N        0.9259230     0.4056680    -0.6455280
  C       -1.5147550     0.4028960    -0.3432490
  C        2.2711600    -0.1378510    -0.5222970
  C       -0.1693615    -0.1096779    -0.3148855
  C       -1.5844930     1.6236140     0.5658530
  C        2.8531060     0.0659690     0.8699860
  H       -1.6669500     0.7105100    -1.3901450
  H        2.2044940    -1.2028750    -0.7525030
  H        2.8934660     0.3357800    -1.2867330
  H        0.8101310     1.3771570    -0.9023240
  H       -1.3564630     1.3269670     1.5921410
  H       -2.5982940     2.0269070     0.5395510
  H       -0.8919110     2.4138320     0.2596650
  H        2.9042670     1.1289430     1.1200310
  H        2.2261210    -0.4398610     1.6074960
  H        3.8631580    -0.3501450     0.9292180
  H       -2.0326010    -1.3422410     0.2291570
units angstrom
no_reorient  #important for SAPT in psi4, default
symmetry c1  #important for SAPT in psi4, default
}

set PROPERTIES_ORIGIN ["COM"]
properties('MP2/aug-cc-pvtz', properties = ['dipole'])
--------------------------------------------------------------------------

    Molecular point group: c1
  Charge       = 0
  Multiplicity = 1
  Basis Set: AUG-CC-PVTZ
    Blend: AUG-CC-PVTZ
  Basis Set: (AUG-CC-PVTZ AUX)
    Blend: AUG-CC-PVTZ-JKFIT

    Orbital Energies [Eh]
    ---------------------

    Doubly Occupied:

       1A    -20.548803     2A    -20.493721     3A    -15.628389
       4A    -11.358684     5A    -11.303074     6A    -11.288058
       7A    -11.237071     8A    -11.231671     9A     -1.370400
      10A     -1.336172    11A     -1.208368    12A     -1.076978
      13A     -1.031452    14A     -0.921346    15A     -0.873197
      16A     -0.808809    17A     -0.748155    18A     -0.690620
      19A     -0.663041    20A     -0.628876    21A     -0.620239
      22A     -0.588854    23A     -0.569100    24A     -0.554160
      25A     -0.551080    26A     -0.540530    27A     -0.515305
      28A     -0.499715    29A     -0.480910    30A     -0.443795
      31A     -0.409179    32A     -0.387852

  @DF-RHF Final Energy:  -400.02315093711172

   => Energetics <=

    Nuclear Repulsion Energy =            400.1543598807455737
    One-Electron Energy =               -1339.1398159491752722
    Two-Electron Energy =                 538.9623051313179758
    Total Energy =                       -400.0231509371117227
  Basis Set: (AUG-CC-PVTZ AUX)
    Blend: AUG-CC-PVTZ-RI
    Molecular point group: c1

    Geometry (in Angstrom), charge = 0, multiplicity = 1:

       Center              X                  Y                   Z               Mass
    ------------   -----------------  -----------------  -----------------  -----------------
         O           -2.520028298963    -0.533042220015     0.035356264063    15.994914619570
         O           -0.089212298963    -1.480919220015     0.178702264063    15.994914619570
         N            0.927048701037     0.386409779985    -0.638595735937    14.003074004430
         C           -1.513629298963     0.383637779985    -0.336316735937    12.000000000000
         C            2.272285701037    -0.157109220015    -0.515364735937    12.000000000000
         C           -0.168235798963    -0.128936120015    -0.307953235937    12.000000000000
         C           -1.583367298963     1.604355779985     0.572785264063    12.000000000000
         C            2.854231701037     0.046710779985     0.876918264063    12.000000000000
         H           -1.665824298963     0.691251779985    -1.383212735937     1.007825032230
         H            2.205619701037    -1.222133220015    -0.745570735937     1.007825032230
         H            2.894591701037     0.316521779985    -1.279800735937     1.007825032230
         H            0.811256701037     1.357898779985    -0.895391735937     1.007825032230
         H           -1.355337298963     1.307708779985     1.599073264063     1.007825032230
         H           -2.597168298963     2.007648779985     0.546483264063     1.007825032230
         H           -0.890785298963     2.394573779985     0.266597264063     1.007825032230
         H            2.905392701037     1.109684779985     1.126963264063     1.007825032230
         H            2.227246701037    -0.459119220015     1.614428264063     1.007825032230
         H            3.864283701037    -0.369403220015     0.936150264063     1.007825032230
         H           -2.031475298963    -1.361499220015     0.236089264063     1.007825032230

  Basis Set: AUG-CC-PVTZ
    Blend: AUG-CC-PVTZ
  Basis Set: (AUG-CC-PVTZ AUX)
    Blend: AUG-CC-PVTZ-JKFIT
	 Reference Energy          =    -400.0231509371117227 [Eh]
	 Singles Energy            =      -0.0000000000000000 [Eh]
	 Same-Spin Energy          =      -0.4062523664230341 [Eh]
	 Opposite-Spin Energy      =      -1.3157738925159927 [Eh]
	 Correlation Energy        =      -1.7220262589390267 [Eh]
	 Total Energy              =    -401.7451771960507472 [Eh]

	 ================> DF-SCS-MP2 Energies <==================
	-----------------------------------------------------------
	 SCS Same-Spin Scale       =       0.3333333333333333 [-]
	 SCS Opposite-Spin Scale   =       1.2000000000000000 [-]
	 SCS Same-Spin Energy      =      -0.1354174554743447 [Eh]
	 SCS Opposite-Spin Energy  =      -1.5789286710191912 [Eh]
	 SCS Correlation Energy    =      -1.7143461264935360 [Eh]
	 SCS Total Energy          =    -401.7374970636052467 [Eh]
	-----------------------------------------------------------

  Dipole Moment: [D]
     X:     3.5867      Y:     4.2253      Z:    -1.3794     Total:     5.7114

*** Psi4 exiting successfully. Buy a developer a beer!
