                               Psi4 1.4a3.dev225

  ==> Input File <==

--------------------------------------------------------------------------
#psi4
#
memory 32 gb

molecule  {
0 1
  O       -1.5707600    -1.5123310    -0.2332890
  O        0.1382410     1.6075510    -0.3059650
  N        0.6999210    -0.4896500     0.4239600
  C       -1.5456480    -0.0933390    -0.4361750
  C        2.0783650    -0.1398720     0.7271540
  C       -0.1470270     0.4197650    -0.1121660
  C       -2.5680410     0.6261290     0.4306590
  C        2.9727550    -0.1683320    -0.5071050
  H       -1.7217520     0.1422920    -1.4952760
  H        2.0695770     0.8628690     1.1612900
  H        2.4371510    -0.8367210     1.4904630
  H        0.3848370    -1.4513440     0.4597870
  H       -2.3944150     0.3774590     1.4809910
  H       -3.5869010     0.3276930     0.1608950
  H       -2.4702460     1.7050790     0.2962630
  H        2.9788310    -1.1637080    -0.9596270
  H        2.6039680     0.5505970    -1.2414500
  H        4.0012360     0.0983730    -0.2444710
  H       -2.4370344    -1.7974466    -0.3693757
units angstrom
no_reorient  #important for SAPT in psi4, default
symmetry c1  #important for SAPT in psi4, default
}

set PROPERTIES_ORIGIN ["COM"]
properties('MP2/aug-cc-pvtz', properties = ['dipole'])
--------------------------------------------------------------------------

    Molecular point group: c1
  Charge       = 0
  Multiplicity = 1
  Basis Set: AUG-CC-PVTZ
    Blend: AUG-CC-PVTZ
  Basis Set: (AUG-CC-PVTZ AUX)
    Blend: AUG-CC-PVTZ-JKFIT

    Orbital Energies [Eh]
    ---------------------

    Doubly Occupied:

       1A    -20.577130     2A    -20.510622     3A    -15.578390
       4A    -11.343976     5A    -11.302310     6A    -11.259985
       7A    -11.229842     8A    -11.212126     9A     -1.398216
      10A     -1.362262    11A     -1.225576    12A     -1.048066
      13A     -1.010179    14A     -0.904012    15A     -0.844279
      16A     -0.777231    17A     -0.722171    18A     -0.702365
      19A     -0.644371    20A     -0.634423    21A     -0.610440
      22A     -0.589269    23A     -0.583012    24A     -0.560201
      25A     -0.540026    26A     -0.526421    27A     -0.520387
      28A     -0.509132    29A     -0.490863    30A     -0.462327
      31A     -0.416079    32A     -0.384509

  @DF-RHF Final Energy:  -400.08861266716468

   => Energetics <=

    Nuclear Repulsion Energy =            400.2790581726832784
    One-Electron Energy =               -1339.7749496989254112
    Two-Electron Energy =                 539.4072788590773371
    Total Energy =                       -400.0886126671647389
  Basis Set: (AUG-CC-PVTZ AUX)
    Blend: AUG-CC-PVTZ-RI
    Molecular point group: c1

    Geometry (in Angstrom), charge = 0, multiplicity = 1:

       Center              X                  Y                   Z               Mass
    ------------   -----------------  -----------------  -----------------  -----------------
         O           -1.555836071702    -1.522619041878    -0.227182877327    15.994914619570
         O            0.153164928298     1.597262958122    -0.299858877327    15.994914619570
         N            0.714844928298    -0.499938041878     0.430066122673    14.003074004430
         C           -1.530724071702    -0.103627041878    -0.430068877327    12.000000000000
         C            2.093288928298    -0.150160041878     0.733260122673    12.000000000000
         C           -0.132103071702     0.409476958122    -0.106059877327    12.000000000000
         C           -2.553117071702     0.615840958122     0.436765122673    12.000000000000
         C            2.987678928298    -0.178620041878    -0.500998877327    12.000000000000
         H           -1.706828071702     0.132003958122    -1.489169877327     1.007825032230
         H            2.084500928298     0.852580958122     1.167396122673     1.007825032230
         H            2.452074928298    -0.847009041878     1.496569122673     1.007825032230
         H            0.399760928298    -1.461632041878     0.465893122673     1.007825032230
         H           -2.379491071702     0.367170958122     1.487097122673     1.007825032230
         H           -3.571977071702     0.317404958122     0.167001122673     1.007825032230
         H           -2.455322071702     1.694790958122     0.302369122673     1.007825032230
         H            2.993754928298    -1.173996041878    -0.953520877327     1.007825032230
         H            2.618891928298     0.540308958122    -1.235343877327     1.007825032230
         H            4.016159928298     0.088084958122    -0.238364877327     1.007825032230
         H           -2.422110471702    -1.807734641878    -0.363269577327     1.007825032230

  Basis Set: AUG-CC-PVTZ
    Blend: AUG-CC-PVTZ
  Basis Set: (AUG-CC-PVTZ AUX)
    Blend: AUG-CC-PVTZ-JKFIT
	 Reference Energy          =    -400.0886126671646821 [Eh]
	 Singles Energy            =      -0.0000000000000000 [Eh]
	 Same-Spin Energy          =      -0.4009843058310226 [Eh]
	 Opposite-Spin Energy      =      -1.3059316144835960 [Eh]
	 Correlation Energy        =      -1.7069159203146185 [Eh]
	 Total Energy              =    -401.7955285874792821 [Eh]

	 ================> DF-SCS-MP2 Energies <==================
	-----------------------------------------------------------
	 SCS Same-Spin Scale       =       0.3333333333333333 [-]
	 SCS Opposite-Spin Scale   =       1.2000000000000000 [-]
	 SCS Same-Spin Energy      =      -0.1336614352770075 [Eh]
	 SCS Opposite-Spin Energy  =      -1.5671179373803150 [Eh]
	 SCS Correlation Energy    =      -1.7007793726573226 [Eh]
	 SCS Total Energy          =    -401.7893920398220189 [Eh]
	-----------------------------------------------------------

  Dipole Moment: [D]
     X:    -1.1293      Y:    -2.7370      Z:     0.4826     Total:     2.9999

*** Psi4 exiting successfully. Buy a developer a beer!
