                               Psi4 1.3.2 release

  ==> Input File <==

--------------------------------------------------------------------------
#psi4
#
memory 32 gb

molecule  {
0 1
  O       -2.5211540    -0.5137840     0.0284240
  O       -0.0903380    -1.4616610     0.1717700
  N        0.9259230     0.4056680    -0.6455280
  C       -1.5147550     0.4028960    -0.3432490
  C        2.2711600    -0.1378510    -0.5222970
  C       -0.1583790    -0.2975740    -0.2472510
  C       -1.5757776     1.5918548     0.6076114
  C        2.8531060     0.0659690     0.8699860
  H       -1.6630873     0.6737622    -1.4007980
  H        2.2044940    -1.2028750    -0.7525030
  H        2.8934660     0.3357800    -1.2867330
  H        0.8101310     1.3771570    -0.9023240
  H       -1.3564630     1.3269670     1.5921410
  H       -2.5982940     2.0269070     0.5395510
  H       -0.8919110     2.4138320     0.2596650
  H        2.9042670     1.1289430     1.1200310
  H        2.2261210    -0.4398610     1.6074960
  H        3.8631580    -0.3501450     0.9292180
  H       -2.0326010    -1.3422410     0.2291570
units angstrom
no_reorient  #important for SAPT in psi4, default
symmetry c1  #important for SAPT in psi4, default
}

set PROPERTIES_ORIGIN ["COM"]
properties('MP2/aug-cc-pvtz', properties = ['dipole'])
--------------------------------------------------------------------------

    Molecular point group: c1
  Charge       = 0
  Multiplicity = 1
  Basis Set: AUG-CC-PVTZ
    Blend: AUG-CC-PVTZ
  Basis Set: (AUG-CC-PVTZ AUX)
    Blend: AUG-CC-PVTZ-JKFIT

    Orbital Energies [Eh]
    ---------------------

    Doubly Occupied:

       1A    -20.547251     2A    -20.532950     3A    -15.598295
       4A    -11.358224     5A    -11.298284     6A    -11.273562
       7A    -11.232454     8A    -11.224270     9A     -1.398141
      10A     -1.346432    11A     -1.245588    12A     -1.052666
      13A     -1.012543    14A     -0.903493    15A     -0.850070
      16A     -0.794224    17A     -0.743969    18A     -0.677009
      19A     -0.648997    20A     -0.641635    21A     -0.611756
      22A     -0.599475    23A     -0.580952    24A     -0.559097
      25A     -0.541687    26A     -0.536278    27A     -0.520054
      28A     -0.514311    29A     -0.502038    30A     -0.447349
      31A     -0.434517    32A     -0.403339

  @DF-RHF Final Energy:  -400.08415208721686

   => Energetics <=

    Nuclear Repulsion Energy =            400.6635355245778101
    One-Electron Energy =               -1340.2335530319705867
    Two-Electron Energy =                 539.4858654201759691
    Total Energy =                       -400.0841520872168076
  Basis Set: (AUG-CC-PVTZ AUX)
    Blend: AUG-CC-PVTZ-RI
    Molecular point group: c1

    Geometry (in Angstrom), charge = 0, multiplicity = 1:

       Center              X                  Y                   Z               Mass
    ------------   -----------------  -----------------  -----------------  -----------------
         O           -2.522080483981    -0.510212340692     0.024235749898    15.994914619570
         O           -0.091264483981    -1.458089340692     0.167581749898    15.994914619570
         N            0.924996516019     0.409239659308    -0.649716250102    14.003074004430
         C           -1.515681483981     0.406467659308    -0.347437250102    12.000000000000
         C            2.270233516019    -0.134279340692    -0.526485250102    12.000000000000
         C           -0.159305483981    -0.294002340692    -0.251439250102    12.000000000000
         C           -1.576704083981     1.595426459308     0.603423149898    12.000000000000
         C            2.852179516019     0.069540659308     0.865797749898    12.000000000000
         H           -1.664013783981     0.677333859308    -1.404986250102     1.007825032230
         H            2.203567516019    -1.199303340692    -0.756691250102     1.007825032230
         H            2.892539516019     0.339351659308    -1.290921250102     1.007825032230
         H            0.809204516019     1.380728659308    -0.906512250102     1.007825032230
         H           -1.357389483981     1.330538659308     1.587952749898     1.007825032230
         H           -2.599220483981     2.030478659308     0.535362749898     1.007825032230
         H           -0.892837483981     2.417403659308     0.255476749898     1.007825032230
         H            2.903340516019     1.132514659308     1.115842749898     1.007825032230
         H            2.225194516019    -0.436289340692     1.603307749898     1.007825032230
         H            3.862231516019    -0.346573340692     0.925029749898     1.007825032230
         H           -2.033527483981    -1.338669340692     0.224968749898     1.007825032230

  Basis Set: AUG-CC-PVTZ
    Blend: AUG-CC-PVTZ
  Basis Set: (AUG-CC-PVTZ AUX)
    Blend: AUG-CC-PVTZ-JKFIT
	 Reference Energy          =    -400.0841520872168644 [Eh]
	 Singles Energy            =      -0.0000000000000000 [Eh]
	 Same-Spin Energy          =      -0.4021878524578903 [Eh]
	 Opposite-Spin Energy      =      -1.3078175965182148 [Eh]
	 Correlation Energy        =      -1.7100054489761052 [Eh]
	 Total Energy              =    -401.7941575361929836 [Eh]

	 ================> DF-SCS-MP2 Energies <==================
	-----------------------------------------------------------
	 SCS Same-Spin Scale       =       0.3333333333333333 [-]
	 SCS Opposite-Spin Scale   =       1.2000000000000000 [-]
	 SCS Same-Spin Energy      =      -0.1340626174859634 [Eh]
	 SCS Opposite-Spin Energy  =      -1.5693811158218578 [Eh]
	 SCS Correlation Energy    =      -1.7034437333078212 [Eh]
	 SCS Total Energy          =    -401.7875958205247002 [Eh]
	-----------------------------------------------------------

  Dipole Moment: [D]
     X:     3.0900      Y:     3.1624      Z:    -1.0337     Total:     4.5406

*** Psi4 exiting successfully. Buy a developer a beer!
