                               Psi4 1.3.2 release

  ==> Input File <==

--------------------------------------------------------------------------
#psi4
#
memory 32 gb

molecule  {
0 1
  O       -2.5211540    -0.5137840     0.0284240
  O       -0.0903380    -1.4616610     0.1717700
  N        0.9259230     0.4056680    -0.6455280
  C       -1.5147550     0.4028960    -0.3432490
  C        2.4559311    -0.2125045    -0.5053710
  C       -0.1583790    -0.2975740    -0.2472510
  C       -1.5844930     1.6236140     0.5658530
  C        2.8531060     0.0659690     0.8699860
  H       -1.6669500     0.7105100    -1.3901450
  H        2.2044940    -1.2028750    -0.7525030
  H        2.8934660     0.3357800    -1.2867330
  H        0.8101310     1.3771570    -0.9023240
  H       -1.3564630     1.3269670     1.5921410
  H       -2.5982940     2.0269070     0.5395510
  H       -0.8919110     2.4138320     0.2596650
  H        2.9042670     1.1289430     1.1200310
  H        2.2261210    -0.4398610     1.6074960
  H        3.8631580    -0.3501450     0.9292180
  H       -2.0326010    -1.3422410     0.2291570
units angstrom
no_reorient  #important for SAPT in psi4, default
symmetry c1  #important for SAPT in psi4, default
}

set PROPERTIES_ORIGIN ["COM"]
properties('MP2/aug-cc-pvtz', properties = ['dipole'])
--------------------------------------------------------------------------

    Molecular point group: c1
  Charge       = 0
  Multiplicity = 1
  Basis Set: AUG-CC-PVTZ
    Blend: AUG-CC-PVTZ
  Basis Set: (AUG-CC-PVTZ AUX)
    Blend: AUG-CC-PVTZ-JKFIT

    Orbital Energies [Eh]
    ---------------------

    Doubly Occupied:

       1A    -20.542838     2A    -20.523874     3A    -15.583546
       4A    -11.349301     5A    -11.291298     6A    -11.287724
       7A    -11.231593     8A    -11.226198     9A     -1.388432
      10A     -1.339226    11A     -1.209330    12A     -1.062397
      13A     -1.018758    14A     -0.892384    15A     -0.854353
      16A     -0.776547    17A     -0.737149    18A     -0.667081
      19A     -0.649816    20A     -0.628046    21A     -0.617441
      22A     -0.596297    23A     -0.577660    24A     -0.562971
      25A     -0.537328    26A     -0.536795    27A     -0.527976
      28A     -0.519372    29A     -0.491463    30A     -0.440356
      31A     -0.424236    32A     -0.398243

  @DF-RHF Final Energy:  -400.05935155381616

   => Energetics <=

    Nuclear Repulsion Energy =            397.7478092845995548
    One-Electron Energy =               -1334.6342628333059110
    Two-Electron Energy =                 536.8271019948901994
    Total Energy =                       -400.0593515538162137
  Basis Set: (AUG-CC-PVTZ AUX)
    Blend: AUG-CC-PVTZ-RI
    Molecular point group: c1

    Geometry (in Angstrom), charge = 0, multiplicity = 1:

       Center              X                  Y                   Z               Mass
    ------------   -----------------  -----------------  -----------------  -----------------
         O           -2.540092047623    -0.506132220990     0.026689242774    15.994914619570
         O           -0.109276047623    -1.454009220990     0.170035242774    15.994914619570
         N            0.906984952377     0.413319779010    -0.647262757226    14.003074004430
         C           -1.533693047623     0.410547779010    -0.344983757226    12.000000000000
         C            2.436993052377    -0.204852720990    -0.507105757226    12.000000000000
         C           -0.177317047623    -0.289922220990    -0.248985757226    12.000000000000
         C           -1.603431047623     1.631265779010     0.564118242774    12.000000000000
         C            2.834167952377     0.073620779010     0.868251242774    12.000000000000
         H           -1.685888047623     0.718161779010    -1.391879757226     1.007825032230
         H            2.185555952377    -1.195223220990    -0.754237757226     1.007825032230
         H            2.874527952377     0.343431779010    -1.288467757226     1.007825032230
         H            0.791192952377     1.384808779010    -0.904058757226     1.007825032230
         H           -1.375401047623     1.334618779010     1.590406242774     1.007825032230
         H           -2.617232047623     2.034558779010     0.537816242774     1.007825032230
         H           -0.910849047623     2.421483779010     0.257930242774     1.007825032230
         H            2.885328952377     1.136594779010     1.118296242774     1.007825032230
         H            2.207182952377    -0.432209220990     1.605761242774     1.007825032230
         H            3.844219952377    -0.342493220990     0.927483242774     1.007825032230
         H           -2.051539047623    -1.334589220990     0.227422242774     1.007825032230

  Basis Set: AUG-CC-PVTZ
    Blend: AUG-CC-PVTZ
  Basis Set: (AUG-CC-PVTZ AUX)
    Blend: AUG-CC-PVTZ-JKFIT
	 Reference Energy          =    -400.0593515538161569 [Eh]
	 Singles Energy            =      -0.0000000000000000 [Eh]
	 Same-Spin Energy          =      -0.4025724837501274 [Eh]
	 Opposite-Spin Energy      =      -1.3095897185334437 [Eh]
	 Correlation Energy        =      -1.7121622022835712 [Eh]
	 Total Energy              =    -401.7715137560997505 [Eh]

	 ================> DF-SCS-MP2 Energies <==================
	-----------------------------------------------------------
	 SCS Same-Spin Scale       =       0.3333333333333333 [-]
	 SCS Opposite-Spin Scale   =       1.2000000000000000 [-]
	 SCS Same-Spin Energy      =      -0.1341908279167091 [Eh]
	 SCS Opposite-Spin Energy  =      -1.5715076622401325 [Eh]
	 SCS Correlation Energy    =      -1.7056984901568417 [Eh]
	 SCS Total Energy          =    -401.7650500439730195 [Eh]
	-----------------------------------------------------------

  Dipole Moment: [D]
     X:     3.7948      Y:     3.0939      Z:    -0.9359     Total:     4.9848

*** Psi4 exiting successfully. Buy a developer a beer!
