                               Psi4 1.3.2 release

  ==> Input File <==

--------------------------------------------------------------------------
#psi4
#
memory 32 gb

molecule  {
0 1
  O       -2.5211540    -0.5137840     0.0284240
  O       -0.0475155    -1.4604966     0.1658194
  N        0.9528918     0.3683076    -0.6352763
  C       -1.5147550     0.4028960    -0.3432490
  C        2.2711600    -0.1378510    -0.5222970
  C       -0.1583790    -0.2975740    -0.2472510
  C       -1.5844930     1.6236140     0.5658530
  C        2.8531060     0.0659690     0.8699860
  H       -1.6669500     0.7105100    -1.3901450
  H        2.2044940    -1.2028750    -0.7525030
  H        2.8934660     0.3357800    -1.2867330
  H        0.8101310     1.3771570    -0.9023240
  H       -1.3564630     1.3269670     1.5921410
  H       -2.5982940     2.0269070     0.5395510
  H       -0.8919110     2.4138320     0.2596650
  H        2.9042670     1.1289430     1.1200310
  H        2.2261210    -0.4398610     1.6074960
  H        3.8631580    -0.3501450     0.9292180
  H       -2.0326010    -1.3422410     0.2291570
units angstrom
no_reorient  #important for SAPT in psi4, default
symmetry c1  #important for SAPT in psi4, default
}

set PROPERTIES_ORIGIN ["COM"]
properties('MP2/aug-cc-pvtz', properties = ['dipole'])
--------------------------------------------------------------------------

    Molecular point group: c1
  Charge       = 0
  Multiplicity = 1
  Basis Set: AUG-CC-PVTZ
    Blend: AUG-CC-PVTZ
  Basis Set: (AUG-CC-PVTZ AUX)
    Blend: AUG-CC-PVTZ-JKFIT

    Orbital Energies [Eh]
    ---------------------

    Doubly Occupied:

       1A    -20.552905     2A    -20.530778     3A    -15.598606
       4A    -11.358720     5A    -11.303156     6A    -11.268621
       7A    -11.233621     8A    -11.221598     9A     -1.399124
      10A     -1.351216    11A     -1.245044    12A     -1.055033
      13A     -1.011950    14A     -0.905970    15A     -0.851438
      16A     -0.781493    17A     -0.746998    18A     -0.679754
      19A     -0.654590    20A     -0.641980    21A     -0.612355
      22A     -0.592640    23A     -0.578042    24A     -0.565578
      25A     -0.544410    26A     -0.535855    27A     -0.519829
      28A     -0.517435    29A     -0.499246    30A     -0.448991
      31A     -0.437227    32A     -0.397738

  @DF-RHF Final Energy:  -400.08269470985164

   => Energetics <=

    Nuclear Repulsion Energy =            400.8239375350395903
    One-Electron Energy =               -1340.5293785833487163
    Two-Electron Energy =                 539.6227463384575458
    Total Energy =                       -400.0826947098515802
  Basis Set: (AUG-CC-PVTZ AUX)
    Blend: AUG-CC-PVTZ-RI
    Molecular point group: c1

    Geometry (in Angstrom), charge = 0, multiplicity = 1:

       Center              X                  Y                   Z               Mass
    ------------   -----------------  -----------------  -----------------  -----------------
         O           -2.530229774478    -0.509474460880     0.028010880757    15.994914619570
         O           -0.056591274478    -1.456187060880     0.165406280757    15.994914619570
         N            0.943816025522     0.372617139120    -0.635689419243    14.003074004430
         C           -1.523830774478     0.407205539120    -0.343662119243    12.000000000000
         C            2.262084225522    -0.133541460880    -0.522710119243    12.000000000000
         C           -0.167454774478    -0.293264460880    -0.247664119243    12.000000000000
         C           -1.593568774478     1.627923539120     0.565439880757    12.000000000000
         C            2.844030225522     0.070278539120     0.869572880757    12.000000000000
         H           -1.676025774478     0.714819539120    -1.390558119243     1.007825032230
         H            2.195418225522    -1.198565460880    -0.752916119243     1.007825032230
         H            2.884390225522     0.340089539120    -1.287146119243     1.007825032230
         H            0.801055225522     1.381466539120    -0.902737119243     1.007825032230
         H           -1.365538774478     1.331276539120     1.591727880757     1.007825032230
         H           -2.607369774478     2.031216539120     0.539137880757     1.007825032230
         H           -0.900986774478     2.418141539120     0.259251880757     1.007825032230
         H            2.895191225522     1.133252539120     1.119617880757     1.007825032230
         H            2.217045225522    -0.435551460880     1.607082880757     1.007825032230
         H            3.854082225522    -0.345835460880     0.928804880757     1.007825032230
         H           -2.041676774478    -1.337931460880     0.228743880757     1.007825032230

  Basis Set: AUG-CC-PVTZ
    Blend: AUG-CC-PVTZ
  Basis Set: (AUG-CC-PVTZ AUX)
    Blend: AUG-CC-PVTZ-JKFIT
	 Reference Energy          =    -400.0826947098516371 [Eh]
	 Singles Energy            =      -0.0000000000000000 [Eh]
	 Same-Spin Energy          =      -0.4026627770282522 [Eh]
	 Opposite-Spin Energy      =      -1.3084179822091833 [Eh]
	 Correlation Energy        =      -1.7110807592374355 [Eh]
	 Total Energy              =    -401.7937754690890984 [Eh]

	 ================> DF-SCS-MP2 Energies <==================
	-----------------------------------------------------------
	 SCS Same-Spin Scale       =       0.3333333333333333 [-]
	 SCS Opposite-Spin Scale   =       1.2000000000000000 [-]
	 SCS Same-Spin Energy      =      -0.1342209256760840 [Eh]
	 SCS Opposite-Spin Energy  =      -1.5701015786510200 [Eh]
	 SCS Correlation Energy    =      -1.7043225043271040 [Eh]
	 SCS Total Energy          =    -401.7870172141787179 [Eh]
	-----------------------------------------------------------

  Dipole Moment: [D]
     X:     2.8346      Y:     3.2340      Z:    -1.0530     Total:     4.4275

*** Psi4 exiting successfully. Buy a developer a beer!
