                               Psi4 1.3.2 release

  ==> Input File <==

--------------------------------------------------------------------------
#psi4
#
memory 32 gb

molecule  {
0 1
  O       -2.5211540    -0.5137840     0.0284240
  O       -0.0903380    -1.4616610     0.1717700
  N        0.9442058     0.4513935    -0.6329531
  C       -1.5147550     0.4028960    -0.3432490
  C        2.2711600    -0.1378510    -0.5222970
  C       -0.1583790    -0.2975740    -0.2472510
  C       -1.5844930     1.6236140     0.5658530
  C        2.8531060     0.0659690     0.8699860
  H       -1.6669500     0.7105100    -1.3901450
  H        2.2420159    -1.2058266    -0.7465603
  H        2.8934660     0.3357800    -1.2867330
  H        0.8101310     1.3771570    -0.9023240
  H       -1.3564630     1.3269670     1.5921410
  H       -2.5982940     2.0269070     0.5395510
  H       -0.8919110     2.4138320     0.2596650
  H        2.9042670     1.1289430     1.1200310
  H        2.2261210    -0.4398610     1.6074960
  H        3.8631580    -0.3501450     0.9292180
  H       -2.0326010    -1.3422410     0.2291570
units angstrom
no_reorient  #important for SAPT in psi4, default
symmetry c1  #important for SAPT in psi4, default
}

set PROPERTIES_ORIGIN ["COM"]
properties('MP2/aug-cc-pvtz', properties = ['dipole'])
--------------------------------------------------------------------------

    Molecular point group: c1
  Charge       = 0
  Multiplicity = 1
  Basis Set: AUG-CC-PVTZ
    Blend: AUG-CC-PVTZ
  Basis Set: (AUG-CC-PVTZ AUX)
    Blend: AUG-CC-PVTZ-JKFIT

    Orbital Energies [Eh]
    ---------------------

    Doubly Occupied:

       1A    -20.549590     2A    -20.540196     3A    -15.594874
       4A    -11.364888     5A    -11.299102     6A    -11.272533
       7A    -11.231748     8A    -11.222089     9A     -1.399362
      10A     -1.347602    11A     -1.243521    12A     -1.051717
      13A     -1.011753    14A     -0.901099    15A     -0.849245
      16A     -0.797475    17A     -0.744234    18A     -0.678132
      19A     -0.651606    20A     -0.644146    21A     -0.607989
      22A     -0.600828    23A     -0.575190    24A     -0.562678
      25A     -0.543399    26A     -0.534348    27A     -0.521122
      28A     -0.518730    29A     -0.500046    30A     -0.447103
      31A     -0.437792    32A     -0.402917

  @DF-RHF Final Energy:  -400.08445941099569

   => Energetics <=

    Nuclear Repulsion Energy =            399.8266486827736799
    One-Electron Energy =               -1338.5281146182069278
    Two-Electron Energy =                 538.6170065244375564
    Total Energy =                       -400.0844594109956915
  Basis Set: (AUG-CC-PVTZ AUX)
    Blend: AUG-CC-PVTZ-RI
    Molecular point group: c1

    Geometry (in Angstrom), charge = 0, multiplicity = 1:

       Center              X                  Y                   Z               Mass
    ------------   -----------------  -----------------  -----------------  -----------------
         O           -2.523663630571    -0.519227354569     0.026868912456    15.994914619570
         O           -0.092847630571    -1.467104354569     0.170214912456    15.994914619570
         N            0.941696169429     0.445950145431    -0.634508187544    14.003074004430
         C           -1.517264630571     0.397452645431    -0.344804087544    12.000000000000
         C            2.268650369429    -0.143294354569    -0.523852087544    12.000000000000
         C           -0.160888630571    -0.303017354569    -0.248806087544    12.000000000000
         C           -1.587002630571     1.618170645431     0.564297912456    12.000000000000
         C            2.850596369429     0.060525645431     0.868430912456    12.000000000000
         H           -1.669459630571     0.705066645431    -1.391700087544     1.007825032230
         H            2.239506269429    -1.211269954569    -0.748115387544     1.007825032230
         H            2.890956369429     0.330336645431    -1.288288087544     1.007825032230
         H            0.807621369429     1.371713645431    -0.903879087544     1.007825032230
         H           -1.358972630571     1.321523645431     1.590585912456     1.007825032230
         H           -2.600803630571     2.021463645431     0.537995912456     1.007825032230
         H           -0.894420630571     2.408388645431     0.258109912456     1.007825032230
         H            2.901757369429     1.123499645431     1.118475912456     1.007825032230
         H            2.223611369429    -0.445304354569     1.605940912456     1.007825032230
         H            3.860648369429    -0.355588354569     0.927662912456     1.007825032230
         H           -2.035110630571    -1.347684354569     0.227601912456     1.007825032230

  Basis Set: AUG-CC-PVTZ
    Blend: AUG-CC-PVTZ
  Basis Set: (AUG-CC-PVTZ AUX)
    Blend: AUG-CC-PVTZ-JKFIT
	 Reference Energy          =    -400.0844594109956915 [Eh]
	 Singles Energy            =      -0.0000000000000000 [Eh]
	 Same-Spin Energy          =      -0.4020356296484355 [Eh]
	 Opposite-Spin Energy      =      -1.3078154551644530 [Eh]
	 Correlation Energy        =      -1.7098510848128885 [Eh]
	 Total Energy              =    -401.7943104958085883 [Eh]

	 ================> DF-SCS-MP2 Energies <==================
	-----------------------------------------------------------
	 SCS Same-Spin Scale       =       0.3333333333333333 [-]
	 SCS Opposite-Spin Scale   =       1.2000000000000000 [-]
	 SCS Same-Spin Energy      =      -0.1340118765494785 [Eh]
	 SCS Opposite-Spin Energy  =      -1.5693785461973435 [Eh]
	 SCS Correlation Energy    =      -1.7033904227468220 [Eh]
	 SCS Total Energy          =    -401.7878498337425413 [Eh]
	-----------------------------------------------------------

  Dipole Moment: [D]
     X:     2.9516      Y:     3.0375      Z:    -1.0494     Total:     4.3634

*** Psi4 exiting successfully. Buy a developer a beer!
