                               Psi4 1.3.2 release

  ==> Input File <==

--------------------------------------------------------------------------
#psi4
#
memory 32 gb

molecule  {
0 1
  O       -2.5211540    -0.5137840     0.0284240
  O       -0.0903380    -1.4616610     0.1717700
  N        0.9259230     0.4056680    -0.6455280
  C       -1.5147550     0.4028960    -0.3432490
  C        2.2711600    -0.1378510    -0.5222970
  C       -0.1583790    -0.2975740    -0.2472510
  C       -1.5844930     1.6236140     0.5658530
  C        2.8531060     0.0659690     0.8699860
  H       -1.6807643     0.7384313    -1.4851690
  H        2.2044940    -1.2028750    -0.7525030
  H        2.8934660     0.3357800    -1.2867330
  H        0.8101310     1.3771570    -0.9023240
  H       -1.3564630     1.3269670     1.5921410
  H       -2.5982940     2.0269070     0.5395510
  H       -0.8919110     2.4138320     0.2596650
  H        2.9042670     1.1289430     1.1200310
  H        2.2261210    -0.4398610     1.6074960
  H        3.8631580    -0.3501450     0.9292180
  H       -2.0326010    -1.3422410     0.2291570
units angstrom
no_reorient  #important for SAPT in psi4, default
symmetry c1  #important for SAPT in psi4, default
}

set PROPERTIES_ORIGIN ["COM"]
properties('MP2/aug-cc-pvtz', properties = ['dipole'])
--------------------------------------------------------------------------

    Molecular point group: c1
  Charge       = 0
  Multiplicity = 1
  Basis Set: AUG-CC-PVTZ
    Blend: AUG-CC-PVTZ
  Basis Set: (AUG-CC-PVTZ AUX)
    Blend: AUG-CC-PVTZ-JKFIT

    Orbital Energies [Eh]
    ---------------------

    Doubly Occupied:

       1A    -20.550895     2A    -20.534181     3A    -15.598520
       4A    -11.360313     5A    -11.310110     6A    -11.273725
       7A    -11.232589     8A    -11.224388     9A     -1.399221
      10A     -1.348103    11A     -1.245891    12A     -1.051389
      13A     -1.012176    14A     -0.902145    15A     -0.846086
      16A     -0.793044    17A     -0.741812    18A     -0.673353
      19A     -0.645784    20A     -0.641039    21A     -0.611002
      22A     -0.599544    23A     -0.576631    24A     -0.563951
      25A     -0.544437    26A     -0.532237    27A     -0.521151
      28A     -0.514857    29A     -0.502770    30A     -0.443665
      31A     -0.435140    32A     -0.403033

  @DF-RHF Final Energy:  -400.08104234176449

   => Energetics <=

    Nuclear Repulsion Energy =            399.9319359474418434
    One-Electron Energy =               -1338.7595963741753167
    Two-Electron Energy =                 538.7466180849689863
    Total Energy =                       -400.0810423417644870
  Basis Set: (AUG-CC-PVTZ AUX)
    Blend: AUG-CC-PVTZ-RI
    Molecular point group: c1

    Geometry (in Angstrom), charge = 0, multiplicity = 1:

       Center              X                  Y                   Z               Mass
    ------------   -----------------  -----------------  -----------------  -----------------
         O           -2.521035034793    -0.514024173893     0.029242045757    15.994914619570
         O           -0.090219034793    -1.461901173893     0.172588045757    15.994914619570
         N            0.926041965207     0.405427826107    -0.644709954243    14.003074004430
         C           -1.514636034793     0.402655826107    -0.342430954243    12.000000000000
         C            2.271278965207    -0.138091173893    -0.521478954243    12.000000000000
         C           -0.158260034793    -0.297814173893    -0.246432954243    12.000000000000
         C           -1.584374034793     1.623373826107     0.566671045757    12.000000000000
         C            2.853224965207     0.065728826107     0.870804045757    12.000000000000
         H           -1.680645334793     0.738191126107    -1.484350954243     1.007825032230
         H            2.204612965207    -1.203115173893    -0.751684954243     1.007825032230
         H            2.893584965207     0.335539826107    -1.285914954243     1.007825032230
         H            0.810249965207     1.376916826107    -0.901505954243     1.007825032230
         H           -1.356344034793     1.326726826107     1.592959045757     1.007825032230
         H           -2.598175034793     2.026666826107     0.540369045757     1.007825032230
         H           -0.891792034793     2.413591826107     0.260483045757     1.007825032230
         H            2.904385965207     1.128702826107     1.120849045757     1.007825032230
         H            2.226239965207    -0.440101173893     1.608314045757     1.007825032230
         H            3.863276965207    -0.350385173893     0.930036045757     1.007825032230
         H           -2.032482034793    -1.342481173893     0.229975045757     1.007825032230

  Basis Set: AUG-CC-PVTZ
    Blend: AUG-CC-PVTZ
  Basis Set: (AUG-CC-PVTZ AUX)
    Blend: AUG-CC-PVTZ-JKFIT
	 Reference Energy          =    -400.0810423417644870 [Eh]
	 Singles Energy            =      -0.0000000000000000 [Eh]
	 Same-Spin Energy          =      -0.4022856613840831 [Eh]
	 Opposite-Spin Energy      =      -1.3085536270681155 [Eh]
	 Correlation Energy        =      -1.7108392884521986 [Eh]
	 Total Energy              =    -401.7918816302166647 [Eh]

	 ================> DF-SCS-MP2 Energies <==================
	-----------------------------------------------------------
	 SCS Same-Spin Scale       =       0.3333333333333333 [-]
	 SCS Opposite-Spin Scale   =       1.2000000000000000 [-]
	 SCS Same-Spin Energy      =      -0.1340952204613610 [Eh]
	 SCS Opposite-Spin Energy  =      -1.5702643524817386 [Eh]
	 SCS Correlation Energy    =      -1.7043595729430996 [Eh]
	 SCS Total Energy          =    -401.7854019147075633 [Eh]
	-----------------------------------------------------------

  Dipole Moment: [D]
     X:     3.0815      Y:     3.1384      Z:    -0.9699     Total:     4.5040

*** Psi4 exiting successfully. Buy a developer a beer!
