                               Psi4 1.4a3.dev225

  ==> Input File <==

--------------------------------------------------------------------------
#psi4
#
memory 32 gb

molecule  {
0 1
  O       -1.5707600    -1.5123310    -0.2332890
  O        0.1382410     1.6075510    -0.3059650
  N        0.6999210    -0.4896500     0.4239600
  C       -1.5456480    -0.0933390    -0.4361750
  C        2.0783650    -0.1398720     0.7271540
  C       -0.1470270     0.4197650    -0.1121660
  C       -2.5680410     0.6261290     0.4306590
  C        2.9727550    -0.1683320    -0.5071050
  H       -1.7137414     0.1315737    -1.4470998
  H        2.0695770     0.8628690     1.1612900
  H        2.4371510    -0.8367210     1.4904630
  H        0.3848370    -1.4513440     0.4597870
  H       -2.3944150     0.3774590     1.4809910
  H       -3.5869010     0.3276930     0.1608950
  H       -2.4702460     1.7050790     0.2962630
  H        2.9788310    -1.1637080    -0.9596270
  H        2.6039680     0.5505970    -1.2414500
  H        4.0012360     0.0983730    -0.2444710
  H       -2.4840080    -1.8129070    -0.3767550
units angstrom
no_reorient  #important for SAPT in psi4, default
symmetry c1  #important for SAPT in psi4, default
}

set PROPERTIES_ORIGIN ["COM"]
properties('MP2/aug-cc-pvtz', properties = ['dipole'])
--------------------------------------------------------------------------

    Molecular point group: c1
  Charge       = 0
  Multiplicity = 1
  Basis Set: AUG-CC-PVTZ
    Blend: AUG-CC-PVTZ
  Basis Set: (AUG-CC-PVTZ AUX)
    Blend: AUG-CC-PVTZ-JKFIT

    Orbital Energies [Eh]
    ---------------------

    Doubly Occupied:

       1A    -20.580838     2A    -20.510543     3A    -15.578035
       4A    -11.343433     5A    -11.295676     6A    -11.259758
       7A    -11.229052     8A    -11.211975     9A     -1.388363
      10A     -1.359777    11A     -1.225053    12A     -1.047128
      13A     -1.010182    14A     -0.903172    15A     -0.845461
      16A     -0.776268    17A     -0.723166    18A     -0.696738
      19A     -0.643379    20A     -0.634023    21A     -0.609979
      22A     -0.588547    23A     -0.582725    24A     -0.558693
      25A     -0.539465    26A     -0.526564    27A     -0.520526
      28A     -0.508712    29A     -0.490503    30A     -0.463861
      31A     -0.415462    32A     -0.384294

  @DF-RHF Final Energy:  -400.08731549620450

   => Energetics <=

    Nuclear Repulsion Energy =            400.2212801558815727
    One-Electron Energy =               -1339.7144931144148359
    Two-Electron Energy =                 539.4058974623287668
    Total Energy =                       -400.0873154962044964
  Basis Set: (AUG-CC-PVTZ AUX)
    Blend: AUG-CC-PVTZ-RI
    Molecular point group: c1

    Geometry (in Angstrom), charge = 0, multiplicity = 1:

       Center              X                  Y                   Z               Mass
    ------------   -----------------  -----------------  -----------------  -----------------
         O           -1.555500675142    -1.522393693575    -0.227534060243    15.994914619570
         O            0.153500324858     1.597488306425    -0.300210060243    15.994914619570
         N            0.715180324858    -0.499712693575     0.429714939757    14.003074004430
         C           -1.530388675142    -0.103401693575    -0.430420060243    12.000000000000
         C            2.093624324858    -0.149934693575     0.732908939757    12.000000000000
         C           -0.131767675142     0.409702306425    -0.106411060243    12.000000000000
         C           -2.552781675142     0.616066306425     0.436413939757    12.000000000000
         C            2.988014324858    -0.178394693575    -0.501350060243    12.000000000000
         H           -1.698482075142     0.121511006425    -1.441344860243     1.007825032230
         H            2.084836324858     0.852806306425     1.167044939757     1.007825032230
         H            2.452410324858    -0.846783693575     1.496217939757     1.007825032230
         H            0.400096324858    -1.461406693575     0.465541939757     1.007825032230
         H           -2.379155675142     0.367396306425     1.486745939757     1.007825032230
         H           -3.571641675142     0.317630306425     0.166649939757     1.007825032230
         H           -2.454986675142     1.695016306425     0.302017939757     1.007825032230
         H            2.994090324858    -1.173770693575    -0.953872060243     1.007825032230
         H            2.619227324858     0.540534306425    -1.235695060243     1.007825032230
         H            4.016495324858     0.088310306425    -0.238716060243     1.007825032230
         H           -2.468748675142    -1.822969693575    -0.371000060243     1.007825032230

  Basis Set: AUG-CC-PVTZ
    Blend: AUG-CC-PVTZ
  Basis Set: (AUG-CC-PVTZ AUX)
    Blend: AUG-CC-PVTZ-JKFIT
	 Reference Energy          =    -400.0873154962044964 [Eh]
	 Singles Energy            =      -0.0000000000000000 [Eh]
	 Same-Spin Energy          =      -0.4015132887112898 [Eh]
	 Opposite-Spin Energy      =      -1.3070776011662311 [Eh]
	 Correlation Energy        =      -1.7085908898775208 [Eh]
	 Total Energy              =    -401.7959063860820379 [Eh]

	 ================> DF-SCS-MP2 Energies <==================
	-----------------------------------------------------------
	 SCS Same-Spin Scale       =       0.3333333333333333 [-]
	 SCS Opposite-Spin Scale   =       1.2000000000000000 [-]
	 SCS Same-Spin Energy      =      -0.1338377629037633 [Eh]
	 SCS Opposite-Spin Energy  =      -1.5684931213994773 [Eh]
	 SCS Correlation Energy    =      -1.7023308843032405 [Eh]
	 SCS Total Energy          =    -401.7896463805077474 [Eh]
	-----------------------------------------------------------

  Dipole Moment: [D]
     X:    -1.1658      Y:    -2.7491      Z:     0.4556     Total:     3.0206

*** Psi4 exiting successfully. Buy a developer a beer!
