                               Psi4 1.3.2 release

  ==> Input File <==

--------------------------------------------------------------------------
#psi4
#
memory 32 gb

molecule  {
0 1
  O       -2.5211540    -0.5137840     0.0284240
  O       -0.0903380    -1.4616610     0.1717700
  N        0.9259230     0.4056680    -0.6455280
  C       -1.5147550     0.4028960    -0.3432490
  C        2.2711600    -0.1378510    -0.5222970
  C       -0.1583790    -0.2975740    -0.2472510
  C       -1.5890701     1.7037325     0.6255194
  C        2.8531060     0.0659690     0.8699860
  H       -1.6669500     0.7105100    -1.3901450
  H        2.2044940    -1.2028750    -0.7525030
  H        2.8934660     0.3357800    -1.2867330
  H        0.8101310     1.3771570    -0.9023240
  H       -1.3564630     1.3269670     1.5921410
  H       -2.5982940     2.0269070     0.5395510
  H       -0.8919110     2.4138320     0.2596650
  H        2.9042670     1.1289430     1.1200310
  H        2.2261210    -0.4398610     1.6074960
  H        3.8631580    -0.3501450     0.9292180
  H       -2.0326010    -1.3422410     0.2291570
units angstrom
no_reorient  #important for SAPT in psi4, default
symmetry c1  #important for SAPT in psi4, default
}

set PROPERTIES_ORIGIN ["COM"]
properties('MP2/aug-cc-pvtz', properties = ['dipole'])
--------------------------------------------------------------------------

    Molecular point group: c1
  Charge       = 0
  Multiplicity = 1
  Basis Set: AUG-CC-PVTZ
    Blend: AUG-CC-PVTZ
  Basis Set: (AUG-CC-PVTZ AUX)
    Blend: AUG-CC-PVTZ-JKFIT

    Orbital Energies [Eh]
    ---------------------

    Doubly Occupied:

       1A    -20.548964     2A    -20.532828     3A    -15.598370
       4A    -11.358745     5A    -11.301551     6A    -11.273576
       7A    -11.229534     8A    -11.224280     9A     -1.397482
      10A     -1.345536    11A     -1.245398    12A     -1.046211
      13A     -1.006412    14A     -0.906861    15A     -0.851012
      16A     -0.794154    17A     -0.741380    18A     -0.675180
      19A     -0.648249    20A     -0.638919    21A     -0.610568
      22A     -0.600650    23A     -0.577968    24A     -0.562405
      25A     -0.555662    26A     -0.539793    27A     -0.519875
      28A     -0.514434    29A     -0.502421    30A     -0.438363
      31A     -0.432280    32A     -0.402487

  @DF-RHF Final Energy:  -400.08064512836302

   => Energetics <=

    Nuclear Repulsion Energy =            398.8089055697882372
    One-Electron Energy =               -1336.5360086614089141
    Two-Electron Energy =                 537.6464579632576033
    Total Energy =                       -400.0806451283630167
  Basis Set: (AUG-CC-PVTZ AUX)
    Blend: AUG-CC-PVTZ-RI
    Molecular point group: c1

    Geometry (in Angstrom), charge = 0, multiplicity = 1:

       Center              X                  Y                   Z               Mass
    ------------   -----------------  -----------------  -----------------  -----------------
         O           -2.520684819894    -0.521995564027     0.022308569094    15.994914619570
         O           -0.089868819894    -1.469872564027     0.165654569094    15.994914619570
         N            0.926392180106     0.397456435973    -0.651643430906    14.003074004430
         C           -1.514285819894     0.394684435973    -0.349364430906    12.000000000000
         C            2.271629180106    -0.146062564027    -0.528412430906    12.000000000000
         C           -0.157909819894    -0.305785564027    -0.253366430906    12.000000000000
         C           -1.588600919894     1.695520935973     0.619403969094    12.000000000000
         C            2.853575180106     0.057757435973     0.863870569094    12.000000000000
         H           -1.666480819894     0.702298435973    -1.396260430906     1.007825032230
         H            2.204963180106    -1.211086564027    -0.758618430906     1.007825032230
         H            2.893935180106     0.327568435973    -1.292848430906     1.007825032230
         H            0.810600180106     1.368945435973    -0.908439430906     1.007825032230
         H           -1.355993819894     1.318755435973     1.586025569094     1.007825032230
         H           -2.597824819894     2.018695435973     0.533435569094     1.007825032230
         H           -0.891441819894     2.405620435973     0.253549569094     1.007825032230
         H            2.904736180106     1.120731435973     1.113915569094     1.007825032230
         H            2.226590180106    -0.448072564027     1.601380569094     1.007825032230
         H            3.863627180106    -0.358356564027     0.923102569094     1.007825032230
         H           -2.032131819894    -1.350452564027     0.223041569094     1.007825032230

  Basis Set: AUG-CC-PVTZ
    Blend: AUG-CC-PVTZ
  Basis Set: (AUG-CC-PVTZ AUX)
    Blend: AUG-CC-PVTZ-JKFIT
	 Reference Energy          =    -400.0806451283630167 [Eh]
	 Singles Energy            =      -0.0000000000000000 [Eh]
	 Same-Spin Energy          =      -0.4018435086520613 [Eh]
	 Opposite-Spin Energy      =      -1.3077472447881351 [Eh]
	 Correlation Energy        =      -1.7095907534401964 [Eh]
	 Total Energy              =    -401.7902358818031985 [Eh]

	 ================> DF-SCS-MP2 Energies <==================
	-----------------------------------------------------------
	 SCS Same-Spin Scale       =       0.3333333333333333 [-]
	 SCS Opposite-Spin Scale   =       1.2000000000000000 [-]
	 SCS Same-Spin Energy      =      -0.1339478362173538 [Eh]
	 SCS Opposite-Spin Energy  =      -1.5692966937457620 [Eh]
	 SCS Correlation Energy    =      -1.7032445299631158 [Eh]
	 SCS Total Energy          =    -401.7838896583261317 [Eh]
	-----------------------------------------------------------

  Dipole Moment: [D]
     X:     3.0741      Y:     3.1338      Z:    -1.0713     Total:     4.5187

*** Psi4 exiting successfully. Buy a developer a beer!
