                               Psi4 1.3.2 release

  ==> Input File <==

--------------------------------------------------------------------------
#psi4
#
memory 32 gb

molecule  {
0 1
  O       -2.5211540    -0.5137840     0.0284240
  O       -0.0903380    -1.4616610     0.1717700
  N        0.9259230     0.4056680    -0.6455280
  C       -1.5147550     0.4028960    -0.3432490
  C        2.2711600    -0.1378510    -0.5222970
  C       -0.1583790    -0.2975740    -0.2472510
  C       -1.5888195     1.6389382     0.5445552
  C        2.8531060     0.0659690     0.8699860
  H       -1.6688121     0.7287461    -1.3843393
  H        2.2044940    -1.2028750    -0.7525030
  H        2.8934660     0.3357800    -1.2867330
  H        0.8101310     1.3771570    -0.9023240
  H       -1.3564630     1.3269670     1.5921410
  H       -2.5982940     2.0269070     0.5395510
  H       -0.8919110     2.4138320     0.2596650
  H        2.9042670     1.1289430     1.1200310
  H        2.2261210    -0.4398610     1.6074960
  H        3.8631580    -0.3501450     0.9292180
  H       -2.0326010    -1.3422410     0.2291570
units angstrom
no_reorient  #important for SAPT in psi4, default
symmetry c1  #important for SAPT in psi4, default
}

set PROPERTIES_ORIGIN ["COM"]
properties('MP2/aug-cc-pvtz', properties = ['dipole'])
--------------------------------------------------------------------------

    Molecular point group: c1
  Charge       = 0
  Multiplicity = 1
  Basis Set: AUG-CC-PVTZ
    Blend: AUG-CC-PVTZ
  Basis Set: (AUG-CC-PVTZ AUX)
    Blend: AUG-CC-PVTZ-JKFIT

    Orbital Energies [Eh]
    ---------------------

    Doubly Occupied:

       1A    -20.549186     2A    -20.533745     3A    -15.598903
       4A    -11.359716     5A    -11.298365     6A    -11.273833
       7A    -11.231291     8A    -11.224393     9A     -1.398635
      10A     -1.346955    11A     -1.246119    12A     -1.053206
      13A     -1.013195    14A     -0.902980    15A     -0.849296
      16A     -0.794399    17A     -0.744456    18A     -0.677329
      19A     -0.649443    20A     -0.642444    21A     -0.611370
      22A     -0.599694    23A     -0.575671    24A     -0.567409
      25A     -0.543579    26A     -0.531342    27A     -0.521292
      28A     -0.515170    29A     -0.502804    30A     -0.445179
      31A     -0.436734    32A     -0.403527

  @DF-RHF Final Energy:  -400.08685456700493

   => Energetics <=

    Nuclear Repulsion Energy =            400.3346366355801251
    One-Electron Energy =               -1339.5596643947278608
    Two-Electron Energy =                 539.1381731921427445
    Total Energy =                       -400.0868545670049343
  Basis Set: (AUG-CC-PVTZ AUX)
    Blend: AUG-CC-PVTZ-RI
    Molecular point group: c1

    Geometry (in Angstrom), charge = 0, multiplicity = 1:

       Center              X                  Y                   Z               Mass
    ------------   -----------------  -----------------  -----------------  -----------------
         O           -2.520694476017    -0.515511455513     0.030557011998    15.994914619570
         O           -0.089878476017    -1.463388455513     0.173903011998    15.994914619570
         N            0.926382523983     0.403940544487    -0.643394988002    14.003074004430
         C           -1.514295476017     0.401168544487    -0.341115988002    12.000000000000
         C            2.271619523983    -0.139578455513    -0.520163988002    12.000000000000
         C           -0.157919476017    -0.299301455513    -0.245117988002    12.000000000000
         C           -1.588359976017     1.637210744487     0.546688211998    12.000000000000
         C            2.853565523983     0.064241544487     0.872119011998    12.000000000000
         H           -1.668352576017     0.727018644487    -1.382206288002     1.007825032230
         H            2.204953523983    -1.204602455513    -0.750369988002     1.007825032230
         H            2.893925523983     0.334052544487    -1.284599988002     1.007825032230
         H            0.810590523983     1.375429544487    -0.900190988002     1.007825032230
         H           -1.356003476017     1.325239544487     1.594274011998     1.007825032230
         H           -2.597834476017     2.025179544487     0.541684011998     1.007825032230
         H           -0.891451476017     2.412104544487     0.261798011998     1.007825032230
         H            2.904726523983     1.127215544487     1.122164011998     1.007825032230
         H            2.226580523983    -0.441588455513     1.609629011998     1.007825032230
         H            3.863617523983    -0.351872455513     0.931351011998     1.007825032230
         H           -2.032141476017    -1.343968455513     0.231290011998     1.007825032230

  Basis Set: AUG-CC-PVTZ
    Blend: AUG-CC-PVTZ
  Basis Set: (AUG-CC-PVTZ AUX)
    Blend: AUG-CC-PVTZ-JKFIT
	 Reference Energy          =    -400.0868545670049343 [Eh]
	 Singles Energy            =      -0.0000000000000000 [Eh]
	 Same-Spin Energy          =      -0.4021331441430080 [Eh]
	 Opposite-Spin Energy      =      -1.3076868209338821 [Eh]
	 Correlation Energy        =      -1.7098199650768902 [Eh]
	 Total Energy              =    -401.7966745320818518 [Eh]

	 ================> DF-SCS-MP2 Energies <==================
	-----------------------------------------------------------
	 SCS Same-Spin Scale       =       0.3333333333333333 [-]
	 SCS Opposite-Spin Scale   =       1.2000000000000000 [-]
	 SCS Same-Spin Energy      =      -0.1340443813810027 [Eh]
	 SCS Opposite-Spin Energy  =      -1.5692241851206585 [Eh]
	 SCS Correlation Energy    =      -1.7032685665016611 [Eh]
	 SCS Total Energy          =    -401.7901231335065972 [Eh]
	-----------------------------------------------------------

  Dipole Moment: [D]
     X:     3.0987      Y:     3.1782      Z:    -1.0531     Total:     4.5620

*** Psi4 exiting successfully. Buy a developer a beer!
