                               Psi4 1.3.2 release

  ==> Input File <==

--------------------------------------------------------------------------
#psi4
#
memory 32 gb

molecule  {
0 1
  O       -2.5211540    -0.5137840     0.0284240
  O       -0.0796107    -1.4614676     0.1704257
  N        0.9259230     0.4056680    -0.6455280
  C       -1.5087133     0.4138203    -0.3479742
  C        2.2711600    -0.1378510    -0.5222970
  C       -0.1583790    -0.2975740    -0.2472510
  C       -1.5844930     1.6236140     0.5658530
  C        2.8531060     0.0659690     0.8699860
  H       -1.6669500     0.7105100    -1.3901450
  H        2.2044940    -1.2028750    -0.7525030
  H        2.8934660     0.3357800    -1.2867330
  H        0.8101310     1.3771570    -0.9023240
  H       -1.3564630     1.3269670     1.5921410
  H       -2.5982940     2.0269070     0.5395510
  H       -0.8919110     2.4138320     0.2596650
  H        2.9042670     1.1289430     1.1200310
  H        2.2261210    -0.4398610     1.6074960
  H        3.8631580    -0.3501450     0.9292180
  H       -2.0326010    -1.3422410     0.2291570
units angstrom
no_reorient  #important for SAPT in psi4, default
symmetry c1  #important for SAPT in psi4, default
}

set PROPERTIES_ORIGIN ["COM"]
properties('MP2/aug-cc-pvtz', properties = ['dipole'])
--------------------------------------------------------------------------

    Molecular point group: c1
  Charge       = 0
  Multiplicity = 1
  Basis Set: AUG-CC-PVTZ
    Blend: AUG-CC-PVTZ
  Basis Set: (AUG-CC-PVTZ AUX)
    Blend: AUG-CC-PVTZ-JKFIT

    Orbital Energies [Eh]
    ---------------------

    Doubly Occupied:

       1A    -20.547827     2A    -20.533500     3A    -15.598188
       4A    -11.359446     5A    -11.298614     6A    -11.273335
       7A    -11.231995     8A    -11.224127     9A     -1.397248
      10A     -1.343189    11A     -1.245441    12A     -1.054216
      13A     -1.013612    14A     -0.903569    15A     -0.849497
      16A     -0.794126    17A     -0.742712    18A     -0.676955
      19A     -0.648807    20A     -0.642282    21A     -0.610733
      22A     -0.598969    23A     -0.575365    24A     -0.563812
      25A     -0.542768    26A     -0.534786    27A     -0.520928
      28A     -0.514927    29A     -0.502129    30A     -0.447863
      31A     -0.436735    32A     -0.403184

  @DF-RHF Final Energy:  -400.08726553939630

   => Energetics <=

    Nuclear Repulsion Energy =            400.3577228468559497
    One-Electron Energy =               -1339.6282062817645055
    Two-Electron Energy =                 539.1832178955122572
    Total Energy =                       -400.0872655393962987
  Basis Set: (AUG-CC-PVTZ AUX)
    Blend: AUG-CC-PVTZ-RI
    Molecular point group: c1

    Geometry (in Angstrom), charge = 0, multiplicity = 1:

       Center              X                  Y                   Z               Mass
    ------------   -----------------  -----------------  -----------------  -----------------
         O           -2.523238718563    -0.514929931978     0.029092034181    15.994914619570
         O           -0.081695418563    -1.462613531978     0.171093734181    15.994914619570
         N            0.923838281437     0.404522068022    -0.644859965819    14.003074004430
         C           -1.510798018563     0.412674368022    -0.347306165819    12.000000000000
         C            2.269075281437    -0.138996931978    -0.521628965819    12.000000000000
         C           -0.160463718563    -0.298719931978    -0.246582965819    12.000000000000
         C           -1.586577718563     1.622468068022     0.566521034181    12.000000000000
         C            2.851021281437     0.064823068022     0.870654034181    12.000000000000
         H           -1.669034718563     0.709364068022    -1.389476965819     1.007825032230
         H            2.202409281437    -1.204020931978    -0.751834965819     1.007825032230
         H            2.891381281437     0.334634068022    -1.286064965819     1.007825032230
         H            0.808046281437     1.376011068022    -0.901655965819     1.007825032230
         H           -1.358547718563     1.325821068022     1.592809034181     1.007825032230
         H           -2.600378718563     2.025761068022     0.540219034181     1.007825032230
         H           -0.893995718563     2.412686068022     0.260333034181     1.007825032230
         H            2.902182281437     1.127797068022     1.120699034181     1.007825032230
         H            2.224036281437    -0.441006931978     1.608164034181     1.007825032230
         H            3.861073281437    -0.351290931978     0.929886034181     1.007825032230
         H           -2.034685718563    -1.343386931978     0.229825034181     1.007825032230

  Basis Set: AUG-CC-PVTZ
    Blend: AUG-CC-PVTZ
  Basis Set: (AUG-CC-PVTZ AUX)
    Blend: AUG-CC-PVTZ-JKFIT
	 Reference Energy          =    -400.0872655393962987 [Eh]
	 Singles Energy            =      -0.0000000000000000 [Eh]
	 Same-Spin Energy          =      -0.4021545964418113 [Eh]
	 Opposite-Spin Energy      =      -1.3079052174019716 [Eh]
	 Correlation Energy        =      -1.7100598138437828 [Eh]
	 Total Energy              =    -401.7973253532400690 [Eh]

	 ================> DF-SCS-MP2 Energies <==================
	-----------------------------------------------------------
	 SCS Same-Spin Scale       =       0.3333333333333333 [-]
	 SCS Opposite-Spin Scale   =       1.2000000000000000 [-]
	 SCS Same-Spin Energy      =      -0.1340515321472704 [Eh]
	 SCS Opposite-Spin Energy  =      -1.5694862608823659 [Eh]
	 SCS Correlation Energy    =      -1.7035377930296363 [Eh]
	 SCS Total Energy          =    -401.7908033324259236 [Eh]
	-----------------------------------------------------------

  Dipole Moment: [D]
     X:     3.0840      Y:     3.2101      Z:    -1.0497     Total:     4.5736

*** Psi4 exiting successfully. Buy a developer a beer!
