                               Psi4 1.4a3.dev225

  ==> Input File <==

--------------------------------------------------------------------------
#psi4
#
memory 32 gb

molecule  {
0 1
  S       -0.2573260    -0.3323280     0.1419150
  O       -0.2860210    -1.5224110    -0.7288200
  O       -0.1913230    -0.4820040     1.6079470
  C        1.1077430     0.7304620    -0.3526940
  C        2.4495880     0.2623560     0.2167580
  C       -1.7119910     0.6470300    -0.2467030
  C       -2.9773330    -0.1490110     0.0593080
  C        2.8936370    -1.0771870    -0.3692660
  C        3.4979800     1.3449170    -0.0414460
  C       -4.2305000     0.6643980    -0.2524990
  H        1.1201440     0.7512950    -1.4483370
  H        0.8682494     1.7131854     0.0150857
  H        2.3201640     0.1499000     1.2996700
  H       -1.6515560     0.9087510    -1.3087410
  H       -1.6583250     1.5603790     0.3547230
  H       -2.9641430    -1.0716000    -0.5283160
  H       -2.9644700    -0.4377180     1.1148610
  H        2.9999490    -1.0007780    -1.4570900
  H        2.1808400    -1.8761700    -0.1584720
  H        3.8652790    -1.3613920     0.0461660
  H        3.6372140     1.5009250    -1.1167480
  H        3.2107350     2.3002430     0.4092550
  H        4.4622490     1.0479330     0.3817310
  H       -4.2653590     1.5804770     0.3446860
  H       -4.2647910     0.9464390    -1.3091180
  H       -5.1305020     0.0846610    -0.0305780
units angstrom
no_reorient  #important for SAPT in psi4, default
symmetry c1  #important for SAPT in psi4, default
}

set PROPERTIES_ORIGIN ["COM"]
properties('MP2/aug-cc-pvtz', properties = ['dipole'])
--------------------------------------------------------------------------

    Molecular point group: c1
  Charge       = 0
  Multiplicity = 1
  Basis Set: AUG-CC-PVTZ
    Blend: AUG-CC-PVTZ
  Basis Set: (AUG-CC-PVTZ AUX)
    Blend: AUG-CC-PVTZ-JKFIT

    Orbital Energies [Eh]
    ---------------------

    Doubly Occupied:

       1A    -92.170056     2A    -20.535525     3A    -20.534621
       4A    -11.274840     5A    -11.271460     6A    -11.246473
       7A    -11.241467     8A    -11.229673     9A    -11.226842
      10A    -11.212756    11A     -9.140548    12A     -6.824934
      13A     -6.824528    14A     -6.824335    15A     -1.425797
      16A     -1.316556    17A     -1.116288    18A     -1.096119
      19A     -1.013908    20A     -0.961142    21A     -0.937754
      22A     -0.850822    23A     -0.804944    24A     -0.779431
      25A     -0.688012    26A     -0.676492    27A     -0.664036
      28A     -0.643725    29A     -0.619487    30A     -0.605332
      31A     -0.591545    32A     -0.581331    33A     -0.568222
      34A     -0.554236    35A     -0.539730    36A     -0.528685
      37A     -0.510258    38A     -0.503165    39A     -0.495723
      40A     -0.487243    41A     -0.482451    42A     -0.475364
      43A     -0.470480    44A     -0.456376    45A     -0.418208

  @DF-RHF Final Energy:  -821.78363400797116

   => Energetics <=

    Nuclear Repulsion Energy =            707.4271227112734550
    One-Electron Energy =               -2531.5796777617188127
    Two-Electron Energy =                1002.3689210424740850
    Total Energy =                       -821.7836340079711590
  Basis Set: (AUG-CC-PVTZ AUX)
    Blend: AUG-CC-PVTZ-RI
    Molecular point group: c1

    Geometry (in Angstrom), charge = 0, multiplicity = 1:

       Center              X                  Y                   Z               Mass
    ------------   -----------------  -----------------  -----------------  -----------------
         S           -0.246762465031    -0.291128126587     0.121544019937    31.972071174400
         O           -0.275457465031    -1.481211126587    -0.749190980063    15.994914619570
         O           -0.180759465031    -0.440804126587     1.587576019937    15.994914619570
         C            1.118306534969     0.771661873413    -0.373064980063    12.000000000000
         C            2.460151534969     0.303555873413     0.196387019937    12.000000000000
         C           -1.701427465031     0.688229873413    -0.267073980063    12.000000000000
         C           -2.966769465031    -0.107811126587     0.038937019937    12.000000000000
         C            2.904200534969    -1.035987126587    -0.389636980063    12.000000000000
         C            3.508543534969     1.386116873413    -0.061816980063    12.000000000000
         C           -4.219936465031     0.705597873413    -0.272869980063    12.000000000000
         H            1.130707534969     0.792494873413    -1.468707980063     1.007825032230
         H            0.878812934969     1.754385273413    -0.005285280063     1.007825032230
         H            2.330727534969     0.191099873413     1.279299019937     1.007825032230
         H           -1.640992465031     0.949950873413    -1.329111980063     1.007825032230
         H           -1.647761465031     1.601578873413     0.334352019937     1.007825032230
         H           -2.953579465031    -1.030400126587    -0.548686980063     1.007825032230
         H           -2.953906465031    -0.396518126587     1.094490019937     1.007825032230
         H            3.010512534969    -0.959578126587    -1.477460980063     1.007825032230
         H            2.191403534969    -1.834970126587    -0.178842980063     1.007825032230
         H            3.875842534969    -1.320192126587     0.025795019937     1.007825032230
         H            3.647777534969     1.542124873413    -1.137118980063     1.007825032230
         H            3.221298534969     2.341442873413     0.388884019937     1.007825032230
         H            4.472812534969     1.089132873413     0.361360019937     1.007825032230
         H           -4.254795465031     1.621676873413     0.324315019937     1.007825032230
         H           -4.254227465031     0.987638873413    -1.329488980063     1.007825032230
         H           -5.119938465031     0.125860873413    -0.050948980063     1.007825032230

  Basis Set: AUG-CC-PVTZ
    Blend: AUG-CC-PVTZ
  Basis Set: (AUG-CC-PVTZ AUX)
    Blend: AUG-CC-PVTZ-JKFIT
	 Reference Energy          =    -821.7836340079711590 [Eh]
	 Singles Energy            =      -0.0000000000000000 [Eh]
	 Same-Spin Energy          =      -0.5010034578967320 [Eh]
	 Opposite-Spin Energy      =      -1.6487262056230971 [Eh]
	 Correlation Energy        =      -2.1497296635198291 [Eh]
	 Total Energy              =    -823.9333636714909517 [Eh]

	 ================> DF-SCS-MP2 Energies <==================
	-----------------------------------------------------------
	 SCS Same-Spin Scale       =       0.3333333333333333 [-]
	 SCS Opposite-Spin Scale   =       1.2000000000000000 [-]
	 SCS Same-Spin Energy      =      -0.1670011526322440 [Eh]
	 SCS Opposite-Spin Energy  =      -1.9784714467477165 [Eh]
	 SCS Correlation Energy    =      -2.1454725993799606 [Eh]
	 SCS Total Energy          =    -823.9291066073511729 [Eh]
	-----------------------------------------------------------

  Dipole Moment: [D]
     X:    -0.2078      Y:     3.8056      Z:    -1.5742     Total:     4.1236

*** Psi4 exiting successfully. Buy a developer a beer!
