                               Psi4 1.4a3.dev225

  ==> Input File <==

--------------------------------------------------------------------------
#psi4
#
memory 32 gb

molecule  {
0 1
  S       -0.2573260    -0.3323280     0.1419150
  O       -0.2860210    -1.5224110    -0.7288200
  O       -0.1913230    -0.4820040     1.6079470
  C        1.1077430     0.7304620    -0.3526940
  C        2.4495880     0.2623560     0.2167580
  C       -1.7119910     0.6470300    -0.2467030
  C       -2.9773330    -0.1490110     0.0593080
  C        2.8994489    -1.0947196    -0.3769362
  C        3.4979800     1.3449170    -0.0414460
  C       -4.2305000     0.6643980    -0.2524990
  H        1.1201440     0.7512950    -1.4483370
  H        0.8637990     1.7314470     0.0219200
  H        2.3201640     0.1499000     1.2996700
  H       -1.6515560     0.9087510    -1.3087410
  H       -1.6583250     1.5603790     0.3547230
  H       -2.9641430    -1.0716000    -0.5283160
  H       -2.9644700    -0.4377180     1.1148610
  H        2.9999490    -1.0007780    -1.4570900
  H        2.1808400    -1.8761700    -0.1584720
  H        3.8652790    -1.3613920     0.0461660
  H        3.6372140     1.5009250    -1.1167480
  H        3.2107350     2.3002430     0.4092550
  H        4.4622490     1.0479330     0.3817310
  H       -4.2653590     1.5804770     0.3446860
  H       -4.2647910     0.9464390    -1.3091180
  H       -5.1305020     0.0846610    -0.0305780
units angstrom
no_reorient  #important for SAPT in psi4, default
symmetry c1  #important for SAPT in psi4, default
}

set PROPERTIES_ORIGIN ["COM"]
properties('MP2/aug-cc-pvtz', properties = ['dipole'])
--------------------------------------------------------------------------

    Molecular point group: c1
  Charge       = 0
  Multiplicity = 1
  Basis Set: AUG-CC-PVTZ
    Blend: AUG-CC-PVTZ
  Basis Set: (AUG-CC-PVTZ AUX)
    Blend: AUG-CC-PVTZ-JKFIT

    Orbital Energies [Eh]
    ---------------------

    Doubly Occupied:

       1A    -92.170107     2A    -20.535491     3A    -20.534808
       4A    -11.274752     5A    -11.273659     6A    -11.247303
       7A    -11.241407     8A    -11.229634     9A    -11.226817
      10A    -11.212223    11A     -9.140589    12A     -6.824977
      13A     -6.824568    14A     -6.824378    15A     -1.425833
      16A     -1.316611    17A     -1.114137    18A     -1.095696
      19A     -1.012890    20A     -0.960356    21A     -0.937811
      22A     -0.850735    23A     -0.804996    24A     -0.778591
      25A     -0.687652    26A     -0.675611    27A     -0.663249
      28A     -0.642260    29A     -0.619028    30A     -0.604936
      31A     -0.591458    32A     -0.581327    33A     -0.568176
      34A     -0.553846    35A     -0.541283    36A     -0.529196
      37A     -0.510750    38A     -0.503923    39A     -0.496014
      40A     -0.487599    41A     -0.480060    42A     -0.474256
      43A     -0.470610    44A     -0.456342    45A     -0.418430

  @DF-RHF Final Energy:  -821.78341586049703

   => Energetics <=

    Nuclear Repulsion Energy =            706.9736243117409913
    One-Electron Energy =               -2530.6853371704160054
    Two-Electron Energy =                1001.9282969981780980
    Total Energy =                       -821.7834158604970298
  Basis Set: (AUG-CC-PVTZ AUX)
    Blend: AUG-CC-PVTZ-RI
    Molecular point group: c1

    Geometry (in Angstrom), charge = 0, multiplicity = 1:

       Center              X                  Y                   Z               Mass
    ------------   -----------------  -----------------  -----------------  -----------------
         S           -0.247160165856    -0.289958097369     0.122062979812    31.972071174400
         O           -0.275855165856    -1.480041097369    -0.748672020188    15.994914619570
         O           -0.181157165856    -0.439634097369     1.588094979812    15.994914619570
         C            1.117908834144     0.772831902631    -0.372546020188    12.000000000000
         C            2.459753834144     0.304725902631     0.196905979812    12.000000000000
         C           -1.701825165856     0.689399902631    -0.266555020188    12.000000000000
         C           -2.967167165856    -0.106641097369     0.039455979812    12.000000000000
         C            2.909614734144    -1.052349697369    -0.396788220188    12.000000000000
         C            3.508145834144     1.387286902631    -0.061298020188    12.000000000000
         C           -4.220334165856     0.706767902631    -0.272351020188    12.000000000000
         H            1.130309834144     0.793664902631    -1.468189020188     1.007825032230
         H            0.873964834144     1.773816902631     0.002067979812     1.007825032230
         H            2.330329834144     0.192269902631     1.279817979812     1.007825032230
         H           -1.641390165856     0.951120902631    -1.328593020188     1.007825032230
         H           -1.648159165856     1.602748902631     0.334870979812     1.007825032230
         H           -2.953977165856    -1.029230097369    -0.548168020188     1.007825032230
         H           -2.954304165856    -0.395348097369     1.095008979812     1.007825032230
         H            3.010114834144    -0.958408097369    -1.476942020188     1.007825032230
         H            2.191005834144    -1.833800097369    -0.178324020188     1.007825032230
         H            3.875444834144    -1.319022097369     0.026313979812     1.007825032230
         H            3.647379834144     1.543294902631    -1.136600020188     1.007825032230
         H            3.220900834144     2.342612902631     0.389402979812     1.007825032230
         H            4.472414834144     1.090302902631     0.361878979812     1.007825032230
         H           -4.255193165856     1.622846902631     0.324833979812     1.007825032230
         H           -4.254625165856     0.988808902631    -1.328970020188     1.007825032230
         H           -5.120336165856     0.127030902631    -0.050430020188     1.007825032230

  Basis Set: AUG-CC-PVTZ
    Blend: AUG-CC-PVTZ
  Basis Set: (AUG-CC-PVTZ AUX)
    Blend: AUG-CC-PVTZ-JKFIT
	 Reference Energy          =    -821.7834158604970298 [Eh]
	 Singles Energy            =      -0.0000000000000000 [Eh]
	 Same-Spin Energy          =      -0.5009019270580408 [Eh]
	 Opposite-Spin Energy      =      -1.6487716143226609 [Eh]
	 Correlation Energy        =      -2.1496735413807020 [Eh]
	 Total Energy              =    -823.9330894018777371 [Eh]

	 ================> DF-SCS-MP2 Energies <==================
	-----------------------------------------------------------
	 SCS Same-Spin Scale       =       0.3333333333333333 [-]
	 SCS Opposite-Spin Scale   =       1.2000000000000000 [-]
	 SCS Same-Spin Energy      =      -0.1669673090193469 [Eh]
	 SCS Opposite-Spin Energy  =      -1.9785259371871931 [Eh]
	 SCS Correlation Energy    =      -2.1454932462065401 [Eh]
	 SCS Total Energy          =    -823.9289091067035997 [Eh]
	-----------------------------------------------------------

  Dipole Moment: [D]
     X:    -0.2004      Y:     3.8035      Z:    -1.5751     Total:     4.1216

*** Psi4 exiting successfully. Buy a developer a beer!
