                               Psi4 1.4a3.dev225

  ==> Input File <==

--------------------------------------------------------------------------
#psi4
#
memory 32 gb

molecule  {
0 1
  S       -0.2573260    -0.3323280     0.1419150
  O       -0.2869938    -1.5627558    -0.7583386
  O       -0.1913230    -0.4820040     1.6079470
  C        1.1077430     0.7304620    -0.3526940
  C        2.4495880     0.2623560     0.2167580
  C       -1.7119910     0.6470300    -0.2467030
  C       -2.9773330    -0.1490110     0.0593080
  C        2.8936370    -1.0771870    -0.3692660
  C        3.4979800     1.3449170    -0.0414460
  C       -4.2305000     0.6643980    -0.2524990
  H        1.1201440     0.7512950    -1.4483370
  H        0.8637990     1.7314470     0.0219200
  H        2.3201640     0.1499000     1.2996700
  H       -1.6515560     0.9087510    -1.3087410
  H       -1.6583250     1.5603790     0.3547230
  H       -2.9641430    -1.0716000    -0.5283160
  H       -2.9644700    -0.4377180     1.1148610
  H        2.9999490    -1.0007780    -1.4570900
  H        2.1808400    -1.8761700    -0.1584720
  H        3.8652790    -1.3613920     0.0461660
  H        3.6372140     1.5009250    -1.1167480
  H        3.2107350     2.3002430     0.4092550
  H        4.4622490     1.0479330     0.3817310
  H       -4.2653590     1.5804770     0.3446860
  H       -4.2647910     0.9464390    -1.3091180
  H       -5.1305020     0.0846610    -0.0305780
units angstrom
no_reorient  #important for SAPT in psi4, default
symmetry c1  #important for SAPT in psi4, default
}

set PROPERTIES_ORIGIN ["COM"]
properties('MP2/aug-cc-pvtz', properties = ['dipole'])
--------------------------------------------------------------------------

    Molecular point group: c1
  Charge       = 0
  Multiplicity = 1
  Basis Set: AUG-CC-PVTZ
    Blend: AUG-CC-PVTZ
  Basis Set: (AUG-CC-PVTZ AUX)
    Blend: AUG-CC-PVTZ-JKFIT

    Orbital Energies [Eh]
    ---------------------

    Doubly Occupied:

       1A    -92.172914     2A    -20.539047     3A    -20.533845
       4A    -11.277912     5A    -11.276738     6A    -11.247575
       7A    -11.242153     8A    -11.230300     9A    -11.227624
      10A    -11.212733    11A     -9.143165    12A     -6.827533
      13A     -6.827120    14A     -6.826605    15A     -1.413415
      16A     -1.302335    17A     -1.117153    18A     -1.097405
      19A     -1.015507    20A     -0.961631    21A     -0.938047
      22A     -0.852279    23A     -0.806994    24A     -0.780168
      25A     -0.685385    26A     -0.676860    27A     -0.662679
      28A     -0.640672    29A     -0.616016    30A     -0.605453
      31A     -0.591321    32A     -0.580449    33A     -0.567354
      34A     -0.553791    35A     -0.539935    36A     -0.528491
      37A     -0.510527    38A     -0.500719    39A     -0.496262
      40A     -0.487740    41A     -0.481999    42A     -0.473301
      43A     -0.468278    44A     -0.451754    45A     -0.419081

  @DF-RHF Final Energy:  -821.77631312465473

   => Energetics <=

    Nuclear Repulsion Energy =            704.9914045935721560
    One-Electron Energy =               -2526.7188973540460211
    Two-Electron Energy =                 999.9511796358192441
    Total Energy =                       -821.7763131246547346
  Basis Set: (AUG-CC-PVTZ AUX)
    Blend: AUG-CC-PVTZ-RI
    Molecular point group: c1

    Geometry (in Angstrom), charge = 0, multiplicity = 1:

       Center              X                  Y                   Z               Mass
    ------------   -----------------  -----------------  -----------------  -----------------
         S           -0.246640303829    -0.287307551233     0.124379463463    31.972071174400
         O           -0.276308103829    -1.517735351233    -0.775874136537    15.994914619570
         O           -0.180637303829    -0.436983551233     1.590411463463    15.994914619570
         C            1.118428696171     0.775482448767    -0.370229536537    12.000000000000
         C            2.460273696171     0.307376448767     0.199222463463    12.000000000000
         C           -1.701305303829     0.692050448767    -0.264238536537    12.000000000000
         C           -2.966647303829    -0.103990551233     0.041772463463    12.000000000000
         C            2.904322696171    -1.032166551233    -0.386801536537    12.000000000000
         C            3.508665696171     1.389937448767    -0.058981536537    12.000000000000
         C           -4.219814303829     0.709418448767    -0.270034536537    12.000000000000
         H            1.130829696171     0.796315448767    -1.465872536537     1.007825032230
         H            0.874484696171     1.776467448767     0.004384463463     1.007825032230
         H            2.330849696171     0.194920448767     1.282134463463     1.007825032230
         H           -1.640870303829     0.953771448767    -1.326276536537     1.007825032230
         H           -1.647639303829     1.605399448767     0.337187463463     1.007825032230
         H           -2.953457303829    -1.026579551233    -0.545851536537     1.007825032230
         H           -2.953784303829    -0.392697551233     1.097325463463     1.007825032230
         H            3.010634696171    -0.955757551233    -1.474625536537     1.007825032230
         H            2.191525696171    -1.831149551233    -0.176007536537     1.007825032230
         H            3.875964696171    -1.316371551233     0.028630463463     1.007825032230
         H            3.647899696171     1.545945448767    -1.134283536537     1.007825032230
         H            3.221420696171     2.345263448767     0.391719463463     1.007825032230
         H            4.472934696171     1.092953448767     0.364195463463     1.007825032230
         H           -4.254673303829     1.625497448767     0.327150463463     1.007825032230
         H           -4.254105303829     0.991459448767    -1.326653536537     1.007825032230
         H           -5.119816303829     0.129681448767    -0.048113536537     1.007825032230

  Basis Set: AUG-CC-PVTZ
    Blend: AUG-CC-PVTZ
  Basis Set: (AUG-CC-PVTZ AUX)
    Blend: AUG-CC-PVTZ-JKFIT
	 Reference Energy          =    -821.7763131246547346 [Eh]
	 Singles Energy            =      -0.0000000000000000 [Eh]
	 Same-Spin Energy          =      -0.5019106116875295 [Eh]
	 Opposite-Spin Energy      =      -1.6512060529367214 [Eh]
	 Correlation Energy        =      -2.1531166646242510 [Eh]
	 Total Energy              =    -823.9294297892789700 [Eh]

	 ================> DF-SCS-MP2 Energies <==================
	-----------------------------------------------------------
	 SCS Same-Spin Scale       =       0.3333333333333333 [-]
	 SCS Opposite-Spin Scale   =       1.2000000000000000 [-]
	 SCS Same-Spin Energy      =      -0.1673035372291765 [Eh]
	 SCS Opposite-Spin Energy  =      -1.9814472635240656 [Eh]
	 SCS Correlation Energy    =      -2.1487508007532421 [Eh]
	 SCS Total Energy          =    -823.9250639254079260 [Eh]
	-----------------------------------------------------------

  Dipole Moment: [D]
     X:    -0.2000      Y:     4.0236      Z:    -1.4365     Total:     4.2770

*** Psi4 exiting successfully. Buy a developer a beer!
