                               Psi4 1.4a3.dev225

  ==> Input File <==

--------------------------------------------------------------------------
#psi4
#
memory 32 gb

molecule  {
0 1
  S       -0.2573260    -0.3323280     0.1419150
  O       -0.2860210    -1.5224110    -0.7288200
  O       -0.1913230    -0.4820040     1.6079470
  C        1.1077430     0.7304620    -0.3526940
  C        2.4495880     0.2623560     0.2167580
  C       -1.7119910     0.6470300    -0.2467030
  C       -2.9773330    -0.1490110     0.0593080
  C        2.8936370    -1.0771870    -0.3692660
  C        3.4979800     1.3449170    -0.0414460
  C       -4.2305000     0.6643980    -0.2524990
  H        1.1201440     0.7512950    -1.4483370
  H        0.8637990     1.7314470     0.0219200
  H        2.3201640     0.1499000     1.2996700
  H       -1.6515560     0.9087510    -1.3087410
  H       -1.6607757     1.5186696     0.3272580
  H       -2.9641430    -1.0716000    -0.5283160
  H       -2.9644700    -0.4377180     1.1148610
  H        2.9999490    -1.0007780    -1.4570900
  H        2.1808400    -1.8761700    -0.1584720
  H        3.8652790    -1.3613920     0.0461660
  H        3.6372140     1.5009250    -1.1167480
  H        3.2107350     2.3002430     0.4092550
  H        4.4622490     1.0479330     0.3817310
  H       -4.2653590     1.5804770     0.3446860
  H       -4.2647910     0.9464390    -1.3091180
  H       -5.1305020     0.0846610    -0.0305780
units angstrom
no_reorient  #important for SAPT in psi4, default
symmetry c1  #important for SAPT in psi4, default
}

set PROPERTIES_ORIGIN ["COM"]
properties('MP2/aug-cc-pvtz', properties = ['dipole'])
--------------------------------------------------------------------------

    Molecular point group: c1
  Charge       = 0
  Multiplicity = 1
  Basis Set: AUG-CC-PVTZ
    Blend: AUG-CC-PVTZ
  Basis Set: (AUG-CC-PVTZ AUX)
    Blend: AUG-CC-PVTZ-JKFIT

    Orbital Energies [Eh]
    ---------------------

    Doubly Occupied:

       1A    -92.169924     2A    -20.535609     3A    -20.534414
       4A    -11.273810     5A    -11.269128     6A    -11.246646
       7A    -11.241071     8A    -11.229643     9A    -11.226862
      10A    -11.212917    11A     -9.140433    12A     -6.824816
      13A     -6.824412    14A     -6.824220    15A     -1.425755
      16A     -1.316508    17A     -1.116102    18A     -1.097828
      19A     -1.013757    20A     -0.962113    21A     -0.937775
      22A     -0.850587    23A     -0.807928    24A     -0.779209
      25A     -0.688787    26A     -0.677762    27A     -0.665022
      28A     -0.642790    29A     -0.619208    30A     -0.605217
      31A     -0.592793    32A     -0.581330    33A     -0.570946
      34A     -0.553835    35A     -0.539697    36A     -0.528482
      37A     -0.510138    38A     -0.503756    39A     -0.495944
      40A     -0.487294    41A     -0.482559    42A     -0.475346
      43A     -0.470335    44A     -0.456492    45A     -0.418158

  @DF-RHF Final Energy:  -821.78269307569462

   => Energetics <=

    Nuclear Repulsion Energy =            707.5915429161617567
    One-Electron Energy =               -2531.8937533560388147
    Two-Electron Energy =                1002.5195173641823203
    Total Energy =                       -821.7826930756946240
  Basis Set: (AUG-CC-PVTZ AUX)
    Blend: AUG-CC-PVTZ-RI
    Molecular point group: c1

    Geometry (in Angstrom), charge = 0, multiplicity = 1:

       Center              X                  Y                   Z               Mass
    ------------   -----------------  -----------------  -----------------  -----------------
         S           -0.246720078388    -0.290984109905     0.121670733955    31.972071174400
         O           -0.275415078388    -1.481067109905    -0.749064266045    15.994914619570
         O           -0.180717078388    -0.440660109905     1.587702733955    15.994914619570
         C            1.118348921612     0.771805890095    -0.372938266045    12.000000000000
         C            2.460193921612     0.303699890095     0.196513733955    12.000000000000
         C           -1.701385078388     0.688373890095    -0.266947266045    12.000000000000
         C           -2.966727078388    -0.107667109905     0.039063733955    12.000000000000
         C            2.904242921612    -1.035843109905    -0.389510266045    12.000000000000
         C            3.508585921612     1.386260890095    -0.061690266045    12.000000000000
         C           -4.219894078388     0.705741890095    -0.272743266045    12.000000000000
         H            1.130749921612     0.792638890095    -1.468581266045     1.007825032230
         H            0.874404921612     1.772790890095     0.001675733955     1.007825032230
         H            2.330769921612     0.191243890095     1.279425733955     1.007825032230
         H           -1.640950078388     0.950094890095    -1.328985266045     1.007825032230
         H           -1.650169778388     1.560013490095     0.307013733955     1.007825032230
         H           -2.953537078388    -1.030256109905    -0.548560266045     1.007825032230
         H           -2.953864078388    -0.396374109905     1.094616733955     1.007825032230
         H            3.010554921612    -0.959434109905    -1.477334266045     1.007825032230
         H            2.191445921612    -1.834826109905    -0.178716266045     1.007825032230
         H            3.875884921612    -1.320048109905     0.025921733955     1.007825032230
         H            3.647819921612     1.542268890095    -1.136992266045     1.007825032230
         H            3.221340921612     2.341586890095     0.389010733955     1.007825032230
         H            4.472854921612     1.089276890095     0.361486733955     1.007825032230
         H           -4.254753078388     1.621820890095     0.324441733955     1.007825032230
         H           -4.254185078388     0.987782890095    -1.329362266045     1.007825032230
         H           -5.119896078388     0.126004890095    -0.050822266045     1.007825032230

  Basis Set: AUG-CC-PVTZ
    Blend: AUG-CC-PVTZ
  Basis Set: (AUG-CC-PVTZ AUX)
    Blend: AUG-CC-PVTZ-JKFIT
	 Reference Energy          =    -821.7826930756946240 [Eh]
	 Singles Energy            =      -0.0000000000000000 [Eh]
	 Same-Spin Energy          =      -0.5009656570837161 [Eh]
	 Opposite-Spin Energy      =      -1.6485445384367314 [Eh]
	 Correlation Energy        =      -2.1495101955204476 [Eh]
	 Total Energy              =    -823.9322032712150303 [Eh]

	 ================> DF-SCS-MP2 Energies <==================
	-----------------------------------------------------------
	 SCS Same-Spin Scale       =       0.3333333333333333 [-]
	 SCS Opposite-Spin Scale   =       1.2000000000000000 [-]
	 SCS Same-Spin Energy      =      -0.1669885523612387 [Eh]
	 SCS Opposite-Spin Energy  =      -1.9782534461240777 [Eh]
	 SCS Correlation Energy    =      -2.1452419984853166 [Eh]
	 SCS Total Energy          =    -823.9279350741799135 [Eh]
	-----------------------------------------------------------

  Dipole Moment: [D]
     X:    -0.1975      Y:     3.8118      Z:    -1.5732     Total:     4.1284

*** Psi4 exiting successfully. Buy a developer a beer!
