                               Psi4 1.4a3.dev225

  ==> Input File <==

--------------------------------------------------------------------------
#psi4
#
memory 32 gb

molecule  {
0 1
  S       -0.2573260    -0.3323280     0.1419150
  O       -0.2860210    -1.5224110    -0.7288200
  O       -0.1913230    -0.4820040     1.6079470
  C        1.1077430     0.7304620    -0.3526940
  C        2.4495880     0.2623560     0.2167580
  C       -1.7119910     0.6470300    -0.2467030
  C       -2.9773330    -0.1490110     0.0593080
  C        2.8936370    -1.0771870    -0.3692660
  C        3.4979800     1.3449170    -0.0414460
  C       -4.2305000     0.6643980    -0.2524990
  H        1.1201440     0.7512950    -1.4483370
  H        0.8637990     1.7314470     0.0219200
  H        2.3201640     0.1499000     1.2996700
  H       -1.6515560     0.9087510    -1.3087410
  H       -1.6583250     1.5603790     0.3547230
  H       -2.9641430    -1.0716000    -0.5283160
  H       -2.9644700    -0.4377180     1.1148610
  H        2.9999490    -1.0007780    -1.4570900
  H        2.1808400    -1.8761700    -0.1584720
  H        3.8652790    -1.3613920     0.0461660
  H        3.6372140     1.5009250    -1.1167480
  H        3.2107350     2.3002430     0.4092550
  H        4.4622490     1.0479330     0.3817310
  H       -4.2717312     1.7479356     0.4538510
  H       -4.2647910     0.9464390    -1.3091180
  H       -5.1305020     0.0846610    -0.0305780
units angstrom
no_reorient  #important for SAPT in psi4, default
symmetry c1  #important for SAPT in psi4, default
}

set PROPERTIES_ORIGIN ["COM"]
properties('MP2/aug-cc-pvtz', properties = ['dipole'])
--------------------------------------------------------------------------

    Molecular point group: c1
  Charge       = 0
  Multiplicity = 1
  Basis Set: AUG-CC-PVTZ
    Blend: AUG-CC-PVTZ
  Basis Set: (AUG-CC-PVTZ AUX)
    Blend: AUG-CC-PVTZ-JKFIT

    Orbital Energies [Eh]
    ---------------------

    Doubly Occupied:

       1A    -92.170599     2A    -20.535941     3A    -20.535265
       4A    -11.275331     5A    -11.274023     6A    -11.253310
       7A    -11.246834     8A    -11.244445     9A    -11.226983
      10A    -11.213140    11A     -9.141088    12A     -6.825474
      13A     -6.825068    14A     -6.824876    15A     -1.426335
      16A     -1.317094    17A     -1.116009    18A     -1.095839
      19A     -1.011938    20A     -0.956511    21A     -0.937925
      22A     -0.845170    23A     -0.803693    24A     -0.779054
      25A     -0.688236    26A     -0.675633    27A     -0.662729
      28A     -0.643142    29A     -0.618055    30A     -0.605493
      31A     -0.591328    32A     -0.580996    33A     -0.556793
      34A     -0.553034    35A     -0.539966    36A     -0.530538
      37A     -0.509995    38A     -0.502372    39A     -0.489115
      40A     -0.483093    41A     -0.479672    42A     -0.474728
      43A     -0.469740    44A     -0.456822    45A     -0.418791

  @DF-RHF Final Energy:  -821.76390342726415

   => Energetics <=

    Nuclear Repulsion Energy =            706.5750604994402693
    One-Electron Energy =               -2529.8534859725259594
    Two-Electron Energy =                1001.5145220458215363
    Total Energy =                       -821.7639034272641538
  Basis Set: (AUG-CC-PVTZ AUX)
    Blend: AUG-CC-PVTZ-RI
    Molecular point group: c1

    Geometry (in Angstrom), charge = 0, multiplicity = 1:

       Center              X                  Y                   Z               Mass
    ------------   -----------------  -----------------  -----------------  -----------------
         S           -0.246695992486    -0.292268822385     0.120831550781    31.972071174400
         O           -0.275390992486    -1.482351822385    -0.749903449219    15.994914619570
         O           -0.180692992486    -0.441944822385     1.586863550781    15.994914619570
         C            1.118373007514     0.770521177615    -0.373777449219    12.000000000000
         C            2.460218007514     0.302415177615     0.195674550781    12.000000000000
         C           -1.701360992486     0.687089177615    -0.267786449219    12.000000000000
         C           -2.966702992486    -0.108951822385     0.038224550781    12.000000000000
         C            2.904267007514    -1.037127822385    -0.390349449219    12.000000000000
         C            3.508610007514     1.384976177615    -0.062529449219    12.000000000000
         C           -4.219869992486     0.704457177615    -0.273582449219    12.000000000000
         H            1.130774007514     0.791354177615    -1.469420449219     1.007825032230
         H            0.874429007514     1.771506177615     0.000836550781     1.007825032230
         H            2.330794007514     0.189959177615     1.278586550781     1.007825032230
         H           -1.640925992486     0.948810177615    -1.329824449219     1.007825032230
         H           -1.647694992486     1.600438177615     0.333639550781     1.007825032230
         H           -2.953512992486    -1.031540822385    -0.549399449219     1.007825032230
         H           -2.953839992486    -0.397658822385     1.093777550781     1.007825032230
         H            3.010579007514    -0.960718822385    -1.478173449219     1.007825032230
         H            2.191470007514    -1.836110822385    -0.179555449219     1.007825032230
         H            3.875909007514    -1.321332822385     0.025082550781     1.007825032230
         H            3.647844007514     1.540984177615    -1.137831449219     1.007825032230
         H            3.221365007514     2.340302177615     0.388171550781     1.007825032230
         H            4.472879007514     1.087992177615     0.360647550781     1.007825032230
         H           -4.261101192486     1.787994777615     0.432767550781     1.007825032230
         H           -4.254160992486     0.986498177615    -1.330201449219     1.007825032230
         H           -5.119871992486     0.124720177615    -0.051661449219     1.007825032230

  Basis Set: AUG-CC-PVTZ
    Blend: AUG-CC-PVTZ
  Basis Set: (AUG-CC-PVTZ AUX)
    Blend: AUG-CC-PVTZ-JKFIT
	 Reference Energy          =    -821.7639034272641538 [Eh]
	 Singles Energy            =      -0.0000000000000000 [Eh]
	 Same-Spin Energy          =      -0.5009164737058368 [Eh]
	 Opposite-Spin Energy      =      -1.6502937706459280 [Eh]
	 Correlation Energy        =      -2.1512102443517649 [Eh]
	 Total Energy              =    -823.9151136716159272 [Eh]

	 ================> DF-SCS-MP2 Energies <==================
	-----------------------------------------------------------
	 SCS Same-Spin Scale       =       0.3333333333333333 [-]
	 SCS Opposite-Spin Scale   =       1.2000000000000000 [-]
	 SCS Same-Spin Energy      =      -0.1669721579019456 [Eh]
	 SCS Opposite-Spin Energy  =      -1.9803525247751135 [Eh]
	 SCS Correlation Energy    =      -2.1473246826770591 [Eh]
	 SCS Total Energy          =    -823.9112281099412485 [Eh]
	-----------------------------------------------------------

  Dipole Moment: [D]
     X:    -0.1561      Y:     3.6649      Z:    -1.6404     Total:     4.0183

*** Psi4 exiting successfully. Buy a developer a beer!
