                               Psi4 1.4a3.dev225

  ==> Input File <==

--------------------------------------------------------------------------
#psi4
#
memory 32 gb

molecule  {
0 1
  S       -0.2573260    -0.3323280     0.1419150
  O       -0.2860210    -1.5224110    -0.7288200
  O       -0.1913230    -0.4820040     1.6079470
  C        1.1077430     0.7304620    -0.3526940
  C        2.4495880     0.2623560     0.2167580
  C       -1.7119910     0.6470300    -0.2467030
  C       -2.9773330    -0.1490110     0.0593080
  C        2.8936370    -1.0771870    -0.3692660
  C        3.4979800     1.3449170    -0.0414460
  C       -4.2305000     0.6643980    -0.2524990
  H        1.1201440     0.7512950    -1.4483370
  H        0.8637990     1.7314470     0.0219200
  H        2.3201640     0.1499000     1.2996700
  H       -1.6515560     0.9087510    -1.3087410
  H       -1.6583250     1.5603790     0.3547230
  H       -2.9641430    -1.0716000    -0.5283160
  H       -2.9644700    -0.4377180     1.1148610
  H        2.9999490    -1.0007780    -1.4570900
  H        2.1808400    -1.8761700    -0.1584720
  H        3.8652790    -1.3613920     0.0461660
  H        3.6372140     1.5009250    -1.1167480
  H        3.2107350     2.3002430     0.4092550
  H        4.4622490     1.0479330     0.3817310
  H       -4.2589868     1.4130184     0.2355210
  H       -4.2647910     0.9464390    -1.3091180
  H       -5.1305020     0.0846610    -0.0305780
units angstrom
no_reorient  #important for SAPT in psi4, default
symmetry c1  #important for SAPT in psi4, default
}

set PROPERTIES_ORIGIN ["COM"]
properties('MP2/aug-cc-pvtz', properties = ['dipole'])
--------------------------------------------------------------------------

    Molecular point group: c1
  Charge       = 0
  Multiplicity = 1
  Basis Set: AUG-CC-PVTZ
    Blend: AUG-CC-PVTZ
  Basis Set: (AUG-CC-PVTZ AUX)
    Blend: AUG-CC-PVTZ-JKFIT

    Orbital Energies [Eh]
    ---------------------

    Doubly Occupied:

       1A    -92.169953     2A    -20.535312     3A    -20.534517
       4A    -11.274573     5A    -11.273570     6A    -11.246490
       7A    -11.239560     8A    -11.226756     9A    -11.212794
      10A    -11.204316    11A     -9.140425    12A     -6.824814
      13A     -6.824404    14A     -6.824212    15A     -1.425597
      16A     -1.316365    17A     -1.115819    18A     -1.099137
      19A     -1.019256    20A     -0.969753    21A     -0.937680
      22A     -0.861682    23A     -0.807003    24A     -0.778603
      25A     -0.688198    26A     -0.677348    27A     -0.665496
      28A     -0.643128    29A     -0.624083    30A     -0.605643
      31A     -0.599265    32A     -0.582827    33A     -0.576561
      34A     -0.553712    35A     -0.539571    36A     -0.527868
      37A     -0.513932    38A     -0.504480    39A     -0.498120
      40A     -0.487415    41A     -0.482287    42A     -0.475175
      43A     -0.470264    44A     -0.456140    45A     -0.417964

  @DF-RHF Final Energy:  -821.74931819208200

   => Energetics <=

    Nuclear Repulsion Energy =            708.2658615598232927
    One-Electron Energy =               -2533.1262251368893885
    Two-Electron Energy =                1003.1110453849839814
    Total Energy =                       -821.7493181920820007
  Basis Set: (AUG-CC-PVTZ AUX)
    Blend: AUG-CC-PVTZ-RI
    Molecular point group: c1

    Geometry (in Angstrom), charge = 0, multiplicity = 1:

       Center              X                  Y                   Z               Mass
    ------------   -----------------  -----------------  -----------------  -----------------
         S           -0.246774268751    -0.290211756741     0.122172536380    31.972071174400
         O           -0.275469268751    -1.480294756741    -0.748562463620    15.994914619570
         O           -0.180771268751    -0.439887756741     1.588204536380    15.994914619570
         C            1.118294731249     0.772578243259    -0.372436463620    12.000000000000
         C            2.460139731249     0.304472243259     0.197015536380    12.000000000000
         C           -1.701439268751     0.689146243259    -0.266445463620    12.000000000000
         C           -2.966781268751    -0.106894756741     0.039565536380    12.000000000000
         C            2.904188731249    -1.035070756741    -0.389008463620    12.000000000000
         C            3.508531731249     1.387033243259    -0.061188463620    12.000000000000
         C           -4.219948268751     0.706514243259    -0.272241463620    12.000000000000
         H            1.130695731249     0.793411243259    -1.468079463620     1.007825032230
         H            0.874350731249     1.773563243259     0.002177536380     1.007825032230
         H            2.330715731249     0.192016243259     1.279927536380     1.007825032230
         H           -1.641004268751     0.950867243259    -1.328483463620     1.007825032230
         H           -1.647773268751     1.602495243259     0.334980536380     1.007825032230
         H           -2.953591268751    -1.029483756741    -0.548058463620     1.007825032230
         H           -2.953918268751    -0.395601756741     1.095118536380     1.007825032230
         H            3.010500731249    -0.958661756741    -1.476832463620     1.007825032230
         H            2.191391731249    -1.834053756741    -0.178214463620     1.007825032230
         H            3.875830731249    -1.319275756741     0.026423536380     1.007825032230
         H            3.647765731249     1.543041243259    -1.136490463620     1.007825032230
         H            3.221286731249     2.342359243259     0.389512536380     1.007825032230
         H            4.472800731249     1.090049243259     0.361988536380     1.007825032230
         H           -4.248435068751     1.455134643259     0.215778536380     1.007825032230
         H           -4.254239268751     0.988555243259    -1.328860463620     1.007825032230
         H           -5.119950268751     0.126777243259    -0.050320463620     1.007825032230

  Basis Set: AUG-CC-PVTZ
    Blend: AUG-CC-PVTZ
  Basis Set: (AUG-CC-PVTZ AUX)
    Blend: AUG-CC-PVTZ-JKFIT
	 Reference Energy          =    -821.7493181920820007 [Eh]
	 Singles Energy            =      -0.0000000000000000 [Eh]
	 Same-Spin Energy          =      -0.5012561492732410 [Eh]
	 Opposite-Spin Energy      =      -1.6484115583539372 [Eh]
	 Correlation Energy        =      -2.1496677076271782 [Eh]
	 Total Energy              =    -823.8989858997091460 [Eh]

	 ================> DF-SCS-MP2 Energies <==================
	-----------------------------------------------------------
	 SCS Same-Spin Scale       =       0.3333333333333333 [-]
	 SCS Opposite-Spin Scale   =       1.2000000000000000 [-]
	 SCS Same-Spin Energy      =      -0.1670853830910803 [Eh]
	 SCS Opposite-Spin Energy  =      -1.9780938700247246 [Eh]
	 SCS Correlation Energy    =      -2.1451792531158049 [Eh]
	 SCS Total Energy          =    -823.8944974451977714 [Eh]
	-----------------------------------------------------------

  Dipole Moment: [D]
     X:    -0.2300      Y:     3.8803      Z:    -1.5377     Total:     4.1802

*** Psi4 exiting successfully. Buy a developer a beer!
