                               Psi4 1.4a3.dev225

  ==> Input File <==

--------------------------------------------------------------------------
#psi4
#
memory 32 gb

molecule  {
0 1
  S       -0.2573260    -0.3323280     0.1419150
  O       -0.2860210    -1.5224110    -0.7288200
  O       -0.1054148    -0.5372211     1.5948262
  C        1.1077430     0.7304620    -0.3526940
  C        2.4495880     0.2623560     0.2167580
  C       -1.7119910     0.6470300    -0.2467030
  C       -2.9773330    -0.1490110     0.0593080
  C        2.8936370    -1.0771870    -0.3692660
  C        3.4979800     1.3449170    -0.0414460
  C       -4.2305000     0.6643980    -0.2524990
  H        1.1201440     0.7512950    -1.4483370
  H        0.8637990     1.7314470     0.0219200
  H        2.3201640     0.1499000     1.2996700
  H       -1.6515560     0.9087510    -1.3087410
  H       -1.6583250     1.5603790     0.3547230
  H       -2.9641430    -1.0716000    -0.5283160
  H       -2.9644700    -0.4377180     1.1148610
  H        2.9999490    -1.0007780    -1.4570900
  H        2.1808400    -1.8761700    -0.1584720
  H        3.8652790    -1.3613920     0.0461660
  H        3.6372140     1.5009250    -1.1167480
  H        3.2107350     2.3002430     0.4092550
  H        4.4622490     1.0479330     0.3817310
  H       -4.2653590     1.5804770     0.3446860
  H       -4.2647910     0.9464390    -1.3091180
  H       -5.1305020     0.0846610    -0.0305780
units angstrom
no_reorient  #important for SAPT in psi4, default
symmetry c1  #important for SAPT in psi4, default
}

set PROPERTIES_ORIGIN ["COM"]
properties('MP2/aug-cc-pvtz', properties = ['dipole'])
--------------------------------------------------------------------------

    Molecular point group: c1
  Charge       = 0
  Multiplicity = 1
  Basis Set: AUG-CC-PVTZ
    Blend: AUG-CC-PVTZ
  Basis Set: (AUG-CC-PVTZ AUX)
    Blend: AUG-CC-PVTZ-JKFIT

    Orbital Energies [Eh]
    ---------------------

    Doubly Occupied:

       1A    -92.169704     2A    -20.535033     3A    -20.531476
       4A    -11.279480     5A    -11.271519     6A    -11.244316
       7A    -11.244169     8A    -11.231668     9A    -11.225348
      10A    -11.210811    11A     -9.140276    12A     -6.824687
      13A     -6.824200    14A     -6.824080    15A     -1.425326
      16A     -1.313434    17A     -1.114600    18A     -1.098760
      19A     -1.014109    20A     -0.961314    21A     -0.935877
      22A     -0.852023    23A     -0.805908    24A     -0.777003
      25A     -0.687603    26A     -0.677178    27A     -0.664215
      28A     -0.641948    29A     -0.618002    30A     -0.603941
      31A     -0.593789    32A     -0.579293    33A     -0.569986
      34A     -0.552513    35A     -0.538294    36A     -0.529813
      37A     -0.512013    38A     -0.502261    39A     -0.496877
      40A     -0.485808    41A     -0.480888    42A     -0.474261
      43A     -0.469149    44A     -0.453759    45A     -0.418739

  @DF-RHF Final Energy:  -821.78276603575978

   => Energetics <=

    Nuclear Repulsion Energy =            707.4531752661189330
    One-Electron Energy =               -2531.6609810635868598
    Two-Electron Energy =                1002.4250397617081489
    Total Energy =                       -821.7827660357597779
  Basis Set: (AUG-CC-PVTZ AUX)
    Blend: AUG-CC-PVTZ-RI
    Molecular point group: c1

    Geometry (in Angstrom), charge = 0, multiplicity = 1:

       Center              X                  Y                   Z               Mass
    ------------   -----------------  -----------------  -----------------  -----------------
         S           -0.255109306994    -0.285857826255     0.122781035497    31.972071174400
         O           -0.283804306994    -1.475940826255    -0.747953964503    15.994914619570
         O           -0.103198106994    -0.490750926255     1.575692235497    15.994914619570
         C            1.109959693006     0.776932173745    -0.371827964503    12.000000000000
         C            2.451804693006     0.308826173745     0.197624035497    12.000000000000
         C           -1.709774306994     0.693500173745    -0.265836964503    12.000000000000
         C           -2.975116306994    -0.102540826255     0.040174035497    12.000000000000
         C            2.895853693006    -1.030716826255    -0.388399964503    12.000000000000
         C            3.500196693006     1.391387173745    -0.060579964503    12.000000000000
         C           -4.228283306994     0.710868173745    -0.271632964503    12.000000000000
         H            1.122360693006     0.797765173745    -1.467470964503     1.007825032230
         H            0.866015693006     1.777917173745     0.002786035497     1.007825032230
         H            2.322380693006     0.196370173745     1.280536035497     1.007825032230
         H           -1.649339306994     0.955221173745    -1.327874964503     1.007825032230
         H           -1.656108306994     1.606849173745     0.335589035497     1.007825032230
         H           -2.961926306994    -1.025129826255    -0.547449964503     1.007825032230
         H           -2.962253306994    -0.391247826255     1.095727035497     1.007825032230
         H            3.002165693006    -0.954307826255    -1.476223964503     1.007825032230
         H            2.183056693006    -1.829699826255    -0.177605964503     1.007825032230
         H            3.867495693006    -1.314921826255     0.027032035497     1.007825032230
         H            3.639430693006     1.547395173745    -1.135881964503     1.007825032230
         H            3.212951693006     2.346713173745     0.390121035497     1.007825032230
         H            4.464465693006     1.094403173745     0.362597035497     1.007825032230
         H           -4.263142306994     1.626947173745     0.325552035497     1.007825032230
         H           -4.262574306994     0.992909173745    -1.328251964503     1.007825032230
         H           -5.128285306994     0.131131173745    -0.049711964503     1.007825032230

  Basis Set: AUG-CC-PVTZ
    Blend: AUG-CC-PVTZ
  Basis Set: (AUG-CC-PVTZ AUX)
    Blend: AUG-CC-PVTZ-JKFIT
	 Reference Energy          =    -821.7827660357597779 [Eh]
	 Singles Energy            =      -0.0000000000000000 [Eh]
	 Same-Spin Energy          =      -0.5010543921308450 [Eh]
	 Opposite-Spin Energy      =      -1.6488132457410898 [Eh]
	 Correlation Energy        =      -2.1498676378719348 [Eh]
	 Total Energy              =    -823.9326336736316989 [Eh]

	 ================> DF-SCS-MP2 Energies <==================
	-----------------------------------------------------------
	 SCS Same-Spin Scale       =       0.3333333333333333 [-]
	 SCS Opposite-Spin Scale   =       1.2000000000000000 [-]
	 SCS Same-Spin Energy      =      -0.1670181307102817 [Eh]
	 SCS Opposite-Spin Energy  =      -1.9785758948893077 [Eh]
	 SCS Correlation Energy    =      -2.1455940255995896 [Eh]
	 SCS Total Energy          =    -823.9283600613593990 [Eh]
	-----------------------------------------------------------

  Dipole Moment: [D]
     X:    -0.5056      Y:     3.9271      Z:    -1.5357     Total:     4.2469

*** Psi4 exiting successfully. Buy a developer a beer!
