                               Psi4 1.4a3.dev225

  ==> Input File <==

--------------------------------------------------------------------------
#psi4
#
memory 32 gb

molecule  {
0 1
  S       -0.2573260    -0.3323280     0.1419150
  O       -0.2860210    -1.5224110    -0.7288200
  O       -0.1913230    -0.4820040     1.6079470
  C        1.1077430     0.7304620    -0.3526940
  C        2.4320589     0.2684711     0.2093190
  C       -1.7119910     0.6470300    -0.2467030
  C       -2.9773330    -0.1490110     0.0593080
  C        2.8936370    -1.0771870    -0.3692660
  C        3.4979800     1.3449170    -0.0414460
  C       -4.2305000     0.6643980    -0.2524990
  H        1.1201440     0.7512950    -1.4483370
  H        0.8637990     1.7314470     0.0219200
  H        2.3201640     0.1499000     1.2996700
  H       -1.6515560     0.9087510    -1.3087410
  H       -1.6583250     1.5603790     0.3547230
  H       -2.9641430    -1.0716000    -0.5283160
  H       -2.9644700    -0.4377180     1.1148610
  H        2.9999490    -1.0007780    -1.4570900
  H        2.1808400    -1.8761700    -0.1584720
  H        3.8652790    -1.3613920     0.0461660
  H        3.6372140     1.5009250    -1.1167480
  H        3.2107350     2.3002430     0.4092550
  H        4.4622490     1.0479330     0.3817310
  H       -4.2653590     1.5804770     0.3446860
  H       -4.2647910     0.9464390    -1.3091180
  H       -5.1305020     0.0846610    -0.0305780
units angstrom
no_reorient  #important for SAPT in psi4, default
symmetry c1  #important for SAPT in psi4, default
}

set PROPERTIES_ORIGIN ["COM"]
properties('MP2/aug-cc-pvtz', properties = ['dipole'])
--------------------------------------------------------------------------

    Molecular point group: c1
  Charge       = 0
  Multiplicity = 1
  Basis Set: AUG-CC-PVTZ
    Blend: AUG-CC-PVTZ
  Basis Set: (AUG-CC-PVTZ AUX)
    Blend: AUG-CC-PVTZ-JKFIT

    Orbital Energies [Eh]
    ---------------------

    Doubly Occupied:

       1A    -92.170448     2A    -20.535791     3A    -20.535042
       4A    -11.275059     5A    -11.273672     6A    -11.246184
       7A    -11.241620     8A    -11.229791     9A    -11.226959
      10A    -11.213052    11A     -9.140952    12A     -6.825343
      13A     -6.824928    14A     -6.824732    15A     -1.426152
      16A     -1.316863    17A     -1.117278    18A     -1.096295
      19A     -1.013003    20A     -0.961016    21A     -0.936469
      22A     -0.851639    23A     -0.805423    24A     -0.778121
      25A     -0.688596    26A     -0.676325    27A     -0.664211
      28A     -0.643194    29A     -0.619331    30A     -0.604586
      31A     -0.591685    32A     -0.580782    33A     -0.568384
      34A     -0.553253    35A     -0.539551    36A     -0.528708
      37A     -0.511404    38A     -0.503237    39A     -0.496462
      40A     -0.489261    41A     -0.480413    42A     -0.474059
      43A     -0.469364    44A     -0.456573    45A     -0.418521

  @DF-RHF Final Energy:  -821.78297670578263

   => Energetics <=

    Nuclear Repulsion Energy =            707.5616844557682725
    One-Electron Energy =               -2531.8418496084191247
    Two-Electron Energy =                1002.4971884468682219
    Total Energy =                       -821.7829767057826302
  Basis Set: (AUG-CC-PVTZ AUX)
    Blend: AUG-CC-PVTZ-RI
    Molecular point group: c1

    Geometry (in Angstrom), charge = 0, multiplicity = 1:

       Center              X                  Y                   Z               Mass
    ------------   -----------------  -----------------  -----------------  -----------------
         S           -0.245453194386    -0.291687498391     0.122046071718    31.972071174400
         O           -0.274148194386    -1.481770498391    -0.748688928282    15.994914619570
         O           -0.179450194386    -0.441363498391     1.588078071718    15.994914619570
         C            1.119615805614     0.771102501609    -0.372562928282    12.000000000000
         C            2.443931705614     0.309111601609     0.189450071718    12.000000000000
         C           -1.700118194386     0.687670501609    -0.266571928282    12.000000000000
         C           -2.965460194386    -0.108370498391     0.039439071718    12.000000000000
         C            2.905509805614    -1.036546498391    -0.389134928282    12.000000000000
         C            3.509852805614     1.385557501609    -0.061314928282    12.000000000000
         C           -4.218627194386     0.705038501609    -0.272367928282    12.000000000000
         H            1.132016805614     0.791935501609    -1.468205928282     1.007825032230
         H            0.875671805614     1.772087501609     0.002051071718     1.007825032230
         H            2.332036805614     0.190540501609     1.279801071718     1.007825032230
         H           -1.639683194386     0.949391501609    -1.328609928282     1.007825032230
         H           -1.646452194386     1.601019501609     0.334854071718     1.007825032230
         H           -2.952270194386    -1.030959498391    -0.548184928282     1.007825032230
         H           -2.952597194386    -0.397077498391     1.094992071718     1.007825032230
         H            3.011821805614    -0.960137498391    -1.476958928282     1.007825032230
         H            2.192712805614    -1.835529498391    -0.178340928282     1.007825032230
         H            3.877151805614    -1.320751498391     0.026297071718     1.007825032230
         H            3.649086805614     1.541565501609    -1.136616928282     1.007825032230
         H            3.222607805614     2.340883501609     0.389386071718     1.007825032230
         H            4.474121805614     1.088573501609     0.361862071718     1.007825032230
         H           -4.253486194386     1.621117501609     0.324817071718     1.007825032230
         H           -4.252918194386     0.987079501609    -1.328986928282     1.007825032230
         H           -5.118629194386     0.125301501609    -0.050446928282     1.007825032230

  Basis Set: AUG-CC-PVTZ
    Blend: AUG-CC-PVTZ
  Basis Set: (AUG-CC-PVTZ AUX)
    Blend: AUG-CC-PVTZ-JKFIT
	 Reference Energy          =    -821.7829767057826302 [Eh]
	 Singles Energy            =      -0.0000000000000000 [Eh]
	 Same-Spin Energy          =      -0.5011304416925990 [Eh]
	 Opposite-Spin Energy      =      -1.6490210919793091 [Eh]
	 Correlation Energy        =      -2.1501515336719081 [Eh]
	 Total Energy              =    -823.9331282394545042 [Eh]

	 ================> DF-SCS-MP2 Energies <==================
	-----------------------------------------------------------
	 SCS Same-Spin Scale       =       0.3333333333333333 [-]
	 SCS Opposite-Spin Scale   =       1.2000000000000000 [-]
	 SCS Same-Spin Energy      =      -0.1670434805641997 [Eh]
	 SCS Opposite-Spin Energy  =      -1.9788253103751710 [Eh]
	 SCS Correlation Energy    =      -2.1458687909393706 [Eh]
	 SCS Total Energy          =    -823.9288454967220332 [Eh]
	-----------------------------------------------------------

  Dipole Moment: [D]
     X:    -0.2292      Y:     3.7977      Z:    -1.5738     Total:     4.1173

*** Psi4 exiting successfully. Buy a developer a beer!
