                               Psi4 1.4a3.dev225

  ==> Input File <==

--------------------------------------------------------------------------
#psi4
#
memory 32 gb

molecule  {
0 1
  S       -0.2573260    -0.3323280     0.1419150
  O       -0.2860210    -1.5224110    -0.7288200
  O       -0.1913230    -0.4820040     1.6079470
  C        1.1077430     0.7304620    -0.3526940
  C        2.4495880     0.2623560     0.2167580
  C       -1.7119910     0.6470300    -0.2467030
  C       -2.9773330    -0.1490110     0.0593080
  C        2.8936370    -1.0771870    -0.3692660
  C        3.4979800     1.3449170    -0.0414460
  C       -4.2305000     0.6643980    -0.2524990
  H        1.1201440     0.7512950    -1.4483370
  H        0.8637990     1.7314470     0.0219200
  H        2.3201640     0.1499000     1.2996700
  H       -1.6515560     0.9087510    -1.3087410
  H       -1.6583250     1.5603790     0.3547230
  H       -2.9641430    -1.0716000    -0.5283160
  H       -2.9644700    -0.4377180     1.1148610
  H        2.9999490    -1.0007780    -1.4570900
  H        2.1808400    -1.8761700    -0.1584720
  H        3.8652790    -1.3613920     0.0461660
  H        3.6372140     1.5009250    -1.1167480
  H        3.2107350     2.3002430     0.4092550
  H        4.4622490     1.0479330     0.3817310
  H       -4.2319190     1.5908814     0.3294566
  H       -4.2647910     0.9464390    -1.3091180
  H       -5.1305020     0.0846610    -0.0305780
units angstrom
no_reorient  #important for SAPT in psi4, default
symmetry c1  #important for SAPT in psi4, default
}

set PROPERTIES_ORIGIN ["COM"]
properties('MP2/aug-cc-pvtz', properties = ['dipole'])
--------------------------------------------------------------------------

    Molecular point group: c1
  Charge       = 0
  Multiplicity = 1
  Basis Set: AUG-CC-PVTZ
    Blend: AUG-CC-PVTZ
  Basis Set: (AUG-CC-PVTZ AUX)
    Blend: AUG-CC-PVTZ-JKFIT

    Orbital Energies [Eh]
    ---------------------

    Doubly Occupied:

       1A    -92.170187     2A    -20.535531     3A    -20.534751
       4A    -11.274838     5A    -11.273735     6A    -11.246616
       7A    -11.241165     8A    -11.229758     9A    -11.226841
      10A    -11.212917    11A     -9.140662    12A     -6.825051
      13A     -6.824642    14A     -6.824449    15A     -1.425846
      16A     -1.316610    17A     -1.115779    18A     -1.096219
      19A     -1.013492    20A     -0.960500    21A     -0.937757
      22A     -0.850357    23A     -0.804986    24A     -0.778767
      25A     -0.687756    26A     -0.675718    27A     -0.663780
      28A     -0.642594    29A     -0.619363    30A     -0.605091
      31A     -0.592930    32A     -0.581311    33A     -0.567251
      34A     -0.553746    35A     -0.539616    36A     -0.528207
      37A     -0.511095    38A     -0.503355    39A     -0.494816
      40A     -0.487285    41A     -0.482403    42A     -0.475360
      43A     -0.470315    44A     -0.456371    45A     -0.418306

  @DF-RHF Final Energy:  -821.78335513324430

   => Energetics <=

    Nuclear Repulsion Energy =            707.3717742653811911
    One-Electron Energy =               -2531.4740139497562268
    Two-Electron Energy =                1002.3188845511307363
    Total Energy =                       -821.7833551332442994
  Basis Set: (AUG-CC-PVTZ AUX)
    Blend: AUG-CC-PVTZ-RI
    Molecular point group: c1

    Geometry (in Angstrom), charge = 0, multiplicity = 1:

       Center              X                  Y                   Z               Mass
    ------------   -----------------  -----------------  -----------------  -----------------
         S           -0.246940519518    -0.291304193519     0.121595582746    31.972071174400
         O           -0.275635519518    -1.481387193519    -0.749139417254    15.994914619570
         O           -0.180937519518    -0.440980193519     1.587627582746    15.994914619570
         C            1.118128480482     0.771485806481    -0.373013417254    12.000000000000
         C            2.459973480482     0.303379806481     0.196438582746    12.000000000000
         C           -1.701605519518     0.688053806481    -0.267022417254    12.000000000000
         C           -2.966947519518    -0.107987193519     0.038988582746    12.000000000000
         C            2.904022480482    -1.036163193519    -0.389585417254    12.000000000000
         C            3.508365480482     1.385940806481    -0.061765417254    12.000000000000
         C           -4.220114519518     0.705421806481    -0.272818417254    12.000000000000
         H            1.130529480482     0.792318806481    -1.468656417254     1.007825032230
         H            0.874184480482     1.772470806481     0.001600582746     1.007825032230
         H            2.330549480482     0.190923806481     1.279350582746     1.007825032230
         H           -1.641170519518     0.949774806481    -1.329060417254     1.007825032230
         H           -1.647939519518     1.601402806481     0.334403582746     1.007825032230
         H           -2.953757519518    -1.030576193519    -0.548635417254     1.007825032230
         H           -2.954084519518    -0.396694193519     1.094541582746     1.007825032230
         H            3.010334480482    -0.959754193519    -1.477409417254     1.007825032230
         H            2.191225480482    -1.835146193519    -0.178791417254     1.007825032230
         H            3.875664480482    -1.320368193519     0.025846582746     1.007825032230
         H            3.647599480482     1.541948806481    -1.137067417254     1.007825032230
         H            3.221120480482     2.341266806481     0.388935582746     1.007825032230
         H            4.472634480482     1.088956806481     0.361411582746     1.007825032230
         H           -4.221533519518     1.631905206481     0.309137182746     1.007825032230
         H           -4.254405519518     0.987462806481    -1.329437417254     1.007825032230
         H           -5.120116519518     0.125684806481    -0.050897417254     1.007825032230

  Basis Set: AUG-CC-PVTZ
    Blend: AUG-CC-PVTZ
  Basis Set: (AUG-CC-PVTZ AUX)
    Blend: AUG-CC-PVTZ-JKFIT
	 Reference Energy          =    -821.7833551332442994 [Eh]
	 Singles Energy            =      -0.0000000000000000 [Eh]
	 Same-Spin Energy          =      -0.5010640017120827 [Eh]
	 Opposite-Spin Energy      =      -1.6489264019811762 [Eh]
	 Correlation Energy        =      -2.1499904036932591 [Eh]
	 Total Energy              =    -823.9333455369375088 [Eh]

	 ================> DF-SCS-MP2 Energies <==================
	-----------------------------------------------------------
	 SCS Same-Spin Scale       =       0.3333333333333333 [-]
	 SCS Opposite-Spin Scale   =       1.2000000000000000 [-]
	 SCS Same-Spin Energy      =      -0.1670213339040275 [Eh]
	 SCS Opposite-Spin Energy  =      -1.9787116823774114 [Eh]
	 SCS Correlation Energy    =      -2.1457330162814388 [Eh]
	 SCS Total Energy          =    -823.9290881495256826 [Eh]
	-----------------------------------------------------------

  Dipole Moment: [D]
     X:    -0.1947      Y:     3.7980      Z:    -1.5827     Total:     4.1192

*** Psi4 exiting successfully. Buy a developer a beer!
