                               Psi4 1.4a3.dev225

  ==> Input File <==

--------------------------------------------------------------------------
#psi4
#
memory 32 gb

molecule  {
0 1
  S       -0.2573260    -0.3323280     0.1419150
  O       -0.2860210    -1.5224110    -0.7288200
  O       -0.1913230    -0.4820040     1.6079470
  C        1.1077430     0.7304620    -0.3526940
  C        2.6248785     0.2012055     0.2911478
  C       -1.7119910     0.6470300    -0.2467030
  C       -2.9773330    -0.1490110     0.0593080
  C        2.8936370    -1.0771870    -0.3692660
  C        3.4979800     1.3449170    -0.0414460
  C       -4.2305000     0.6643980    -0.2524990
  H        1.1201440     0.7512950    -1.4483370
  H        0.8637990     1.7314470     0.0219200
  H        2.3201640     0.1499000     1.2996700
  H       -1.6515560     0.9087510    -1.3087410
  H       -1.6583250     1.5603790     0.3547230
  H       -2.9641430    -1.0716000    -0.5283160
  H       -2.9644700    -0.4377180     1.1148610
  H        2.9999490    -1.0007780    -1.4570900
  H        2.1808400    -1.8761700    -0.1584720
  H        3.8652790    -1.3613920     0.0461660
  H        3.6372140     1.5009250    -1.1167480
  H        3.2107350     2.3002430     0.4092550
  H        4.4622490     1.0479330     0.3817310
  H       -4.2653590     1.5804770     0.3446860
  H       -4.2647910     0.9464390    -1.3091180
  H       -5.1305020     0.0846610    -0.0305780
units angstrom
no_reorient  #important for SAPT in psi4, default
symmetry c1  #important for SAPT in psi4, default
}

set PROPERTIES_ORIGIN ["COM"]
properties('MP2/aug-cc-pvtz', properties = ['dipole'])
--------------------------------------------------------------------------

    Molecular point group: c1
  Charge       = 0
  Multiplicity = 1
  Basis Set: AUG-CC-PVTZ
    Blend: AUG-CC-PVTZ
  Basis Set: (AUG-CC-PVTZ AUX)
    Blend: AUG-CC-PVTZ-JKFIT

    Orbital Energies [Eh]
    ---------------------

    Doubly Occupied:

       1A    -92.165590     2A    -20.531827     3A    -20.530919
       4A    -11.270666     5A    -11.268045     6A    -11.257632
       7A    -11.238464     8A    -11.229429     9A    -11.227468
      10A    -11.215042    11A     -9.135869    12A     -6.820238
      13A     -6.819854    14A     -6.819732    15A     -1.421707
      16A     -1.313030    17A     -1.110876    18A     -1.094286
      19A     -1.013952    20A     -0.954997    21A     -0.952314
      22A     -0.842112    23A     -0.801915    24A     -0.783030
      25A     -0.680753    26A     -0.670748    27A     -0.657153
      28A     -0.639914    29A     -0.621785    30A     -0.611636
      31A     -0.588556    32A     -0.581295    33A     -0.568068
      34A     -0.565136    35A     -0.542089    36A     -0.526715
      37A     -0.515915    38A     -0.507676    39A     -0.504058
      40A     -0.493999    41A     -0.475826    42A     -0.471460
      43A     -0.453805    44A     -0.444080    45A     -0.402141

  @DF-RHF Final Energy:  -821.75377723178224

   => Energetics <=

    Nuclear Repulsion Energy =            704.9216098373855175
    One-Electron Energy =               -2526.6671682055657584
    Two-Electron Energy =                 999.9917811363981173
    Total Energy =                       -821.7537772317822373
  Basis Set: (AUG-CC-PVTZ AUX)
    Blend: AUG-CC-PVTZ-RI
    Molecular point group: c1

    Geometry (in Angstrom), charge = 0, multiplicity = 1:

       Center              X                  Y                   Z               Mass
    ------------   -----------------  -----------------  -----------------  -----------------
         S           -0.259554456379    -0.286768237855     0.116061776826    31.972071174400
         O           -0.288249456379    -1.476851237855    -0.754673223174    15.994914619570
         O           -0.193551456379    -0.436444237855     1.582093776826    15.994914619570
         C            1.105514543621     0.776021762145    -0.378547223174    12.000000000000
         C            2.622650043621     0.246765262145     0.265294576826    12.000000000000
         C           -1.714219456379     0.692589762145    -0.272556223174    12.000000000000
         C           -2.979561456379    -0.103451237855     0.033454776826    12.000000000000
         C            2.891408543621    -1.031627237855    -0.395119223174    12.000000000000
         C            3.495751543621     1.390476762145    -0.067299223174    12.000000000000
         C           -4.232728456379     0.709957762145    -0.278352223174    12.000000000000
         H            1.117915543621     0.796854762145    -1.474190223174     1.007825032230
         H            0.861570543621     1.777006762145    -0.003933223174     1.007825032230
         H            2.317935543621     0.195459762145     1.273816776826     1.007825032230
         H           -1.653784456379     0.954310762145    -1.334594223174     1.007825032230
         H           -1.660553456379     1.605938762145     0.328869776826     1.007825032230
         H           -2.966371456379    -1.026040237855    -0.554169223174     1.007825032230
         H           -2.966698456379    -0.392158237855     1.089007776826     1.007825032230
         H            2.997720543621    -0.955218237855    -1.482943223174     1.007825032230
         H            2.178611543621    -1.830610237855    -0.184325223174     1.007825032230
         H            3.863050543621    -1.315832237855     0.020312776826     1.007825032230
         H            3.634985543621     1.546484762145    -1.142601223174     1.007825032230
         H            3.208506543621     2.345802762145     0.383401776826     1.007825032230
         H            4.460020543621     1.093492762145     0.355877776826     1.007825032230
         H           -4.267587456379     1.626036762145     0.318832776826     1.007825032230
         H           -4.267019456379     0.991998762145    -1.334971223174     1.007825032230
         H           -5.132730456379     0.130220762145    -0.056431223174     1.007825032230

  Basis Set: AUG-CC-PVTZ
    Blend: AUG-CC-PVTZ
  Basis Set: (AUG-CC-PVTZ AUX)
    Blend: AUG-CC-PVTZ-JKFIT
	 Reference Energy          =    -821.7537772317822373 [Eh]
	 Singles Energy            =      -0.0000000000000000 [Eh]
	 Same-Spin Energy          =      -0.5018813301872146 [Eh]
	 Opposite-Spin Energy      =      -1.6504791113507877 [Eh]
	 Correlation Energy        =      -2.1523604415380024 [Eh]
	 Total Energy              =    -823.9061376733202451 [Eh]

	 ================> DF-SCS-MP2 Energies <==================
	-----------------------------------------------------------
	 SCS Same-Spin Scale       =       0.3333333333333333 [-]
	 SCS Opposite-Spin Scale   =       1.2000000000000000 [-]
	 SCS Same-Spin Energy      =      -0.1672937767290715 [Eh]
	 SCS Opposite-Spin Energy  =      -1.9805749336209453 [Eh]
	 SCS Correlation Energy    =      -2.1478687103500169 [Eh]
	 SCS Total Energy          =    -823.9016459421322907 [Eh]
	-----------------------------------------------------------

  Dipole Moment: [D]
     X:     0.1884      Y:     3.7910      Z:    -1.5661     Total:     4.1061

*** Psi4 exiting successfully. Buy a developer a beer!
