                               Psi4 1.4a3.dev225

  ==> Input File <==

--------------------------------------------------------------------------
#psi4
#
memory 32 gb

molecule  {
0 1
  S       -0.2573260    -0.3323280     0.1419150
  O       -0.2860210    -1.5224110    -0.7288200
  O       -0.1913230    -0.4820040     1.6079470
  C        1.1077430     0.7304620    -0.3526940
  C        2.4495880     0.2623560     0.2167580
  C       -1.7119910     0.6470300    -0.2467030
  C       -2.9773330    -0.1490110     0.0593080
  C        2.8936370    -1.0771870    -0.3692660
  C        3.4979800     1.3449170    -0.0414460
  C       -4.2305000     0.6643980    -0.2524990
  H        1.1201440     0.7512950    -1.4483370
  H        0.8637990     1.7314470     0.0219200
  H        2.3201640     0.1499000     1.2996700
  H       -1.6515560     0.9087510    -1.3087410
  H       -1.6583250     1.5603790     0.3547230
  H       -2.9641430    -1.0716000    -0.5283160
  H       -2.9644700    -0.4377180     1.1148610
  H        2.9980084    -1.0021727    -1.4372333
  H        2.1808400    -1.8761700    -0.1584720
  H        3.8652790    -1.3613920     0.0461660
  H        3.6372140     1.5009250    -1.1167480
  H        3.2107350     2.3002430     0.4092550
  H        4.4622490     1.0479330     0.3817310
  H       -4.2653590     1.5804770     0.3446860
  H       -4.2647910     0.9464390    -1.3091180
  H       -5.1305020     0.0846610    -0.0305780
units angstrom
no_reorient  #important for SAPT in psi4, default
symmetry c1  #important for SAPT in psi4, default
}

set PROPERTIES_ORIGIN ["COM"]
properties('MP2/aug-cc-pvtz', properties = ['dipole'])
--------------------------------------------------------------------------

    Molecular point group: c1
  Charge       = 0
  Multiplicity = 1
  Basis Set: AUG-CC-PVTZ
    Blend: AUG-CC-PVTZ
  Basis Set: (AUG-CC-PVTZ AUX)
    Blend: AUG-CC-PVTZ-JKFIT

    Orbital Energies [Eh]
    ---------------------

    Doubly Occupied:

       1A    -92.170123     2A    -20.535470     3A    -20.534734
       4A    -11.274764     5A    -11.273684     6A    -11.246351
       7A    -11.241409     8A    -11.229637     9A    -11.226796
      10A    -11.210376    11A     -9.140601    12A     -6.824990
      13A     -6.824581    14A     -6.824389    15A     -1.425805
      16A     -1.316572    17A     -1.115831    18A     -1.096088
      19A     -1.013543    20A     -0.960603    21A     -0.938907
      22A     -0.850739    23A     -0.805107    24A     -0.779229
      25A     -0.687830    26A     -0.675745    27A     -0.663551
      28A     -0.642712    29A     -0.619309    30A     -0.605096
      31A     -0.591500    32A     -0.581720    33A     -0.568178
      34A     -0.554488    35A     -0.541187    36A     -0.528528
      37A     -0.510193    38A     -0.502990    39A     -0.495689
      40A     -0.487338    41A     -0.482518    42A     -0.475535
      43A     -0.470476    44A     -0.456337    45A     -0.418207

  @DF-RHF Final Energy:  -821.78352417985570

   => Energetics <=

    Nuclear Repulsion Energy =            707.4085316996695383
    One-Electron Energy =               -2531.5451947663091232
    Two-Electron Energy =                1002.3531388867838814
    Total Energy =                       -821.7835241798557036
  Basis Set: (AUG-CC-PVTZ AUX)
    Blend: AUG-CC-PVTZ-RI
    Molecular point group: c1

    Geometry (in Angstrom), charge = 0, multiplicity = 1:

       Center              X                  Y                   Z               Mass
    ------------   -----------------  -----------------  -----------------  -----------------
         S           -0.246723211429    -0.291231723298     0.121380083480    31.972071174400
         O           -0.275418211429    -1.481314723298    -0.749354916520    15.994914619570
         O           -0.180720211429    -0.440907723298     1.587412083480    15.994914619570
         C            1.118345788571     0.771558276702    -0.373228916520    12.000000000000
         C            2.460190788571     0.303452276702     0.196223083480    12.000000000000
         C           -1.701388211429     0.688126276702    -0.267237916520    12.000000000000
         C           -2.966730211429    -0.107914723298     0.038773083480    12.000000000000
         C            2.904239788571    -1.036090723298    -0.389800916520    12.000000000000
         C            3.508582788571     1.386013276702    -0.061980916520    12.000000000000
         C           -4.219897211429     0.705494276702    -0.273033916520    12.000000000000
         H            1.130746788571     0.792391276702    -1.468871916520     1.007825032230
         H            0.874401788571     1.772543276702     0.001385083480     1.007825032230
         H            2.330766788571     0.190996276702     1.279135083480     1.007825032230
         H           -1.640953211429     0.949847276702    -1.329275916520     1.007825032230
         H           -1.647722211429     1.601475276702     0.334188083480     1.007825032230
         H           -2.953540211429    -1.030503723298    -0.548850916520     1.007825032230
         H           -2.953867211429    -0.396621723298     1.094326083480     1.007825032230
         H            3.008611188571    -0.961076423298    -1.457768216520     1.007825032230
         H            2.191442788571    -1.835073723298    -0.179006916520     1.007825032230
         H            3.875881788571    -1.320295723298     0.025631083480     1.007825032230
         H            3.647816788571     1.542021276702    -1.137282916520     1.007825032230
         H            3.221337788571     2.341339276702     0.388720083480     1.007825032230
         H            4.472851788571     1.089029276702     0.361196083480     1.007825032230
         H           -4.254756211429     1.621573276702     0.324151083480     1.007825032230
         H           -4.254188211429     0.987535276702    -1.329652916520     1.007825032230
         H           -5.119899211429     0.125757276702    -0.051112916520     1.007825032230

  Basis Set: AUG-CC-PVTZ
    Blend: AUG-CC-PVTZ
  Basis Set: (AUG-CC-PVTZ AUX)
    Blend: AUG-CC-PVTZ-JKFIT
	 Reference Energy          =    -821.7835241798557036 [Eh]
	 Singles Energy            =      -0.0000000000000000 [Eh]
	 Same-Spin Energy          =      -0.5010461303210411 [Eh]
	 Opposite-Spin Energy      =      -1.6487710372454614 [Eh]
	 Correlation Energy        =      -2.1498171675665025 [Eh]
	 Total Energy              =    -823.9333413474222425 [Eh]

	 ================> DF-SCS-MP2 Energies <==================
	-----------------------------------------------------------
	 SCS Same-Spin Scale       =       0.3333333333333333 [-]
	 SCS Opposite-Spin Scale   =       1.2000000000000000 [-]
	 SCS Same-Spin Energy      =      -0.1670153767736803 [Eh]
	 SCS Opposite-Spin Energy  =      -1.9785252446945536 [Eh]
	 SCS Correlation Energy    =      -2.1455406214682338 [Eh]
	 SCS Total Energy          =    -823.9290648013239888 [Eh]
	-----------------------------------------------------------

  Dipole Moment: [D]
     X:    -0.2003      Y:     3.7980      Z:    -1.5858     Total:     4.1206

*** Psi4 exiting successfully. Buy a developer a beer!
