                               Psi4 1.4a3.dev225

  ==> Input File <==

--------------------------------------------------------------------------
#psi4
#
memory 32 gb

molecule  {
0 1
  S       -0.2573260    -0.3323280     0.1419150
  O       -0.2860210    -1.5224110    -0.7288200
  O       -0.1913230    -0.4820040     1.6079470
  C        1.1077430     0.7304620    -0.3526940
  C        2.4495880     0.2623560     0.2167580
  C       -1.7119910     0.6470300    -0.2467030
  C       -2.9773330    -0.1490110     0.0593080
  C        2.8936370    -1.0771870    -0.3692660
  C        3.4979800     1.3449170    -0.0414460
  C       -4.2305000     0.6643980    -0.2524990
  H        1.1201440     0.7512950    -1.4483370
  H        0.8637990     1.7314470     0.0219200
  H        2.3201640     0.1499000     1.2996700
  H       -1.6515560     0.9087510    -1.3087410
  H       -1.6583250     1.5603790     0.3547230
  H       -2.9641430    -1.0716000    -0.5283160
  H       -2.9644700    -0.4377180     1.1148610
  H        2.9999490    -1.0007780    -1.4570900
  H        2.1808400    -1.8761700    -0.1584720
  H        3.8652790    -1.3613920     0.0461660
  H        3.6372140     1.5009250    -1.1167480
  H        3.2107350     2.3002430     0.4092550
  H        4.4622490     1.0479330     0.3817310
  H       -4.2621729     1.4967477     0.2901035
  H       -4.2647910     0.9464390    -1.3091180
  H       -5.1305020     0.0846610    -0.0305780
units angstrom
no_reorient  #important for SAPT in psi4, default
symmetry c1  #important for SAPT in psi4, default
}

set PROPERTIES_ORIGIN ["COM"]
properties('MP2/aug-cc-pvtz', properties = ['dipole'])
--------------------------------------------------------------------------

    Molecular point group: c1
  Charge       = 0
  Multiplicity = 1
  Basis Set: AUG-CC-PVTZ
    Blend: AUG-CC-PVTZ
  Basis Set: (AUG-CC-PVTZ AUX)
    Blend: AUG-CC-PVTZ-JKFIT

    Orbital Energies [Eh]
    ---------------------

    Doubly Occupied:

       1A    -92.170025     2A    -20.535390     3A    -20.534604
       4A    -11.274644     5A    -11.273622     6A    -11.246531
       7A    -11.240342     8A    -11.226782     9A    -11.216925
      10A    -11.212837    11A     -9.140500    12A     -6.824889
      13A     -6.824479    14A     -6.824287    15A     -1.425689
      16A     -1.316457    17A     -1.115733    18A     -1.097125
      19A     -1.015525    20A     -0.964465    21A     -0.937700
      22A     -0.855499    23A     -0.805936    24A     -0.778656
      25A     -0.687867    26A     -0.676324    27A     -0.664391
      28A     -0.642786    29A     -0.620976    30A     -0.605213
      31A     -0.594413    32A     -0.581838    33A     -0.573931
      34A     -0.553759    35A     -0.539611    36A     -0.528080
      37A     -0.511937    38A     -0.503975    39A     -0.497570
      40A     -0.487374    41A     -0.482340    42A     -0.475242
      43A     -0.470331    44A     -0.456225    45A     -0.418073

  @DF-RHF Final Energy:  -821.77734162301260

   => Energetics <=

    Nuclear Repulsion Energy =            707.7575066801234698
    One-Electron Energy =               -2532.2079071505686443
    Two-Electron Energy =                1002.6730588474325714
    Total Energy =                       -821.7773416230126031
  Basis Set: (AUG-CC-PVTZ AUX)
    Blend: AUG-CC-PVTZ-RI
    Molecular point group: c1

    Geometry (in Angstrom), charge = 0, multiplicity = 1:

       Center              X                  Y                   Z               Mass
    ------------   -----------------  -----------------  -----------------  -----------------
         S           -0.246754699685    -0.290726023152     0.121837289980    31.972071174400
         O           -0.275449699685    -1.480809023152    -0.748897710020    15.994914619570
         O           -0.180751699685    -0.440402023152     1.587869289980    15.994914619570
         C            1.118314300315     0.772063976848    -0.372771710020    12.000000000000
         C            2.460159300315     0.303957976848     0.196680289980    12.000000000000
         C           -1.701419699685     0.688631976848    -0.266780710020    12.000000000000
         C           -2.966761699685    -0.107409023152     0.039230289980    12.000000000000
         C            2.904208300315    -1.035585023152    -0.389343710020    12.000000000000
         C            3.508551300315     1.386518976848    -0.061523710020    12.000000000000
         C           -4.219928699685     0.705999976848    -0.272576710020    12.000000000000
         H            1.130715300315     0.792896976848    -1.468414710020     1.007825032230
         H            0.874370300315     1.773048976848     0.001842289980     1.007825032230
         H            2.330735300315     0.191501976848     1.279592289980     1.007825032230
         H           -1.640984699685     0.950352976848    -1.328818710020     1.007825032230
         H           -1.647753699685     1.601980976848     0.334645289980     1.007825032230
         H           -2.953571699685    -1.029998023152    -0.548393710020     1.007825032230
         H           -2.953898699685    -0.396116023152     1.094783289980     1.007825032230
         H            3.010520300315    -0.959176023152    -1.477167710020     1.007825032230
         H            2.191411300315    -1.834568023152    -0.178549710020     1.007825032230
         H            3.875850300315    -1.319790023152     0.026088289980     1.007825032230
         H            3.647785300315     1.542526976848    -1.136825710020     1.007825032230
         H            3.221306300315     2.341844976848     0.389177289980     1.007825032230
         H            4.472820300315     1.089534976848     0.361653289980     1.007825032230
         H           -4.251601599685     1.538349676848     0.270025789980     1.007825032230
         H           -4.254219699685     0.988040976848    -1.329195710020     1.007825032230
         H           -5.119930699685     0.126262976848    -0.050655710020     1.007825032230

  Basis Set: AUG-CC-PVTZ
    Blend: AUG-CC-PVTZ
  Basis Set: (AUG-CC-PVTZ AUX)
    Blend: AUG-CC-PVTZ-JKFIT
	 Reference Energy          =    -821.7773416230126031 [Eh]
	 Singles Energy            =      -0.0000000000000000 [Eh]
	 Same-Spin Energy          =      -0.5011232314001419 [Eh]
	 Opposite-Spin Energy      =      -1.6484778133821238 [Eh]
	 Correlation Energy        =      -2.1496010447822655 [Eh]
	 Total Energy              =    -823.9269426677948331 [Eh]

	 ================> DF-SCS-MP2 Energies <==================
	-----------------------------------------------------------
	 SCS Same-Spin Scale       =       0.3333333333333333 [-]
	 SCS Opposite-Spin Scale   =       1.2000000000000000 [-]
	 SCS Same-Spin Energy      =      -0.1670410771333806 [Eh]
	 SCS Opposite-Spin Energy  =      -1.9781733760585485 [Eh]
	 SCS Correlation Energy    =      -2.1452144531919290 [Eh]
	 SCS Total Energy          =    -823.9225560762045006 [Eh]
	-----------------------------------------------------------

  Dipole Moment: [D]
     X:    -0.2189      Y:     3.8466      Z:    -1.5522     Total:     4.1538

*** Psi4 exiting successfully. Buy a developer a beer!
