                               Psi4 1.4a3.dev225

  ==> Input File <==

--------------------------------------------------------------------------
#psi4
#
memory 32 gb

molecule  {
0 1
  S       -0.2573260    -0.3323280     0.1419150
  O       -0.2860210    -1.5224110    -0.7288200
  O       -0.1913230    -0.4820040     1.6079470
  C        1.1077430     0.7304620    -0.3526940
  C        2.4495880     0.2623560     0.2167580
  C       -1.7119910     0.6470300    -0.2467030
  C       -2.9773330    -0.1490110     0.0593080
  C        2.8936370    -1.0771870    -0.3692660
  C        3.4979800     1.3449170    -0.0414460
  C       -4.2305000     0.6643980    -0.2524990
  H        1.1201440     0.7512950    -1.4483370
  H        0.8637990     1.7314470     0.0219200
  H        2.3201640     0.1499000     1.2996700
  H       -1.6515560     0.9087510    -1.3087410
  H       -1.6583250     1.5603790     0.3547230
  H       -2.9641430    -1.0716000    -0.5283160
  H       -2.9644700    -0.4377180     1.1148610
  H        2.9999490    -1.0007780    -1.4570900
  H        2.1808400    -1.8761700    -0.1584720
  H        3.8652790    -1.3613920     0.0461660
  H        3.6372140     1.5009250    -1.1167480
  H        3.2159831     2.2827888     0.4010205
  H        4.4622490     1.0479330     0.3817310
  H       -4.2653590     1.5804770     0.3446860
  H       -4.2647910     0.9464390    -1.3091180
  H       -5.1305020     0.0846610    -0.0305780
units angstrom
no_reorient  #important for SAPT in psi4, default
symmetry c1  #important for SAPT in psi4, default
}

set PROPERTIES_ORIGIN ["COM"]
properties('MP2/aug-cc-pvtz', properties = ['dipole'])
--------------------------------------------------------------------------

    Molecular point group: c1
  Charge       = 0
  Multiplicity = 1
  Basis Set: AUG-CC-PVTZ
    Blend: AUG-CC-PVTZ
  Basis Set: (AUG-CC-PVTZ AUX)
    Blend: AUG-CC-PVTZ-JKFIT

    Orbital Energies [Eh]
    ---------------------

    Doubly Occupied:

       1A    -92.170138     2A    -20.535498     3A    -20.534732
       4A    -11.274775     5A    -11.273705     6A    -11.246385
       7A    -11.241417     8A    -11.229645     9A    -11.224318
      10A    -11.212692    11A     -9.140615    12A     -6.825004
      13A     -6.824595    14A     -6.824403    15A     -1.425817
      16A     -1.316583    17A     -1.115837    18A     -1.096093
      19A     -1.013562    20A     -0.960733    21A     -0.938875
      22A     -0.850743    23A     -0.805076    24A     -0.778843
      25A     -0.687893    26A     -0.675798    27A     -0.663541
      28A     -0.642937    29A     -0.619338    30A     -0.606457
      31A     -0.591480    32A     -0.581196    33A     -0.568184
      34A     -0.554736    35A     -0.539527    36A     -0.528587
      37A     -0.510197    38A     -0.503284    39A     -0.495685
      40A     -0.487384    41A     -0.482851    42A     -0.475322
      43A     -0.470334    44A     -0.456344    45A     -0.418194

  @DF-RHF Final Energy:  -821.78353756702040

   => Energetics <=

    Nuclear Repulsion Energy =            707.4032980289274519
    One-Electron Energy =               -2531.5349659539110689
    Two-Electron Energy =                1002.3481303579631003
    Total Energy =                       -821.7835375670204030
  Basis Set: (AUG-CC-PVTZ AUX)
    Blend: AUG-CC-PVTZ-RI
    Molecular point group: c1

    Geometry (in Angstrom), charge = 0, multiplicity = 1:

       Center              X                  Y                   Z               Mass
    ------------   -----------------  -----------------  -----------------  -----------------
         S           -0.246767364514    -0.291133085648     0.121552619983    31.972071174400
         O           -0.275462364514    -1.481216085648    -0.749182380017    15.994914619570
         O           -0.180764364514    -0.440809085648     1.587584619983    15.994914619570
         C            1.118301635486     0.771656914352    -0.373056380017    12.000000000000
         C            2.460146635486     0.303550914352     0.196395619983    12.000000000000
         C           -1.701432364514     0.688224914352    -0.267065380017    12.000000000000
         C           -2.966774364514    -0.107816085648     0.038945619983    12.000000000000
         C            2.904195635486    -1.035992085648    -0.389628380017    12.000000000000
         C            3.508538635486     1.386111914352    -0.061808380017    12.000000000000
         C           -4.219941364514     0.705592914352    -0.272861380017    12.000000000000
         H            1.130702635486     0.792489914352    -1.468699380017     1.007825032230
         H            0.874357635486     1.772641914352     0.001557619983     1.007825032230
         H            2.330722635486     0.191094914352     1.279307619983     1.007825032230
         H           -1.640997364514     0.949945914352    -1.329103380017     1.007825032230
         H           -1.647766364514     1.601573914352     0.334360619983     1.007825032230
         H           -2.953584364514    -1.030405085648    -0.548678380017     1.007825032230
         H           -2.953911364514    -0.396523085648     1.094498619983     1.007825032230
         H            3.010507635486    -0.959583085648    -1.477452380017     1.007825032230
         H            2.191398635486    -1.834975085648    -0.178834380017     1.007825032230
         H            3.875837635486    -1.320197085648     0.025803619983     1.007825032230
         H            3.647772635486     1.542119914352    -1.137110380017     1.007825032230
         H            3.226541735486     2.323983714352     0.380658119983     1.007825032230
         H            4.472807635486     1.089127914352     0.361368619983     1.007825032230
         H           -4.254800364514     1.621671914352     0.324323619983     1.007825032230
         H           -4.254232364514     0.987633914352    -1.329480380017     1.007825032230
         H           -5.119943364514     0.125855914352    -0.050940380017     1.007825032230

  Basis Set: AUG-CC-PVTZ
    Blend: AUG-CC-PVTZ
  Basis Set: (AUG-CC-PVTZ AUX)
    Blend: AUG-CC-PVTZ-JKFIT
	 Reference Energy          =    -821.7835375670204030 [Eh]
	 Singles Energy            =      -0.0000000000000000 [Eh]
	 Same-Spin Energy          =      -0.5010479931290386 [Eh]
	 Opposite-Spin Energy      =      -1.6487688526165927 [Eh]
	 Correlation Energy        =      -2.1498168457456313 [Eh]
	 Total Energy              =    -823.9333544127659934 [Eh]

	 ================> DF-SCS-MP2 Energies <==================
	-----------------------------------------------------------
	 SCS Same-Spin Scale       =       0.3333333333333333 [-]
	 SCS Opposite-Spin Scale   =       1.2000000000000000 [-]
	 SCS Same-Spin Energy      =      -0.1670159977096795 [Eh]
	 SCS Opposite-Spin Energy  =      -1.9785226231399111 [Eh]
	 SCS Correlation Energy    =      -2.1455386208495906 [Eh]
	 SCS Total Energy          =    -823.9290761878700096 [Eh]
	-----------------------------------------------------------

  Dipole Moment: [D]
     X:    -0.2038      Y:     3.8122      Z:    -1.5705     Total:     4.1281

*** Psi4 exiting successfully. Buy a developer a beer!
