                               Psi4 1.4a3.dev225

  ==> Input File <==

--------------------------------------------------------------------------
#psi4
#
memory 32 gb

molecule  {
0 1
  S       -0.2573260    -0.3323280     0.1419150
  O       -0.2860210    -1.5224110    -0.7288200
  O       -0.1913230    -0.4820040     1.6079470
  C        1.1077430     0.7304620    -0.3526940
  C        2.4495880     0.2623560     0.2167580
  C       -1.7119910     0.6470300    -0.2467030
  C       -3.0602565    -0.2011791     0.0793623
  C        2.8936370    -1.0771870    -0.3692660
  C        3.4979800     1.3449170    -0.0414460
  C       -4.2305000     0.6643980    -0.2524990
  H        1.1201440     0.7512950    -1.4483370
  H        0.8637990     1.7314470     0.0219200
  H        2.3201640     0.1499000     1.2996700
  H       -1.6515560     0.9087510    -1.3087410
  H       -1.6583250     1.5603790     0.3547230
  H       -2.9641430    -1.0716000    -0.5283160
  H       -2.9644700    -0.4377180     1.1148610
  H        2.9999490    -1.0007780    -1.4570900
  H        2.1808400    -1.8761700    -0.1584720
  H        3.8652790    -1.3613920     0.0461660
  H        3.6372140     1.5009250    -1.1167480
  H        3.2107350     2.3002430     0.4092550
  H        4.4622490     1.0479330     0.3817310
  H       -4.2653590     1.5804770     0.3446860
  H       -4.2647910     0.9464390    -1.3091180
  H       -5.1305020     0.0846610    -0.0305780
units angstrom
no_reorient  #important for SAPT in psi4, default
symmetry c1  #important for SAPT in psi4, default
}

set PROPERTIES_ORIGIN ["COM"]
properties('MP2/aug-cc-pvtz', properties = ['dipole'])
--------------------------------------------------------------------------

    Molecular point group: c1
  Charge       = 0
  Multiplicity = 1
  Basis Set: AUG-CC-PVTZ
    Blend: AUG-CC-PVTZ
  Basis Set: (AUG-CC-PVTZ AUX)
    Blend: AUG-CC-PVTZ-JKFIT

    Orbital Energies [Eh]
    ---------------------

    Doubly Occupied:

       1A    -92.168785     2A    -20.534272     3A    -20.533509
       4A    -11.274900     5A    -11.272411     6A    -11.245680
       7A    -11.243933     8A    -11.229361     9A    -11.226143
      10A    -11.212239    11A     -9.139137    12A     -6.823512
      13A     -6.823136    14A     -6.822962    15A     -1.424420
      16A     -1.315451    17A     -1.114134    18A     -1.087886
      19A     -1.016084    20A     -0.959384    21A     -0.937041
      22A     -0.851193    23A     -0.806804    24A     -0.777345
      25A     -0.684501    26A     -0.673832    27A     -0.662002
      28A     -0.642141    29A     -0.620138    30A     -0.604107
      31A     -0.588625    32A     -0.580468    33A     -0.570487
      34A     -0.554005    35A     -0.542413    36A     -0.536255
      37A     -0.509966    38A     -0.505105    39A     -0.492469
      40A     -0.482540    41A     -0.478892    42A     -0.474822
      43A     -0.469689    44A     -0.455406    45A     -0.415202

  @DF-RHF Final Energy:  -821.77611313224611

   => Energetics <=

    Nuclear Repulsion Energy =            705.8124273171368941
    One-Electron Energy =               -2528.4115073877151190
    Two-Electron Energy =                1000.8229669383320015
    Total Energy =                       -821.7761131322461097
  Basis Set: (AUG-CC-PVTZ AUX)
    Blend: AUG-CC-PVTZ-RI
    Molecular point group: c1

    Geometry (in Angstrom), charge = 0, multiplicity = 1:

       Center              X                  Y                   Z               Mass
    ------------   -----------------  -----------------  -----------------  -----------------
         S           -0.240670778245    -0.287425137754     0.120035434696    31.972071174400
         O           -0.269365778245    -1.477508137754    -0.750699565304    15.994914619570
         O           -0.174667778245    -0.437101137754     1.586067434696    15.994914619570
         C            1.124398221755     0.775364862246    -0.374573565304    12.000000000000
         C            2.466243221755     0.307258862246     0.194878434696    12.000000000000
         C           -1.695335778245     0.691932862246    -0.268582565304    12.000000000000
         C           -3.043601278245    -0.156276237754     0.057482734696    12.000000000000
         C            2.910292221755    -1.032284137754    -0.391145565304    12.000000000000
         C            3.514635221755     1.389819862246    -0.063325565304    12.000000000000
         C           -4.213844778245     0.709300862246    -0.274378565304    12.000000000000
         H            1.136799221755     0.796197862246    -1.470216565304     1.007825032230
         H            0.880454221755     1.776349862246     0.000040434696     1.007825032230
         H            2.336819221755     0.194802862246     1.277790434696     1.007825032230
         H           -1.634900778245     0.953653862246    -1.330620565304     1.007825032230
         H           -1.641669778245     1.605281862246     0.332843434696     1.007825032230
         H           -2.947487778245    -1.026697137754    -0.550195565304     1.007825032230
         H           -2.947814778245    -0.392815137754     1.092981434696     1.007825032230
         H            3.016604221755    -0.955875137754    -1.478969565304     1.007825032230
         H            2.197495221755    -1.831267137754    -0.180351565304     1.007825032230
         H            3.881934221755    -1.316489137754     0.024286434696     1.007825032230
         H            3.653869221755     1.545827862246    -1.138627565304     1.007825032230
         H            3.227390221755     2.345145862246     0.387375434696     1.007825032230
         H            4.478904221755     1.092835862246     0.359851434696     1.007825032230
         H           -4.248703778245     1.625379862246     0.322806434696     1.007825032230
         H           -4.248135778245     0.991341862246    -1.330997565304     1.007825032230
         H           -5.113846778245     0.129563862246    -0.052457565304     1.007825032230

  Basis Set: AUG-CC-PVTZ
    Blend: AUG-CC-PVTZ
  Basis Set: (AUG-CC-PVTZ AUX)
    Blend: AUG-CC-PVTZ-JKFIT
	 Reference Energy          =    -821.7761131322461097 [Eh]
	 Singles Energy            =      -0.0000000000000000 [Eh]
	 Same-Spin Energy          =      -0.5008677552521288 [Eh]
	 Opposite-Spin Energy      =      -1.6489094072029091 [Eh]
	 Correlation Energy        =      -2.1497771624550381 [Eh]
	 Total Energy              =    -823.9258902947011620 [Eh]

	 ================> DF-SCS-MP2 Energies <==================
	-----------------------------------------------------------
	 SCS Same-Spin Scale       =       0.3333333333333333 [-]
	 SCS Opposite-Spin Scale   =       1.2000000000000000 [-]
	 SCS Same-Spin Energy      =      -0.1669559184173763 [Eh]
	 SCS Opposite-Spin Energy  =      -1.9786912886434909 [Eh]
	 SCS Correlation Energy    =      -2.1456472070608670 [Eh]
	 SCS Total Energy          =    -823.9217603393069567 [Eh]
	-----------------------------------------------------------

  Dipole Moment: [D]
     X:    -0.3385      Y:     3.8019      Z:    -1.5747     Total:     4.1290

*** Psi4 exiting successfully. Buy a developer a beer!
