                               Psi4 1.4a3.dev225

  ==> Input File <==

--------------------------------------------------------------------------
#psi4
#
memory 32 gb

molecule  {
0 1
  S       -0.2573260    -0.3323280     0.1419150
  O       -0.2860210    -1.5224110    -0.7288200
  O       -0.1913230    -0.4820040     1.6079470
  C        1.1077430     0.7304620    -0.3526940
  C        2.4495880     0.2623560     0.2167580
  C       -1.7119910     0.6470300    -0.2467030
  C       -2.9773330    -0.1490110     0.0593080
  C        2.8936370    -1.0771870    -0.3692660
  C        3.4979800     1.3449170    -0.0414460
  C       -4.2305000     0.6643980    -0.2524990
  H        1.1201440     0.7512950    -1.4483370
  H        0.8637990     1.7314470     0.0219200
  H        2.3201640     0.1499000     1.2996700
  H       -1.6515560     0.9087510    -1.3087410
  H       -1.6583250     1.5603790     0.3547230
  H       -2.9641430    -1.0716000    -0.5283160
  H       -2.9644700    -0.4377180     1.1148610
  H        3.0249276    -0.9722731    -1.4519744
  H        2.1808400    -1.8761700    -0.1584720
  H        3.8652790    -1.3613920     0.0461660
  H        3.6372140     1.5009250    -1.1167480
  H        3.2107350     2.3002430     0.4092550
  H        4.4622490     1.0479330     0.3817310
  H       -4.2653590     1.5804770     0.3446860
  H       -4.2647910     0.9464390    -1.3091180
  H       -5.1305020     0.0846610    -0.0305780
units angstrom
no_reorient  #important for SAPT in psi4, default
symmetry c1  #important for SAPT in psi4, default
}

set PROPERTIES_ORIGIN ["COM"]
properties('MP2/aug-cc-pvtz', properties = ['dipole'])
--------------------------------------------------------------------------

    Molecular point group: c1
  Charge       = 0
  Multiplicity = 1
  Basis Set: AUG-CC-PVTZ
    Blend: AUG-CC-PVTZ
  Basis Set: (AUG-CC-PVTZ AUX)
    Blend: AUG-CC-PVTZ-JKFIT

    Orbital Energies [Eh]
    ---------------------

    Doubly Occupied:

       1A    -92.170133     2A    -20.535521     3A    -20.534731
       4A    -11.274767     5A    -11.273669     6A    -11.246351
       7A    -11.241412     8A    -11.229638     9A    -11.226895
      10A    -11.213059    11A     -9.140614    12A     -6.825003
      13A     -6.824594    14A     -6.824402    15A     -1.425831
      16A     -1.316594    17A     -1.115828    18A     -1.096086
      19A     -1.013493    20A     -0.960573    21A     -0.937669
      22A     -0.850641    23A     -0.804883    24A     -0.778531
      25A     -0.687921    26A     -0.675772    27A     -0.663591
      28A     -0.642597    29A     -0.619368    30A     -0.604798
      31A     -0.591519    32A     -0.582015    33A     -0.568180
      34A     -0.554054    35A     -0.539269    36A     -0.528505
      37A     -0.510237    38A     -0.503339    39A     -0.495798
      40A     -0.487499    41A     -0.481490    42A     -0.475297
      43A     -0.470687    44A     -0.456345    45A     -0.418222

  @DF-RHF Final Energy:  -821.78334204089060

   => Energetics <=

    Nuclear Repulsion Energy =            707.3171387005376118
    One-Electron Energy =               -2531.3661176750406412
    Two-Electron Energy =                1002.2656369336123134
    Total Energy =                       -821.7833420408906022
  Basis Set: (AUG-CC-PVTZ AUX)
    Blend: AUG-CC-PVTZ-RI
    Molecular point group: c1

    Geometry (in Angstrom), charge = 0, multiplicity = 1:

       Center              X                  Y                   Z               Mass
    ------------   -----------------  -----------------  -----------------  -----------------
         S           -0.246888549493    -0.291415367017     0.121470623501    31.972071174400
         O           -0.275583549493    -1.481498367017    -0.749264376499    15.994914619570
         O           -0.180885549493    -0.441091367017     1.587502623501    15.994914619570
         C            1.118180450507     0.771374632983    -0.373138376499    12.000000000000
         C            2.460025450507     0.303268632983     0.196313623501    12.000000000000
         C           -1.701553549493     0.687942632983    -0.267147376499    12.000000000000
         C           -2.966895549493    -0.108098367017     0.038863623501    12.000000000000
         C            2.904074450507    -1.036274367017    -0.389710376499    12.000000000000
         C            3.508417450507     1.385829632983    -0.061890376499    12.000000000000
         C           -4.220062549493     0.705310632983    -0.272943376499    12.000000000000
         H            1.130581450507     0.792207632983    -1.468781376499     1.007825032230
         H            0.874236450507     1.772359632983     0.001475623501     1.007825032230
         H            2.330601450507     0.190812632983     1.279225623501     1.007825032230
         H           -1.641118549493     0.949663632983    -1.329185376499     1.007825032230
         H           -1.647887549493     1.601291632983     0.334278623501     1.007825032230
         H           -2.953705549493    -1.030687367017    -0.548760376499     1.007825032230
         H           -2.954032549493    -0.396805367017     1.094416623501     1.007825032230
         H            3.035365050507    -0.931360467017    -1.472418776499     1.007825032230
         H            2.191277450507    -1.835257367017    -0.178916376499     1.007825032230
         H            3.875716450507    -1.320479367017     0.025721623501     1.007825032230
         H            3.647651450507     1.541837632983    -1.137192376499     1.007825032230
         H            3.221172450507     2.341155632983     0.388810623501     1.007825032230
         H            4.472686450507     1.088845632983     0.361286623501     1.007825032230
         H           -4.254921549493     1.621389632983     0.324241623501     1.007825032230
         H           -4.254353549493     0.987351632983    -1.329562376499     1.007825032230
         H           -5.120064549493     0.125573632983    -0.051022376499     1.007825032230

  Basis Set: AUG-CC-PVTZ
    Blend: AUG-CC-PVTZ
  Basis Set: (AUG-CC-PVTZ AUX)
    Blend: AUG-CC-PVTZ-JKFIT
	 Reference Energy          =    -821.7833420408906022 [Eh]
	 Singles Energy            =      -0.0000000000000000 [Eh]
	 Same-Spin Energy          =      -0.5010682943177200 [Eh]
	 Opposite-Spin Energy      =      -1.6489262386162760 [Eh]
	 Correlation Energy        =      -2.1499945329339960 [Eh]
	 Total Energy              =    -823.9333365738245902 [Eh]

	 ================> DF-SCS-MP2 Energies <==================
	-----------------------------------------------------------
	 SCS Same-Spin Scale       =       0.3333333333333333 [-]
	 SCS Opposite-Spin Scale   =       1.2000000000000000 [-]
	 SCS Same-Spin Energy      =      -0.1670227647725733 [Eh]
	 SCS Opposite-Spin Energy  =      -1.9787114863395310 [Eh]
	 SCS Correlation Energy    =      -2.1457342511121045 [Eh]
	 SCS Total Energy          =    -823.9290762920027191 [Eh]
	-----------------------------------------------------------

  Dipole Moment: [D]
     X:    -0.1948      Y:     3.8049      Z:    -1.5697     Total:     4.1206

*** Psi4 exiting successfully. Buy a developer a beer!
