                               Psi4 1.4a3.dev225

  ==> Input File <==

--------------------------------------------------------------------------
#psi4
#
memory 32 gb

molecule  {
0 1
  S       -0.2573260    -0.3323280     0.1419150
  O       -0.2860210    -1.5224110    -0.7288200
  O       -0.2344239    -0.4541050     1.6118317
  C        1.1077430     0.7304620    -0.3526940
  C        2.4495880     0.2623560     0.2167580
  C       -1.7119910     0.6470300    -0.2467030
  C       -2.9773330    -0.1490110     0.0593080
  C        2.8936370    -1.0771870    -0.3692660
  C        3.4979800     1.3449170    -0.0414460
  C       -4.2305000     0.6643980    -0.2524990
  H        1.1201440     0.7512950    -1.4483370
  H        0.8637990     1.7314470     0.0219200
  H        2.3201640     0.1499000     1.2996700
  H       -1.6515560     0.9087510    -1.3087410
  H       -1.6583250     1.5603790     0.3547230
  H       -2.9641430    -1.0716000    -0.5283160
  H       -2.9644700    -0.4377180     1.1148610
  H        2.9999490    -1.0007780    -1.4570900
  H        2.1808400    -1.8761700    -0.1584720
  H        3.8652790    -1.3613920     0.0461660
  H        3.6372140     1.5009250    -1.1167480
  H        3.2107350     2.3002430     0.4092550
  H        4.4622490     1.0479330     0.3817310
  H       -4.2653590     1.5804770     0.3446860
  H       -4.2647910     0.9464390    -1.3091180
  H       -5.1305020     0.0846610    -0.0305780
units angstrom
no_reorient  #important for SAPT in psi4, default
symmetry c1  #important for SAPT in psi4, default
}

set PROPERTIES_ORIGIN ["COM"]
properties('MP2/aug-cc-pvtz', properties = ['dipole'])
--------------------------------------------------------------------------

    Molecular point group: c1
  Charge       = 0
  Multiplicity = 1
  Basis Set: AUG-CC-PVTZ
    Blend: AUG-CC-PVTZ
  Basis Set: (AUG-CC-PVTZ AUX)
    Blend: AUG-CC-PVTZ-JKFIT

    Orbital Energies [Eh]
    ---------------------

    Doubly Occupied:

       1A    -92.170325     2A    -20.536360     3A    -20.535654
       4A    -11.274814     5A    -11.272364     6A    -11.247712
       7A    -11.239989     8A    -11.228596     9A    -11.227548
      10A    -11.213925    11A     -9.140778    12A     -6.825159
      13A     -6.824782    14A     -6.824549    15A     -1.426143
      16A     -1.318113    17A     -1.116464    18A     -1.094485
      19A     -1.013129    20A     -0.960005    21A     -0.938655
      22A     -0.849978    23A     -0.804449    24A     -0.779591
      25A     -0.687909    26A     -0.675257    27A     -0.663013
      28A     -0.643074    29A     -0.619867    30A     -0.605755
      31A     -0.590389    32A     -0.581890    33A     -0.567202
      34A     -0.554495    35A     -0.540418    36A     -0.527881
      37A     -0.509572    38A     -0.503401    39A     -0.495003
      40A     -0.487785    41A     -0.483148    42A     -0.476007
      43A     -0.470635    44A     -0.457475    45A     -0.417775

  @DF-RHF Final Energy:  -821.78299770401213

   => Energetics <=

    Nuclear Repulsion Energy =            707.2907498877762009
    One-Electron Energy =               -2531.3044624779258811
    Two-Electron Energy =                1002.2307148861375481
    Total Energy =                       -821.7829977040121321
  Basis Set: (AUG-CC-PVTZ AUX)
    Blend: AUG-CC-PVTZ-RI
    Molecular point group: c1

    Geometry (in Angstrom), charge = 0, multiplicity = 1:

       Center              X                  Y                   Z               Mass
    ------------   -----------------  -----------------  -----------------  -----------------
         S           -0.242533732631    -0.293959833759     0.121123370032    31.972071174400
         O           -0.271228732631    -1.484042833759    -0.749611629968    15.994914619570
         O           -0.219631632631    -0.415736833759     1.591040070032    15.994914619570
         C            1.122535267369     0.768830166241    -0.373485629968    12.000000000000
         C            2.464380267369     0.300724166241     0.195966370032    12.000000000000
         C           -1.697198732631     0.685398166241    -0.267494629968    12.000000000000
         C           -2.962540732631    -0.110642833759     0.038516370032    12.000000000000
         C            2.908429267369    -1.038818833759    -0.390057629968    12.000000000000
         C            3.512772267369     1.383285166241    -0.062237629968    12.000000000000
         C           -4.215707732631     0.702766166241    -0.273290629968    12.000000000000
         H            1.134936267369     0.789663166241    -1.469128629968     1.007825032230
         H            0.878591267369     1.769815166241     0.001128370032     1.007825032230
         H            2.334956267369     0.188268166241     1.278878370032     1.007825032230
         H           -1.636763732631     0.947119166241    -1.329532629968     1.007825032230
         H           -1.643532732631     1.598747166241     0.333931370032     1.007825032230
         H           -2.949350732631    -1.033231833759    -0.549107629968     1.007825032230
         H           -2.949677732631    -0.399349833759     1.094069370032     1.007825032230
         H            3.014741267369    -0.962409833759    -1.477881629968     1.007825032230
         H            2.195632267369    -1.837801833759    -0.179263629968     1.007825032230
         H            3.880071267369    -1.323023833759     0.025374370032     1.007825032230
         H            3.652006267369     1.539293166241    -1.137539629968     1.007825032230
         H            3.225527267369     2.338611166241     0.388463370032     1.007825032230
         H            4.477041267369     1.086301166241     0.360939370032     1.007825032230
         H           -4.250566732631     1.618845166241     0.323894370032     1.007825032230
         H           -4.249998732631     0.984807166241    -1.329909629968     1.007825032230
         H           -5.115709732631     0.123029166241    -0.051369629968     1.007825032230

  Basis Set: AUG-CC-PVTZ
    Blend: AUG-CC-PVTZ
  Basis Set: (AUG-CC-PVTZ AUX)
    Blend: AUG-CC-PVTZ-JKFIT
	 Reference Energy          =    -821.7829977040121321 [Eh]
	 Singles Energy            =      -0.0000000000000000 [Eh]
	 Same-Spin Energy          =      -0.5010867850358680 [Eh]
	 Opposite-Spin Energy      =      -1.6490162054481812 [Eh]
	 Correlation Energy        =      -2.1501029904840490 [Eh]
	 Total Energy              =    -823.9331006944961473 [Eh]

	 ================> DF-SCS-MP2 Energies <==================
	-----------------------------------------------------------
	 SCS Same-Spin Scale       =       0.3333333333333333 [-]
	 SCS Opposite-Spin Scale   =       1.2000000000000000 [-]
	 SCS Same-Spin Energy      =      -0.1670289283452893 [Eh]
	 SCS Opposite-Spin Energy  =      -1.9788194465378173 [Eh]
	 SCS Correlation Energy    =      -2.1458483748831068 [Eh]
	 SCS Total Energy          =    -823.9288460788952762 [Eh]
	-----------------------------------------------------------

  Dipole Moment: [D]
     X:    -0.0497      Y:     3.7327      Z:    -1.5872     Total:     4.0565

*** Psi4 exiting successfully. Buy a developer a beer!
