                               Psi4 1.4a3.dev225

  ==> Input File <==

--------------------------------------------------------------------------
#psi4
#
memory 32 gb

molecule  {
0 1
  S       -0.2573260    -0.3323280     0.1419150
  O       -0.2860210    -1.5224110    -0.7288200
  O       -0.1913230    -0.4820040     1.6079470
  C        1.1077430     0.7304620    -0.3526940
  C        2.4495880     0.2623560     0.2167580
  C       -1.7119910     0.6470300    -0.2467030
  C       -2.9773330    -0.1490110     0.0593080
  C        2.8936370    -1.0771870    -0.3692660
  C        3.4979800     1.3449170    -0.0414460
  C       -4.2305000     0.6643980    -0.2524990
  H        1.1201440     0.7512950    -1.4483370
  H        0.8637990     1.7314470     0.0219200
  H        2.3201640     0.1499000     1.2996700
  H       -1.6515560     0.9087510    -1.3087410
  H       -1.6583250     1.5603790     0.3547230
  H       -2.9641430    -1.0716000    -0.5283160
  H       -2.9644700    -0.4377180     1.1148610
  H        2.8888356    -0.9725157    -1.4599183
  H        2.1808400    -1.8761700    -0.1584720
  H        3.8652790    -1.3613920     0.0461660
  H        3.6372140     1.5009250    -1.1167480
  H        3.2107350     2.3002430     0.4092550
  H        4.4622490     1.0479330     0.3817310
  H       -4.2653590     1.5804770     0.3446860
  H       -4.2647910     0.9464390    -1.3091180
  H       -5.1305020     0.0846610    -0.0305780
units angstrom
no_reorient  #important for SAPT in psi4, default
symmetry c1  #important for SAPT in psi4, default
}

set PROPERTIES_ORIGIN ["COM"]
properties('MP2/aug-cc-pvtz', properties = ['dipole'])
--------------------------------------------------------------------------

    Molecular point group: c1
  Charge       = 0
  Multiplicity = 1
  Basis Set: AUG-CC-PVTZ
    Blend: AUG-CC-PVTZ
  Basis Set: (AUG-CC-PVTZ AUX)
    Blend: AUG-CC-PVTZ-JKFIT

    Orbital Energies [Eh]
    ---------------------

    Doubly Occupied:

       1A    -92.170268     2A    -20.535525     3A    -20.534924
       4A    -11.274871     5A    -11.273886     6A    -11.245840
       7A    -11.241493     8A    -11.229704     9A    -11.226682
      10A    -11.213183    11A     -9.140738    12A     -6.825127
      13A     -6.824717    14A     -6.824527    15A     -1.425925
      16A     -1.316696    17A     -1.116072    18A     -1.096196
      19A     -1.013477    20A     -0.960490    21A     -0.938054
      22A     -0.850486    23A     -0.804658    24A     -0.778270
      25A     -0.687893    26A     -0.675998    27A     -0.664326
      28A     -0.642604    29A     -0.620218    30A     -0.606367
      31A     -0.591484    32A     -0.579180    33A     -0.568260
      34A     -0.552300    35A     -0.543930    36A     -0.528481
      37A     -0.510328    38A     -0.502597    39A     -0.495525
      40A     -0.488821    41A     -0.481762    42A     -0.473172
      43A     -0.469673    44A     -0.456440    45A     -0.418354

  @DF-RHF Final Energy:  -821.78210687939236

   => Energetics <=

    Nuclear Repulsion Energy =            707.5481844585639237
    One-Electron Energy =               -2531.8215393614141249
    Two-Electron Energy =                1002.4912480234579562
    Total Energy =                       -821.7821068793923587
  Basis Set: (AUG-CC-PVTZ AUX)
    Blend: AUG-CC-PVTZ-RI
    Molecular point group: c1

    Geometry (in Angstrom), charge = 0, multiplicity = 1:

       Center              X                  Y                   Z               Mass
    ------------   -----------------  -----------------  -----------------  -----------------
         S           -0.246052670722    -0.291413876964     0.121519415034    31.972071174400
         O           -0.274747670722    -1.481496876964    -0.749215584966    15.994914619570
         O           -0.180049670722    -0.441089876964     1.587551415034    15.994914619570
         C            1.119016329278     0.771376123036    -0.373089584966    12.000000000000
         C            2.460861329278     0.303270123036     0.196362415034    12.000000000000
         C           -1.700717670722     0.687944123036    -0.267098584966    12.000000000000
         C           -2.966059670722    -0.108096876964     0.038912415034    12.000000000000
         C            2.904910329278    -1.036272876964    -0.389661584966    12.000000000000
         C            3.509253329278     1.385831123036    -0.061841584966    12.000000000000
         C           -4.219226670722     0.705312123036    -0.272894584966    12.000000000000
         H            1.131417329278     0.792209123036    -1.468732584966     1.007825032230
         H            0.875072329278     1.772361123036     0.001524415034     1.007825032230
         H            2.331437329278     0.190814123036     1.279274415034     1.007825032230
         H           -1.640282670722     0.949665123036    -1.329136584966     1.007825032230
         H           -1.647051670722     1.601293123036     0.334327415034     1.007825032230
         H           -2.952869670722    -1.030685876964    -0.548711584966     1.007825032230
         H           -2.953196670722    -0.396803876964     1.094465415034     1.007825032230
         H            2.900108929278    -0.931601576964    -1.480313884966     1.007825032230
         H            2.192113329278    -1.835255876964    -0.178867584966     1.007825032230
         H            3.876552329278    -1.320477876964     0.025770415034     1.007825032230
         H            3.648487329278     1.541839123036    -1.137143584966     1.007825032230
         H            3.222008329278     2.341157123036     0.388859415034     1.007825032230
         H            4.473522329278     1.088847123036     0.361335415034     1.007825032230
         H           -4.254085670722     1.621391123036     0.324290415034     1.007825032230
         H           -4.253517670722     0.987353123036    -1.329513584966     1.007825032230
         H           -5.119228670722     0.125575123036    -0.050973584966     1.007825032230

  Basis Set: AUG-CC-PVTZ
    Blend: AUG-CC-PVTZ
  Basis Set: (AUG-CC-PVTZ AUX)
    Blend: AUG-CC-PVTZ-JKFIT
	 Reference Energy          =    -821.7821068793923587 [Eh]
	 Singles Energy            =      -0.0000000000000000 [Eh]
	 Same-Spin Energy          =      -0.5011841404755464 [Eh]
	 Opposite-Spin Energy      =      -1.6490977697171663 [Eh]
	 Correlation Energy        =      -2.1502819101927129 [Eh]
	 Total Energy              =    -823.9323887895850476 [Eh]

	 ================> DF-SCS-MP2 Energies <==================
	-----------------------------------------------------------
	 SCS Same-Spin Scale       =       0.3333333333333333 [-]
	 SCS Opposite-Spin Scale   =       1.2000000000000000 [-]
	 SCS Same-Spin Energy      =      -0.1670613801585155 [Eh]
	 SCS Opposite-Spin Energy  =      -1.9789173236605995 [Eh]
	 SCS Correlation Energy    =      -2.1459787038191149 [Eh]
	 SCS Total Energy          =    -823.9280855832114412 [Eh]
	-----------------------------------------------------------

  Dipole Moment: [D]
     X:    -0.2347      Y:     3.7953      Z:    -1.5557     Total:     4.1085

*** Psi4 exiting successfully. Buy a developer a beer!
