                               Psi4 1.4a3.dev225

  ==> Input File <==

--------------------------------------------------------------------------
#psi4
#
memory 32 gb

molecule  {
0 1
  S       -0.2573260    -0.3323280     0.1419150
  O       -0.2860210    -1.5224110    -0.7288200
  O       -0.1913230    -0.4820040     1.6079470
  C        1.1077430     0.7304620    -0.3526940
  C        2.4495880     0.2623560     0.2167580
  C       -1.7119910     0.6470300    -0.2467030
  C       -2.9773330    -0.1490110     0.0593080
  C        2.8936370    -1.0771870    -0.3692660
  C        3.4979800     1.3449170    -0.0414460
  C       -4.2305000     0.6643980    -0.2524990
  H        1.1201440     0.7512950    -1.4483370
  H        0.8637990     1.7314470     0.0219200
  H        2.3201640     0.1499000     1.2996700
  H       -1.6515560     0.9087510    -1.3087410
  H       -1.6583250     1.5603790     0.3547230
  H       -2.9641430    -1.0716000    -0.5283160
  H       -2.9644700    -0.4377180     1.1148610
  H        2.9999490    -1.0007780    -1.4570900
  H        2.1808400    -1.8761700    -0.1584720
  H        3.8652790    -1.3613920     0.0461660
  H        3.6372140     1.5009250    -1.1167480
  H        3.1976148     2.3438786     0.4298413
  H        4.4622490     1.0479330     0.3817310
  H       -4.2653590     1.5804770     0.3446860
  H       -4.2647910     0.9464390    -1.3091180
  H       -5.1305020     0.0846610    -0.0305780
units angstrom
no_reorient  #important for SAPT in psi4, default
symmetry c1  #important for SAPT in psi4, default
}

set PROPERTIES_ORIGIN ["COM"]
properties('MP2/aug-cc-pvtz', properties = ['dipole'])
--------------------------------------------------------------------------

    Molecular point group: c1
  Charge       = 0
  Multiplicity = 1
  Basis Set: AUG-CC-PVTZ
    Blend: AUG-CC-PVTZ
  Basis Set: (AUG-CC-PVTZ AUX)
    Blend: AUG-CC-PVTZ-JKFIT

    Orbital Energies [Eh]
    ---------------------

    Doubly Occupied:

       1A    -92.170189     2A    -20.535566     3A    -20.534811
       4A    -11.274807     5A    -11.273732     6A    -11.247179
       7A    -11.241446     8A    -11.232988     9A    -11.229658
      10A    -11.213489    11A     -9.140671    12A     -6.825059
      13A     -6.824651    14A     -6.824459    15A     -1.425897
      16A     -1.316664    17A     -1.115626    18A     -1.096058
      19A     -1.013178    20A     -0.960188    21A     -0.935198
      22A     -0.850435    23A     -0.804660    24A     -0.778558
      25A     -0.687671    26A     -0.675738    27A     -0.663630
      28A     -0.642254    29A     -0.619195    30A     -0.602275
      31A     -0.591505    32A     -0.580805    33A     -0.568211
      34A     -0.551437    35A     -0.540083    36A     -0.528677
      37A     -0.510380    38A     -0.502406    39A     -0.495785
      40A     -0.486941    41A     -0.480854    42A     -0.475300
      43A     -0.470632    44A     -0.456420    45A     -0.418397

  @DF-RHF Final Energy:  -821.78145396786181

   => Energetics <=

    Nuclear Repulsion Energy =            707.1070476400443567
    One-Electron Energy =               -2530.9494746000254963
    Two-Electron Energy =                1002.0609729921193320
    Total Energy =                       -821.7814539678618075
  Basis Set: (AUG-CC-PVTZ AUX)
    Blend: AUG-CC-PVTZ-RI
    Molecular point group: c1

    Geometry (in Angstrom), charge = 0, multiplicity = 1:

       Center              X                  Y                   Z               Mass
    ------------   -----------------  -----------------  -----------------  -----------------
         S           -0.246654546185    -0.291508299966     0.121375602268    31.972071174400
         O           -0.275349546185    -1.481591299966    -0.749359397732    15.994914619570
         O           -0.180651546185    -0.441184299966     1.587407602268    15.994914619570
         C            1.118414453815     0.771281700034    -0.373233397732    12.000000000000
         C            2.460259453815     0.303175700034     0.196218602268    12.000000000000
         C           -1.701319546185     0.687849700034    -0.267242397732    12.000000000000
         C           -2.966661546185    -0.108191299966     0.038768602268    12.000000000000
         C            2.904308453815    -1.036367299966    -0.389805397732    12.000000000000
         C            3.508651453815     1.385736700034    -0.061985397732    12.000000000000
         C           -4.219828546185     0.705217700034    -0.273038397732    12.000000000000
         H            1.130815453815     0.792114700034    -1.468876397732     1.007825032230
         H            0.874470453815     1.772266700034     0.001380602268     1.007825032230
         H            2.330835453815     0.190719700034     1.279130602268     1.007825032230
         H           -1.640884546185     0.949570700034    -1.329280397732     1.007825032230
         H           -1.647653546185     1.601198700034     0.334183602268     1.007825032230
         H           -2.953471546185    -1.030780299966    -0.548855397732     1.007825032230
         H           -2.953798546185    -0.396898299966     1.094321602268     1.007825032230
         H            3.010620453815    -0.959958299966    -1.477629397732     1.007825032230
         H            2.191511453815    -1.835350299966    -0.179011397732     1.007825032230
         H            3.875950453815    -1.320572299966     0.025626602268     1.007825032230
         H            3.647885453815     1.541744700034    -1.137287397732     1.007825032230
         H            3.208286253815     2.384698300034     0.409301902268     1.007825032230
         H            4.472920453815     1.088752700034     0.361191602268     1.007825032230
         H           -4.254687546185     1.621296700034     0.324146602268     1.007825032230
         H           -4.254119546185     0.987258700034    -1.329657397732     1.007825032230
         H           -5.119830546185     0.125480700034    -0.051117397732     1.007825032230

  Basis Set: AUG-CC-PVTZ
    Blend: AUG-CC-PVTZ
  Basis Set: (AUG-CC-PVTZ AUX)
    Blend: AUG-CC-PVTZ-JKFIT
	 Reference Energy          =    -821.7814539678618075 [Eh]
	 Singles Energy            =      -0.0000000000000000 [Eh]
	 Same-Spin Energy          =      -0.5010367079250605 [Eh]
	 Opposite-Spin Energy      =      -1.6492116751227404 [Eh]
	 Correlation Energy        =      -2.1502483830478010 [Eh]
	 Total Energy              =    -823.9317023509096316 [Eh]

	 ================> DF-SCS-MP2 Energies <==================
	-----------------------------------------------------------
	 SCS Same-Spin Scale       =       0.3333333333333333 [-]
	 SCS Opposite-Spin Scale   =       1.2000000000000000 [-]
	 SCS Same-Spin Energy      =      -0.1670122359750202 [Eh]
	 SCS Opposite-Spin Energy  =      -1.9790540101472884 [Eh]
	 SCS Correlation Energy    =      -2.1460662461223086 [Eh]
	 SCS Total Energy          =    -823.9275202139841667 [Eh]
	-----------------------------------------------------------

  Dipole Moment: [D]
     X:    -0.2013      Y:     3.7633      Z:    -1.5859     Total:     4.0887

*** Psi4 exiting successfully. Buy a developer a beer!
