                               Psi4 1.4a3.dev225

  ==> Input File <==

--------------------------------------------------------------------------
#psi4
#
memory 32 gb

molecule  {
0 1
  S       -0.2573260    -0.3323280     0.1419150
  O       -0.2860210    -1.5224110    -0.7288200
  O       -0.1913230    -0.4820040     1.6079470
  C        1.1077430     0.7304620    -0.3526940
  C        2.4495880     0.2623560     0.2167580
  C       -1.7119910     0.6470300    -0.2467030
  C       -2.9773330    -0.1490110     0.0593080
  C        2.8936370    -1.0771870    -0.3692660
  C        3.4979800     1.3449170    -0.0414460
  C       -4.2305000     0.6643980    -0.2524990
  H        1.1201440     0.7512950    -1.4483370
  H        0.8637990     1.7314470     0.0219200
  H        2.3201640     0.1499000     1.2996700
  H       -1.6515560     0.9087510    -1.3087410
  H       -1.6583250     1.5603790     0.3547230
  H       -2.9641430    -1.0716000    -0.5283160
  H       -2.9644700    -0.4377180     1.1148610
  H        2.9999490    -1.0007780    -1.4570900
  H        2.2134988    -1.8395623    -0.1681301
  H        3.8652790    -1.3613920     0.0461660
  H        3.6372140     1.5009250    -1.1167480
  H        3.2107350     2.3002430     0.4092550
  H        4.4622490     1.0479330     0.3817310
  H       -4.2653590     1.5804770     0.3446860
  H       -4.2647910     0.9464390    -1.3091180
  H       -5.1305020     0.0846610    -0.0305780
units angstrom
no_reorient  #important for SAPT in psi4, default
symmetry c1  #important for SAPT in psi4, default
}

set PROPERTIES_ORIGIN ["COM"]
properties('MP2/aug-cc-pvtz', properties = ['dipole'])
--------------------------------------------------------------------------

    Molecular point group: c1
  Charge       = 0
  Multiplicity = 1
  Basis Set: AUG-CC-PVTZ
    Blend: AUG-CC-PVTZ
  Basis Set: (AUG-CC-PVTZ AUX)
    Blend: AUG-CC-PVTZ-JKFIT

    Orbital Energies [Eh]
    ---------------------

    Doubly Occupied:

       1A    -92.170199     2A    -20.535593     3A    -20.534939
       4A    -11.274811     5A    -11.273680     6A    -11.246277
       7A    -11.241452     8A    -11.229667     9A    -11.226536
      10A    -11.207285    11A     -9.140681    12A     -6.825069
      13A     -6.824660    14A     -6.824470    15A     -1.425922
      16A     -1.316692    17A     -1.116026    18A     -1.096176
      19A     -1.013736    20A     -0.960706    21A     -0.941494
      22A     -0.850879    23A     -0.805309    24A     -0.779411
      25A     -0.687981    26A     -0.675946    27A     -0.663628
      28A     -0.643361    29A     -0.619489    30A     -0.608246
      31A     -0.591565    32A     -0.582299    33A     -0.568226
      34A     -0.554236    35A     -0.539591    36A     -0.529565
      37A     -0.510571    38A     -0.504483    39A     -0.496125
      40A     -0.487433    41A     -0.482903    42A     -0.475592
      43A     -0.470974    44A     -0.456441    45A     -0.418704

  @DF-RHF Final Energy:  -821.78260046920059

   => Energetics <=

    Nuclear Repulsion Energy =            707.4887625323631255
    One-Electron Energy =               -2531.6846676442937678
    Two-Electron Energy =                1002.4133046427300542
    Total Energy =                       -821.7826004692005881
  Basis Set: (AUG-CC-PVTZ AUX)
    Blend: AUG-CC-PVTZ-RI
    Molecular point group: c1

    Geometry (in Angstrom), charge = 0, multiplicity = 1:

       Center              X                  Y                   Z               Mass
    ------------   -----------------  -----------------  -----------------  -----------------
         S           -0.246935721378    -0.291465134516     0.121561363752    31.972071174400
         O           -0.275630721378    -1.481548134516    -0.749173636248    15.994914619570
         O           -0.180932721378    -0.441141134516     1.587593363752    15.994914619570
         C            1.118133278622     0.771324865484    -0.373047636248    12.000000000000
         C            2.459978278622     0.303218865484     0.196404363752    12.000000000000
         C           -1.701600721378     0.687892865484    -0.267056636248    12.000000000000
         C           -2.966942721378    -0.108148134516     0.038954363752    12.000000000000
         C            2.904027278622    -1.036324134516    -0.389619636248    12.000000000000
         C            3.508370278622     1.385779865484    -0.061799636248    12.000000000000
         C           -4.220109721378     0.705260865484    -0.272852636248    12.000000000000
         H            1.130534278622     0.792157865484    -1.468690636248     1.007825032230
         H            0.874189278622     1.772309865484     0.001566363752     1.007825032230
         H            2.330554278622     0.190762865484     1.279316363752     1.007825032230
         H           -1.641165721378     0.949613865484    -1.329094636248     1.007825032230
         H           -1.647934721378     1.601241865484     0.334369363752     1.007825032230
         H           -2.953752721378    -1.030737134516    -0.548669636248     1.007825032230
         H           -2.954079721378    -0.396855134516     1.094507363752     1.007825032230
         H            3.010339278622    -0.959915134516    -1.477443636248     1.007825032230
         H            2.223889078622    -1.798699434516    -0.188483736248     1.007825032230
         H            3.875669278622    -1.320529134516     0.025812363752     1.007825032230
         H            3.647604278622     1.541787865484    -1.137101636248     1.007825032230
         H            3.221125278622     2.341105865484     0.388901363752     1.007825032230
         H            4.472639278622     1.088795865484     0.361377363752     1.007825032230
         H           -4.254968721378     1.621339865484     0.324332363752     1.007825032230
         H           -4.254400721378     0.987301865484    -1.329471636248     1.007825032230
         H           -5.120111721378     0.125523865484    -0.050931636248     1.007825032230

  Basis Set: AUG-CC-PVTZ
    Blend: AUG-CC-PVTZ
  Basis Set: (AUG-CC-PVTZ AUX)
    Blend: AUG-CC-PVTZ-JKFIT
	 Reference Energy          =    -821.7826004692005881 [Eh]
	 Singles Energy            =      -0.0000000000000000 [Eh]
	 Same-Spin Energy          =      -0.5009748217782068 [Eh]
	 Opposite-Spin Energy      =      -1.6485330373154552 [Eh]
	 Correlation Energy        =      -2.1495078590936618 [Eh]
	 Total Energy              =    -823.9321083282942482 [Eh]

	 ================> DF-SCS-MP2 Energies <==================
	-----------------------------------------------------------
	 SCS Same-Spin Scale       =       0.3333333333333333 [-]
	 SCS Opposite-Spin Scale   =       1.2000000000000000 [-]
	 SCS Same-Spin Energy      =      -0.1669916072594023 [Eh]
	 SCS Opposite-Spin Energy  =      -1.9782396447785462 [Eh]
	 SCS Correlation Energy    =      -2.1452312520379486 [Eh]
	 SCS Total Energy          =    -823.9278317212385900 [Eh]
	-----------------------------------------------------------

  Dipole Moment: [D]
     X:    -0.2053      Y:     3.7853      Z:    -1.5732     Total:     4.1043

*** Psi4 exiting successfully. Buy a developer a beer!
