                               Psi4 1.4a3.dev225

  ==> Input File <==

--------------------------------------------------------------------------
#psi4
#
memory 32 gb

molecule  {
0 1
  S       -0.2573260    -0.3323280     0.1419150
  O       -0.2860210    -1.5224110    -0.7288200
  O       -0.1913230    -0.4820040     1.6079470
  C        1.1077430     0.7304620    -0.3526940
  C        2.4495880     0.2623560     0.2167580
  C       -1.7119910     0.6470300    -0.2467030
  C       -2.9773330    -0.1490110     0.0593080
  C        2.8936370    -1.0771870    -0.3692660
  C        3.4979800     1.3449170    -0.0414460
  C       -4.2305000     0.6643980    -0.2524990
  H        1.1201440     0.7512950    -1.4483370
  H        0.8637990     1.7314470     0.0219200
  H        2.3083596     0.1396432     1.3984397
  H       -1.6515560     0.9087510    -1.3087410
  H       -1.6583250     1.5603790     0.3547230
  H       -2.9641430    -1.0716000    -0.5283160
  H       -2.9644700    -0.4377180     1.1148610
  H        2.9999490    -1.0007780    -1.4570900
  H        2.1808400    -1.8761700    -0.1584720
  H        3.8652790    -1.3613920     0.0461660
  H        3.6372140     1.5009250    -1.1167480
  H        3.2107350     2.3002430     0.4092550
  H        4.4622490     1.0479330     0.3817310
  H       -4.2653590     1.5804770     0.3446860
  H       -4.2647910     0.9464390    -1.3091180
  H       -5.1305020     0.0846610    -0.0305780
units angstrom
no_reorient  #important for SAPT in psi4, default
symmetry c1  #important for SAPT in psi4, default
}

set PROPERTIES_ORIGIN ["COM"]
properties('MP2/aug-cc-pvtz', properties = ['dipole'])
--------------------------------------------------------------------------

    Molecular point group: c1
  Charge       = 0
  Multiplicity = 1
  Basis Set: AUG-CC-PVTZ
    Blend: AUG-CC-PVTZ
  Basis Set: (AUG-CC-PVTZ AUX)
    Blend: AUG-CC-PVTZ-JKFIT

    Orbital Energies [Eh]
    ---------------------

    Doubly Occupied:

       1A    -92.170190     2A    -20.535227     3A    -20.534826
       4A    -11.274867     5A    -11.274545     6A    -11.257628
       7A    -11.241458     8A    -11.229675     9A    -11.227492
      10A    -11.213725    11A     -9.140661    12A     -6.825054
      13A     -6.824643    14A     -6.824446    15A     -1.425750
      16A     -1.316502    17A     -1.113751    18A     -1.095635
      19A     -1.013181    20A     -0.960733    21A     -0.938257
      22A     -0.850258    23A     -0.803156    24A     -0.769702
      25A     -0.687566    26A     -0.675514    27A     -0.661350
      28A     -0.642862    29A     -0.617962    30A     -0.605549
      31A     -0.591475    32A     -0.580353    33A     -0.568212
      34A     -0.554052    35A     -0.539877    36A     -0.528723
      37A     -0.510424    38A     -0.503321    39A     -0.495787
      40A     -0.487246    41A     -0.480337    42A     -0.473000
      43A     -0.462075    44A     -0.456161    45A     -0.418474

  @DF-RHF Final Energy:  -821.77677040123456

   => Energetics <=

    Nuclear Repulsion Energy =            706.8527257867064009
    One-Electron Energy =               -2530.4556250895075209
    Two-Electron Energy =                1001.8261289015666762
    Total Energy =                       -821.7767704012345575
  Basis Set: (AUG-CC-PVTZ AUX)
    Blend: AUG-CC-PVTZ-RI
    Molecular point group: c1

    Geometry (in Angstrom), charge = 0, multiplicity = 1:

       Center              X                  Y                   Z               Mass
    ------------   -----------------  -----------------  -----------------  -----------------
         S           -0.246662627846    -0.291177292169     0.120895398844    31.972071174400
         O           -0.275357627846    -1.481260292169    -0.749839601156    15.994914619570
         O           -0.180659627846    -0.440853292169     1.586927398844    15.994914619570
         C            1.118406372154     0.771612707831    -0.373713601156    12.000000000000
         C            2.460251372154     0.303506707831     0.195738398844    12.000000000000
         C           -1.701327627846     0.688180707831    -0.267722601156    12.000000000000
         C           -2.966669627846    -0.107860292169     0.038288398844    12.000000000000
         C            2.904300372154    -1.036036292169    -0.390285601156    12.000000000000
         C            3.508643372154     1.386067707831    -0.062465601156    12.000000000000
         C           -4.219836627846     0.705548707831    -0.273518601156    12.000000000000
         H            1.130807372154     0.792445707831    -1.469356601156     1.007825032230
         H            0.874462372154     1.772597707831     0.000900398844     1.007825032230
         H            2.319022972154     0.180793907831     1.377420098844     1.007825032230
         H           -1.640892627846     0.949901707831    -1.329760601156     1.007825032230
         H           -1.647661627846     1.601529707831     0.333703398844     1.007825032230
         H           -2.953479627846    -1.030449292169    -0.549335601156     1.007825032230
         H           -2.953806627846    -0.396567292169     1.093841398844     1.007825032230
         H            3.010612372154    -0.959627292169    -1.478109601156     1.007825032230
         H            2.191503372154    -1.835019292169    -0.179491601156     1.007825032230
         H            3.875942372154    -1.320241292169     0.025146398844     1.007825032230
         H            3.647877372154     1.542075707831    -1.137767601156     1.007825032230
         H            3.221398372154     2.341393707831     0.388235398844     1.007825032230
         H            4.472912372154     1.089083707831     0.360711398844     1.007825032230
         H           -4.254695627846     1.621627707831     0.323666398844     1.007825032230
         H           -4.254127627846     0.987589707831    -1.330137601156     1.007825032230
         H           -5.119838627846     0.125811707831    -0.051597601156     1.007825032230

  Basis Set: AUG-CC-PVTZ
    Blend: AUG-CC-PVTZ
  Basis Set: (AUG-CC-PVTZ AUX)
    Blend: AUG-CC-PVTZ-JKFIT
	 Reference Energy          =    -821.7767704012345575 [Eh]
	 Singles Energy            =      -0.0000000000000000 [Eh]
	 Same-Spin Energy          =      -0.5012519812532110 [Eh]
	 Opposite-Spin Energy      =      -1.6498276778594814 [Eh]
	 Correlation Energy        =      -2.1510796591126926 [Eh]
	 Total Energy              =    -823.9278500603472821 [Eh]

	 ================> DF-SCS-MP2 Energies <==================
	-----------------------------------------------------------
	 SCS Same-Spin Scale       =       0.3333333333333333 [-]
	 SCS Opposite-Spin Scale   =       1.2000000000000000 [-]
	 SCS Same-Spin Energy      =      -0.1670839937510703 [Eh]
	 SCS Opposite-Spin Energy  =      -1.9797932134313776 [Eh]
	 SCS Correlation Energy    =      -2.1468772071824480 [Eh]
	 SCS Total Energy          =    -823.9236476084170135 [Eh]
	-----------------------------------------------------------

  Dipole Moment: [D]
     X:    -0.2083      Y:     3.7951      Z:    -1.6101     Total:     4.1278

*** Psi4 exiting successfully. Buy a developer a beer!
