                               Psi4 1.4a3.dev225

  ==> Input File <==

--------------------------------------------------------------------------
#psi4
#
memory 32 gb

molecule  {
0 1
  S       -0.2573260    -0.3323280     0.1419150
  O       -0.2860210    -1.5224110    -0.7288200
  O       -0.1913230    -0.4820040     1.6079470
  C        1.1077430     0.7304620    -0.3526940
  C        2.4495880     0.2623560     0.2167580
  C       -1.7119910     0.6470300    -0.2467030
  C       -2.9773330    -0.1490110     0.0593080
  C        2.8936370    -1.0771870    -0.3692660
  C        3.4979800     1.3449170    -0.0414460
  C       -4.2305000     0.6643980    -0.2524990
  H        1.1178809     0.7474930    -1.2483859
  H        0.8637990     1.7314470     0.0219200
  H        2.3201640     0.1499000     1.2996700
  H       -1.6515560     0.9087510    -1.3087410
  H       -1.6583250     1.5603790     0.3547230
  H       -2.9641430    -1.0716000    -0.5283160
  H       -2.9644700    -0.4377180     1.1148610
  H        2.9999490    -1.0007780    -1.4570900
  H        2.1808400    -1.8761700    -0.1584720
  H        3.8652790    -1.3613920     0.0461660
  H        3.6372140     1.5009250    -1.1167480
  H        3.2107350     2.3002430     0.4092550
  H        4.4622490     1.0479330     0.3817310
  H       -4.2653590     1.5804770     0.3446860
  H       -4.2647910     0.9464390    -1.3091180
  H       -5.1305020     0.0846610    -0.0305780
units angstrom
no_reorient  #important for SAPT in psi4, default
symmetry c1  #important for SAPT in psi4, default
}

set PROPERTIES_ORIGIN ["COM"]
properties('MP2/aug-cc-pvtz', properties = ['dipole'])
--------------------------------------------------------------------------

    Molecular point group: c1
  Charge       = 0
  Multiplicity = 1
  Basis Set: AUG-CC-PVTZ
    Blend: AUG-CC-PVTZ
  Basis Set: (AUG-CC-PVTZ AUX)
    Blend: AUG-CC-PVTZ-JKFIT

    Orbital Energies [Eh]
    ---------------------

    Doubly Occupied:

       1A    -92.169569     2A    -20.535381     3A    -20.534557
       4A    -11.275004     5A    -11.250960     6A    -11.245427
       7A    -11.241534     8A    -11.229735     9A    -11.226811
      10A    -11.212905    11A     -9.140135    12A     -6.824511
      13A     -6.824113    14A     -6.823925    15A     -1.425786
      16A     -1.316475    17A     -1.124085    18A     -1.096436
      19A     -1.019580    20A     -0.968115    21A     -0.937833
      22A     -0.852931    23A     -0.804861    24A     -0.794805
      25A     -0.694741    26A     -0.678702    27A     -0.665720
      28A     -0.644568    29A     -0.621212    30A     -0.609763
      31A     -0.594274    32A     -0.590452    33A     -0.568372
      34A     -0.554790    35A     -0.540516    36A     -0.528723
      37A     -0.510259    38A     -0.503176    39A     -0.495955
      40A     -0.487174    41A     -0.483956    42A     -0.475204
      43A     -0.470022    44A     -0.457045    45A     -0.418133

  @DF-RHF Final Energy:  -821.75049482839836

   => Energetics <=

    Nuclear Repulsion Energy =            708.5456267169365674
    One-Electron Energy =               -2533.6557797985628895
    Two-Electron Energy =                1003.3596582532279626
    Total Energy =                       -821.7504948283983595
  Basis Set: (AUG-CC-PVTZ AUX)
    Blend: AUG-CC-PVTZ-RI
    Molecular point group: c1

    Geometry (in Angstrom), charge = 0, multiplicity = 1:

       Center              X                  Y                   Z               Mass
    ------------   -----------------  -----------------  -----------------  -----------------
         S           -0.246721230630    -0.291216937632     0.120273941416    31.972071174400
         O           -0.275416230630    -1.481299937632    -0.750461058584    15.994914619570
         O           -0.180718230630    -0.440892937632     1.586305941416    15.994914619570
         C            1.118347769370     0.771573062368    -0.374335058584    12.000000000000
         C            2.460192769370     0.303467062368     0.195116941416    12.000000000000
         C           -1.701386230630     0.688141062368    -0.268344058584    12.000000000000
         C           -2.966728230630    -0.107899937632     0.037666941416    12.000000000000
         C            2.904241769370    -1.036075937632    -0.390907058584    12.000000000000
         C            3.508584769370     1.386028062368    -0.063087058584    12.000000000000
         C           -4.219895230630     0.705509062368    -0.274140058584    12.000000000000
         H            1.128485669370     0.788604062368    -1.270026958584     1.007825032230
         H            0.874403769370     1.772558062368     0.000278941416     1.007825032230
         H            2.330768769370     0.191011062368     1.278028941416     1.007825032230
         H           -1.640951230630     0.949862062368    -1.330382058584     1.007825032230
         H           -1.647720230630     1.601490062368     0.333081941416     1.007825032230
         H           -2.953538230630    -1.030488937632    -0.549957058584     1.007825032230
         H           -2.953865230630    -0.396606937632     1.093219941416     1.007825032230
         H            3.010553769370    -0.959666937632    -1.478731058584     1.007825032230
         H            2.191444769370    -1.835058937632    -0.180113058584     1.007825032230
         H            3.875883769370    -1.320280937632     0.024524941416     1.007825032230
         H            3.647818769370     1.542036062368    -1.138389058584     1.007825032230
         H            3.221339769370     2.341354062368     0.387613941416     1.007825032230
         H            4.472853769370     1.089044062368     0.360089941416     1.007825032230
         H           -4.254754230630     1.621588062368     0.323044941416     1.007825032230
         H           -4.254186230630     0.987550062368    -1.330759058584     1.007825032230
         H           -5.119897230630     0.125772062368    -0.052219058584     1.007825032230

  Basis Set: AUG-CC-PVTZ
    Blend: AUG-CC-PVTZ
  Basis Set: (AUG-CC-PVTZ AUX)
    Blend: AUG-CC-PVTZ-JKFIT
	 Reference Energy          =    -821.7504948283983595 [Eh]
	 Singles Energy            =      -0.0000000000000000 [Eh]
	 Same-Spin Energy          =      -0.5007844328430076 [Eh]
	 Opposite-Spin Energy      =      -1.6480530463342831 [Eh]
	 Correlation Energy        =      -2.1488374791772906 [Eh]
	 Total Energy              =    -823.8993323075756052 [Eh]

	 ================> DF-SCS-MP2 Energies <==================
	-----------------------------------------------------------
	 SCS Same-Spin Scale       =       0.3333333333333333 [-]
	 SCS Opposite-Spin Scale   =       1.2000000000000000 [-]
	 SCS Same-Spin Energy      =      -0.1669281442810025 [Eh]
	 SCS Opposite-Spin Energy  =      -1.9776636556011395 [Eh]
	 SCS Correlation Energy    =      -2.1445917998821420 [Eh]
	 SCS Total Energy          =    -823.8950866282805237 [Eh]
	-----------------------------------------------------------

  Dipole Moment: [D]
     X:    -0.2238      Y:     3.8148      Z:    -1.5989     Total:     4.1424

*** Psi4 exiting successfully. Buy a developer a beer!
