                               Psi4 1.4a3.dev225

  ==> Input File <==

--------------------------------------------------------------------------
#psi4
#
memory 32 gb

molecule  {
0 1
  S       -0.2573260    -0.3323280     0.1419150
  O       -0.2860210    -1.5224110    -0.7288200
  O       -0.1913230    -0.4820040     1.6079470
  C        1.1077430     0.7304620    -0.3526940
  C        2.4556231     0.3553895     0.2689865
  C       -1.7119910     0.6470300    -0.2467030
  C       -2.9773330    -0.1490110     0.0593080
  C        2.8936370    -1.0771870    -0.3692660
  C        3.4979800     1.3449170    -0.0414460
  C       -4.2305000     0.6643980    -0.2524990
  H        1.1201440     0.7512950    -1.4483370
  H        0.8637990     1.7314470     0.0219200
  H        2.3201640     0.1499000     1.2996700
  H       -1.6515560     0.9087510    -1.3087410
  H       -1.6583250     1.5603790     0.3547230
  H       -2.9641430    -1.0716000    -0.5283160
  H       -2.9644700    -0.4377180     1.1148610
  H        2.9999490    -1.0007780    -1.4570900
  H        2.1808400    -1.8761700    -0.1584720
  H        3.8652790    -1.3613920     0.0461660
  H        3.6372140     1.5009250    -1.1167480
  H        3.2107350     2.3002430     0.4092550
  H        4.4622490     1.0479330     0.3817310
  H       -4.2653590     1.5804770     0.3446860
  H       -4.2647910     0.9464390    -1.3091180
  H       -5.1305020     0.0846610    -0.0305780
units angstrom
no_reorient  #important for SAPT in psi4, default
symmetry c1  #important for SAPT in psi4, default
}

set PROPERTIES_ORIGIN ["COM"]
properties('MP2/aug-cc-pvtz', properties = ['dipole'])
--------------------------------------------------------------------------

    Molecular point group: c1
  Charge       = 0
  Multiplicity = 1
  Basis Set: AUG-CC-PVTZ
    Blend: AUG-CC-PVTZ
  Basis Set: (AUG-CC-PVTZ AUX)
    Blend: AUG-CC-PVTZ-JKFIT

    Orbital Energies [Eh]
    ---------------------

    Doubly Occupied:

       1A    -92.171421     2A    -20.535896     3A    -20.534959
       4A    -11.275446     5A    -11.273465     6A    -11.245811
       7A    -11.241801     8A    -11.229943     9A    -11.225346
      10A    -11.214544    11A     -9.141731    12A     -6.826105
      13A     -6.825760    14A     -6.825527    15A     -1.426142
      16A     -1.316926    17A     -1.115741    18A     -1.096419
      19A     -1.014284    20A     -0.962158    21A     -0.929726
      22A     -0.851678    23A     -0.807420    24A     -0.782824
      25A     -0.688622    26A     -0.675319    27A     -0.663186
      28A     -0.642806    29A     -0.618759    30A     -0.603265
      31A     -0.592071    32A     -0.581106    33A     -0.568596
      34A     -0.562649    35A     -0.537451    36A     -0.527793
      37A     -0.514173    38A     -0.507401    39A     -0.497147
      40A     -0.492861    41A     -0.478762    42A     -0.475991
      43A     -0.457154    44A     -0.446729    45A     -0.421348

  @DF-RHF Final Energy:  -821.77353271349284

   => Energetics <=

    Nuclear Repulsion Energy =            706.7250034163217833
    One-Electron Energy =               -2530.1485492925676226
    Two-Electron Energy =                1001.6500131627531118
    Total Energy =                       -821.7735327134928411
  Basis Set: (AUG-CC-PVTZ AUX)
    Blend: AUG-CC-PVTZ-RI
    Molecular point group: c1

    Geometry (in Angstrom), charge = 0, multiplicity = 1:

       Center              X                  Y                   Z               Mass
    ------------   -----------------  -----------------  -----------------  -----------------
         S           -0.247176488895    -0.298044005356     0.117682474605    31.972071174400
         O           -0.275871488895    -1.488127005356    -0.753052525395    15.994914619570
         O           -0.181173488895    -0.447720005356     1.583714474605    15.994914619570
         C            1.117892511105     0.764745994644    -0.376926525395    12.000000000000
         C            2.465772611105     0.389673494644     0.244753974605    12.000000000000
         C           -1.701841488895     0.681313994644    -0.270935525395    12.000000000000
         C           -2.967183488895    -0.114727005356     0.035075474605    12.000000000000
         C            2.903786511105    -1.042903005356    -0.393498525395    12.000000000000
         C            3.508129511105     1.379200994644    -0.065678525395    12.000000000000
         C           -4.220350488895     0.698681994644    -0.276731525395    12.000000000000
         H            1.130293511105     0.785578994644    -1.472569525395     1.007825032230
         H            0.873948511105     1.765730994644    -0.002312525395     1.007825032230
         H            2.330313511105     0.184183994644     1.275437474605     1.007825032230
         H           -1.641406488895     0.943034994644    -1.332973525395     1.007825032230
         H           -1.648175488895     1.594662994644     0.330490474605     1.007825032230
         H           -2.953993488895    -1.037316005356    -0.552548525395     1.007825032230
         H           -2.954320488895    -0.403434005356     1.090628474605     1.007825032230
         H            3.010098511105    -0.966494005356    -1.481322525395     1.007825032230
         H            2.190989511105    -1.841886005356    -0.182704525395     1.007825032230
         H            3.875428511105    -1.327108005356     0.021933474605     1.007825032230
         H            3.647363511105     1.535208994644    -1.140980525395     1.007825032230
         H            3.220884511105     2.334526994644     0.385022474605     1.007825032230
         H            4.472398511105     1.082216994644     0.357498474605     1.007825032230
         H           -4.255209488895     1.614760994644     0.320453474605     1.007825032230
         H           -4.254641488895     0.980722994644    -1.333350525395     1.007825032230
         H           -5.120352488895     0.118944994644    -0.054810525395     1.007825032230

  Basis Set: AUG-CC-PVTZ
    Blend: AUG-CC-PVTZ
  Basis Set: (AUG-CC-PVTZ AUX)
    Blend: AUG-CC-PVTZ-JKFIT
	 Reference Energy          =    -821.7735327134928411 [Eh]
	 Singles Energy            =      -0.0000000000000000 [Eh]
	 Same-Spin Energy          =      -0.5011248116571493 [Eh]
	 Opposite-Spin Energy      =      -1.6493520561453183 [Eh]
	 Correlation Energy        =      -2.1504768678024675 [Eh]
	 Total Energy              =    -823.9240095812953086 [Eh]

	 ================> DF-SCS-MP2 Energies <==================
	-----------------------------------------------------------
	 SCS Same-Spin Scale       =       0.3333333333333333 [-]
	 SCS Opposite-Spin Scale   =       1.2000000000000000 [-]
	 SCS Same-Spin Energy      =      -0.1670416038857164 [Eh]
	 SCS Opposite-Spin Energy  =      -1.9792224673743819 [Eh]
	 SCS Correlation Energy    =      -2.1462640712600982 [Eh]
	 SCS Total Energy          =    -823.9197967847529753 [Eh]
	-----------------------------------------------------------

  Dipole Moment: [D]
     X:    -0.2351      Y:     3.8544      Z:    -1.5613     Total:     4.1652

*** Psi4 exiting successfully. Buy a developer a beer!
