                               Psi4 1.4a3.dev225

  ==> Input File <==

--------------------------------------------------------------------------
#psi4
#
memory 32 gb

molecule  {
0 1
  S       -0.2573260    -0.3323280     0.1419150
  O       -0.2860210    -1.5224110    -0.7288200
  O       -0.1913230    -0.4820040     1.6079470
  C        1.1077430     0.7304620    -0.3526940
  C        2.4495880     0.2623560     0.2167580
  C       -1.7119910     0.6470300    -0.2467030
  C       -2.9773330    -0.1490110     0.0593080
  C        2.7562523    -1.1374465    -0.3137975
  C        3.4979800     1.3449170    -0.0414460
  C       -4.2305000     0.6643980    -0.2524990
  H        1.1201440     0.7512950    -1.4483370
  H        0.8637990     1.7314470     0.0219200
  H        2.3201640     0.1499000     1.2996700
  H       -1.6515560     0.9087510    -1.3087410
  H       -1.6583250     1.5603790     0.3547230
  H       -2.9641430    -1.0716000    -0.5283160
  H       -2.9644700    -0.4377180     1.1148610
  H        2.9999490    -1.0007780    -1.4570900
  H        2.1808400    -1.8761700    -0.1584720
  H        3.8652790    -1.3613920     0.0461660
  H        3.6372140     1.5009250    -1.1167480
  H        3.2107350     2.3002430     0.4092550
  H        4.4622490     1.0479330     0.3817310
  H       -4.2653590     1.5804770     0.3446860
  H       -4.2647910     0.9464390    -1.3091180
  H       -5.1305020     0.0846610    -0.0305780
units angstrom
no_reorient  #important for SAPT in psi4, default
symmetry c1  #important for SAPT in psi4, default
}

set PROPERTIES_ORIGIN ["COM"]
properties('MP2/aug-cc-pvtz', properties = ['dipole'])
--------------------------------------------------------------------------

    Molecular point group: c1
  Charge       = 0
  Multiplicity = 1
  Basis Set: AUG-CC-PVTZ
    Blend: AUG-CC-PVTZ
  Basis Set: (AUG-CC-PVTZ AUX)
    Blend: AUG-CC-PVTZ-JKFIT

    Orbital Energies [Eh]
    ---------------------

    Doubly Occupied:

       1A    -92.170415     2A    -20.535928     3A    -20.535295
       4A    -11.274946     5A    -11.272334     6A    -11.249443
       7A    -11.241565     8A    -11.231081     9A    -11.229758
      10A    -11.218740    11A     -9.140934    12A     -6.825315
      13A     -6.824912    14A     -6.824722    15A     -1.426422
      16A     -1.317159    17A     -1.116856    18A     -1.096404
      19A     -1.012614    20A     -0.959801    21A     -0.945956
      22A     -0.850669    23A     -0.805876    24A     -0.780570
      25A     -0.689650    26A     -0.676752    27A     -0.663468
      28A     -0.648492    29A     -0.623062    30A     -0.611546
      31A     -0.591651    32A     -0.581777    33A     -0.568351
      34A     -0.555585    35A     -0.536292    36A     -0.523595
      37A     -0.521526    38A     -0.507561    39A     -0.497175
      40A     -0.484270    41A     -0.474424    42A     -0.469263
      43A     -0.461251    44A     -0.456547    45A     -0.419217

  @DF-RHF Final Energy:  -821.75090306378468

   => Energetics <=

    Nuclear Repulsion Energy =            708.6445236205272522
    One-Electron Energy =               -2533.8925112595284190
    Two-Electron Energy =                1003.4970845752164905
    Total Energy =                       -821.7509030637846763
  Basis Set: (AUG-CC-PVTZ AUX)
    Blend: AUG-CC-PVTZ-RI
    Molecular point group: c1

    Geometry (in Angstrom), charge = 0, multiplicity = 1:

       Center              X                  Y                   Z               Mass
    ------------   -----------------  -----------------  -----------------  -----------------
         S           -0.236687927696    -0.286833398370     0.117445527278    31.972071174400
         O           -0.265382927696    -1.476916398370    -0.753289472722    15.994914619570
         O           -0.170684927696    -0.436509398370     1.583477527278    15.994914619570
         C            1.128381072304     0.775956601630    -0.377163472722    12.000000000000
         C            2.470226072304     0.307850601630     0.192288527278    12.000000000000
         C           -1.691352927696     0.692524601630    -0.271172472722    12.000000000000
         C           -2.956694927696    -0.103516398370     0.034838527278    12.000000000000
         C            2.776890372304    -1.091951898370    -0.338266972722    12.000000000000
         C            3.518618072304     1.390411601630    -0.065915472722    12.000000000000
         C           -4.209861927696     0.709892601630    -0.276968472722    12.000000000000
         H            1.140782072304     0.796789601630    -1.472806472722     1.007825032230
         H            0.884437072304     1.776941601630    -0.002549472722     1.007825032230
         H            2.340802072304     0.195394601630     1.275200527278     1.007825032230
         H           -1.630917927696     0.954245601630    -1.333210472722     1.007825032230
         H           -1.637686927696     1.605873601630     0.330253527278     1.007825032230
         H           -2.943504927696    -1.026105398370    -0.552785472722     1.007825032230
         H           -2.943831927696    -0.392223398370     1.090391527278     1.007825032230
         H            3.020587072304    -0.955283398370    -1.481559472722     1.007825032230
         H            2.201478072304    -1.830675398370    -0.182941472722     1.007825032230
         H            3.885917072304    -1.315897398370     0.021696527278     1.007825032230
         H            3.657852072304     1.546419601630    -1.141217472722     1.007825032230
         H            3.231373072304     2.345737601630     0.384785527278     1.007825032230
         H            4.482887072304     1.093427601630     0.357261527278     1.007825032230
         H           -4.244720927696     1.625971601630     0.320216527278     1.007825032230
         H           -4.244152927696     0.991933601630    -1.333587472722     1.007825032230
         H           -5.109863927696     0.130155601630    -0.055047472722     1.007825032230

  Basis Set: AUG-CC-PVTZ
    Blend: AUG-CC-PVTZ
  Basis Set: (AUG-CC-PVTZ AUX)
    Blend: AUG-CC-PVTZ-JKFIT
	 Reference Energy          =    -821.7509030637846763 [Eh]
	 Singles Energy            =      -0.0000000000000000 [Eh]
	 Same-Spin Energy          =      -0.5015560163653063 [Eh]
	 Opposite-Spin Energy      =      -1.6504308986065250 [Eh]
	 Correlation Energy        =      -2.1519869149718316 [Eh]
	 Total Energy              =    -823.9028899787565479 [Eh]

	 ================> DF-SCS-MP2 Energies <==================
	-----------------------------------------------------------
	 SCS Same-Spin Scale       =       0.3333333333333333 [-]
	 SCS Opposite-Spin Scale   =       1.2000000000000000 [-]
	 SCS Same-Spin Energy      =      -0.1671853387884354 [Eh]
	 SCS Opposite-Spin Energy  =      -1.9805170783278299 [Eh]
	 SCS Correlation Energy    =      -2.1477024171162653 [Eh]
	 SCS Total Energy          =    -823.8986054809009829 [Eh]
	-----------------------------------------------------------

  Dipole Moment: [D]
     X:    -0.2078      Y:     3.8858      Z:    -1.5367     Total:     4.1838

*** Psi4 exiting successfully. Buy a developer a beer!
