                               Psi4 1.4a3.dev225

  ==> Input File <==

--------------------------------------------------------------------------
#psi4
#
memory 32 gb

molecule  {
0 1
  S       -0.2573260    -0.3323280     0.1419150
  O       -0.2860210    -1.5224110    -0.7288200
  O       -0.2775528    -0.4260577     1.6139254
  C        1.1077430     0.7304620    -0.3526940
  C        2.4495880     0.2623560     0.2167580
  C       -1.7119910     0.6470300    -0.2467030
  C       -2.9773330    -0.1490110     0.0593080
  C        2.8936370    -1.0771870    -0.3692660
  C        3.4979800     1.3449170    -0.0414460
  C       -4.2305000     0.6643980    -0.2524990
  H        1.1201440     0.7512950    -1.4483370
  H        0.8637990     1.7314470     0.0219200
  H        2.3201640     0.1499000     1.2996700
  H       -1.6515560     0.9087510    -1.3087410
  H       -1.6583250     1.5603790     0.3547230
  H       -2.9641430    -1.0716000    -0.5283160
  H       -2.9644700    -0.4377180     1.1148610
  H        2.9999490    -1.0007780    -1.4570900
  H        2.1808400    -1.8761700    -0.1584720
  H        3.8652790    -1.3613920     0.0461660
  H        3.6372140     1.5009250    -1.1167480
  H        3.2107350     2.3002430     0.4092550
  H        4.4622490     1.0479330     0.3817310
  H       -4.2653590     1.5804770     0.3446860
  H       -4.2647910     0.9464390    -1.3091180
  H       -5.1305020     0.0846610    -0.0305780
units angstrom
no_reorient  #important for SAPT in psi4, default
symmetry c1  #important for SAPT in psi4, default
}

set PROPERTIES_ORIGIN ["COM"]
properties('MP2/aug-cc-pvtz', properties = ['dipole'])
--------------------------------------------------------------------------

    Molecular point group: c1
  Charge       = 0
  Multiplicity = 1
  Basis Set: AUG-CC-PVTZ
    Blend: AUG-CC-PVTZ
  Basis Set: (AUG-CC-PVTZ AUX)
    Blend: AUG-CC-PVTZ-JKFIT

    Orbital Energies [Eh]
    ---------------------

    Doubly Occupied:

       1A    -92.170468     2A    -20.537945     3A    -20.535721
       4A    -11.275924     5A    -11.269905     6A    -11.248806
       7A    -11.238514     8A    -11.228258     9A    -11.227517
      10A    -11.214924    11A     -9.140909    12A     -6.825286
      13A     -6.824934    14A     -6.824658    15A     -1.426481
      16A     -1.319576    17A     -1.117231    18A     -1.092766
      19A     -1.012869    20A     -0.959392    21A     -0.939549
      22A     -0.849336    23A     -0.803951    24A     -0.780419
      25A     -0.688005    26A     -0.674872    27A     -0.662308
      28A     -0.643433    29A     -0.620464    30A     -0.606350
      31A     -0.589411    32A     -0.582556    33A     -0.566185
      34A     -0.555178    35A     -0.541152    36A     -0.527094
      37A     -0.509161    38A     -0.503582    39A     -0.494323
      40A     -0.488262    41A     -0.483864    42A     -0.476667
      43A     -0.470647    44A     -0.458447    45A     -0.417129

  @DF-RHF Final Energy:  -821.78185777245972

   => Energetics <=

    Nuclear Repulsion Energy =            707.2945237986481288
    One-Electron Energy =               -2531.3039050397642313
    Two-Electron Energy =                1002.2275234686562726
    Total Energy =                       -821.7818577724597162
  Basis Set: (AUG-CC-PVTZ AUX)
    Blend: AUG-CC-PVTZ-RI
    Molecular point group: c1

    Geometry (in Angstrom), charge = 0, multiplicity = 1:

       Center              X                  Y                   Z               Mass
    ------------   -----------------  -----------------  -----------------  -----------------
         S           -0.238329605255    -0.296693833972     0.120919279932    31.972071174400
         O           -0.267024605255    -1.486776833972    -0.749815720068    15.994914619570
         O           -0.258556405255    -0.390423533972     1.592929679932    15.994914619570
         C            1.126739394745     0.766096166028    -0.373689720068    12.000000000000
         C            2.468584394745     0.297990166028     0.195762279932    12.000000000000
         C           -1.692994605255     0.682664166028    -0.267698720068    12.000000000000
         C           -2.958336605255    -0.113376833972     0.038312279932    12.000000000000
         C            2.912633394745    -1.041552833972    -0.390261720068    12.000000000000
         C            3.516976394745     1.380551166028    -0.062441720068    12.000000000000
         C           -4.211503605255     0.700032166028    -0.273494720068    12.000000000000
         H            1.139140394745     0.786929166028    -1.469332720068     1.007825032230
         H            0.882795394745     1.767081166028     0.000924279932     1.007825032230
         H            2.339160394745     0.185534166028     1.278674279932     1.007825032230
         H           -1.632559605255     0.944385166028    -1.329736720068     1.007825032230
         H           -1.639328605255     1.596013166028     0.333727279932     1.007825032230
         H           -2.945146605255    -1.035965833972    -0.549311720068     1.007825032230
         H           -2.945473605255    -0.402083833972     1.093865279932     1.007825032230
         H            3.018945394745    -0.965143833972    -1.478085720068     1.007825032230
         H            2.199836394745    -1.840535833972    -0.179467720068     1.007825032230
         H            3.884275394745    -1.325757833972     0.025170279932     1.007825032230
         H            3.656210394745     1.536559166028    -1.137743720068     1.007825032230
         H            3.229731394745     2.335877166028     0.388259279932     1.007825032230
         H            4.481245394745     1.083567166028     0.360735279932     1.007825032230
         H           -4.246362605255     1.616111166028     0.323690279932     1.007825032230
         H           -4.245794605255     0.982073166028    -1.330113720068     1.007825032230
         H           -5.111505605255     0.120295166028    -0.051573720068     1.007825032230

  Basis Set: AUG-CC-PVTZ
    Blend: AUG-CC-PVTZ
  Basis Set: (AUG-CC-PVTZ AUX)
    Blend: AUG-CC-PVTZ-JKFIT
	 Reference Energy          =    -821.7818577724597162 [Eh]
	 Singles Energy            =      -0.0000000000000000 [Eh]
	 Same-Spin Energy          =      -0.5011619719589177 [Eh]
	 Opposite-Spin Energy      =      -1.6492110980902019 [Eh]
	 Correlation Energy        =      -2.1503730700491195 [Eh]
	 Total Energy              =    -823.9322308425088295 [Eh]

	 ================> DF-SCS-MP2 Energies <==================
	-----------------------------------------------------------
	 SCS Same-Spin Scale       =       0.3333333333333333 [-]
	 SCS Opposite-Spin Scale   =       1.2000000000000000 [-]
	 SCS Same-Spin Energy      =      -0.1670539906529726 [Eh]
	 SCS Opposite-Spin Energy  =      -1.9790533177082423 [Eh]
	 SCS Correlation Energy    =      -2.1461073083612150 [Eh]
	 SCS Total Energy          =    -823.9279650808209681 [Eh]
	-----------------------------------------------------------

  Dipole Moment: [D]
     X:     0.1049      Y:     3.6650      Z:    -1.5952     Total:     3.9985

*** Psi4 exiting successfully. Buy a developer a beer!
