                               Psi4 1.4a3.dev225

  ==> Input File <==

--------------------------------------------------------------------------
#psi4
#
memory 32 gb

molecule  {
0 1
  S       -0.2573260    -0.3323280     0.1419150
  O       -0.2860210    -1.5224110    -0.7288200
  O       -0.1913230    -0.4820040     1.6079470
  C        1.1077430     0.7304620    -0.3526940
  C        2.4495880     0.2623560     0.2167580
  C       -1.7119910     0.6470300    -0.2467030
  C       -2.9773330    -0.1490110     0.0593080
  C        2.8936370    -1.0771870    -0.3692660
  C        3.4979800     1.3449170    -0.0414460
  C       -4.2305000     0.6643980    -0.2524990
  H        1.1201440     0.7512950    -1.4483370
  H        0.8637990     1.7314470     0.0219200
  H        2.3201640     0.1499000     1.2996700
  H       -1.6515560     0.9087510    -1.3087410
  H       -1.6583250     1.5603790     0.3547230
  H       -2.9641430    -1.0716000    -0.5283160
  H       -2.9644700    -0.4377180     1.1148610
  H        2.9999490    -1.0007780    -1.4570900
  H        2.2461576    -1.8029546    -0.1777883
  H        3.8652790    -1.3613920     0.0461660
  H        3.6372140     1.5009250    -1.1167480
  H        3.2107350     2.3002430     0.4092550
  H        4.4622490     1.0479330     0.3817310
  H       -4.2653590     1.5804770     0.3446860
  H       -4.2647910     0.9464390    -1.3091180
  H       -5.1305020     0.0846610    -0.0305780
units angstrom
no_reorient  #important for SAPT in psi4, default
symmetry c1  #important for SAPT in psi4, default
}

set PROPERTIES_ORIGIN ["COM"]
properties('MP2/aug-cc-pvtz', properties = ['dipole'])
--------------------------------------------------------------------------

    Molecular point group: c1
  Charge       = 0
  Multiplicity = 1
  Basis Set: AUG-CC-PVTZ
    Blend: AUG-CC-PVTZ
  Basis Set: (AUG-CC-PVTZ AUX)
    Blend: AUG-CC-PVTZ-JKFIT

    Orbital Energies [Eh]
    ---------------------

    Doubly Occupied:

       1A    -92.170245     2A    -20.535663     3A    -20.535113
       4A    -11.274838     5A    -11.273663     6A    -11.246002
       7A    -11.241478     8A    -11.229685     9A    -11.226290
      10A    -11.201527    11A     -9.140730    12A     -6.825118
      13A     -6.824708    14A     -6.824519    15A     -1.425997
      16A     -1.316771    17A     -1.116419    18A     -1.096300
      19A     -1.014179    20A     -0.961081    21A     -0.945755
      22A     -0.851143    23A     -0.805745    24A     -0.780175
      25A     -0.688184    26A     -0.676163    27A     -0.663744
      28A     -0.644265    29A     -0.620012    30A     -0.611658
      31A     -0.591634    32A     -0.583338    33A     -0.568259
      34A     -0.554658    35A     -0.539584    36A     -0.530531
      37A     -0.511032    38A     -0.505742    39A     -0.496430
      40A     -0.487630    41A     -0.483263    42A     -0.475724
      43A     -0.471313    44A     -0.456511    45A     -0.419076

  @DF-RHF Final Energy:  -821.77751559397234

   => Energetics <=

    Nuclear Repulsion Energy =            707.6753898733461483
    One-Electron Energy =               -2532.0220240060311880
    Two-Electron Energy =                1002.5691185387127007
    Total Energy =                       -821.7775155939723390
  Basis Set: (AUG-CC-PVTZ AUX)
    Blend: AUG-CC-PVTZ-RI
    Molecular point group: c1

    Geometry (in Angstrom), charge = 0, multiplicity = 1:

       Center              X                  Y                   Z               Mass
    ------------   -----------------  -----------------  -----------------  -----------------
         S           -0.247136312137    -0.291689979468     0.121620684537    31.972071174400
         O           -0.275831312137    -1.481772979468    -0.749114315463    15.994914619570
         O           -0.181133312137    -0.441365979468     1.587652684537    15.994914619570
         C            1.117932687863     0.771100020532    -0.372988315463    12.000000000000
         C            2.459777687863     0.302994020532     0.196463684537    12.000000000000
         C           -1.701801312137     0.687668020532    -0.266997315463    12.000000000000
         C           -2.967143312137    -0.108372979468     0.039013684537    12.000000000000
         C            2.903826687863    -1.036548979468    -0.389560315463    12.000000000000
         C            3.508169687863     1.385555020532    -0.061740315463    12.000000000000
         C           -4.220310312137     0.705036020532    -0.272793315463    12.000000000000
         H            1.130333687863     0.791933020532    -1.468631315463     1.007825032230
         H            0.873988687863     1.772085020532     0.001625684537     1.007825032230
         H            2.330353687863     0.190538020532     1.279375684537     1.007825032230
         H           -1.641366312137     0.949389020532    -1.329035315463     1.007825032230
         H           -1.648135312137     1.601017020532     0.334428684537     1.007825032230
         H           -2.953953312137    -1.030961979468    -0.548610315463     1.007825032230
         H           -2.954280312137    -0.397079979468     1.094566684537     1.007825032230
         H            3.010138687863    -0.960139979468    -1.477384315463     1.007825032230
         H            2.256347287863    -1.762316579468    -0.198082615463     1.007825032230
         H            3.875468687863    -1.320753979468     0.025871684537     1.007825032230
         H            3.647403687863     1.541563020532    -1.137042315463     1.007825032230
         H            3.220924687863     2.340881020532     0.388960684537     1.007825032230
         H            4.472438687863     1.088571020532     0.361436684537     1.007825032230
         H           -4.255169312137     1.621115020532     0.324391684537     1.007825032230
         H           -4.254601312137     0.987077020532    -1.329412315463     1.007825032230
         H           -5.120312312137     0.125299020532    -0.050872315463     1.007825032230

  Basis Set: AUG-CC-PVTZ
    Blend: AUG-CC-PVTZ
  Basis Set: (AUG-CC-PVTZ AUX)
    Blend: AUG-CC-PVTZ-JKFIT
	 Reference Energy          =    -821.7775155939723390 [Eh]
	 Singles Energy            =      -0.0000000000000000 [Eh]
	 Same-Spin Energy          =      -0.5009242028986323 [Eh]
	 Opposite-Spin Energy      =      -1.6482658360894431 [Eh]
	 Correlation Energy        =      -2.1491900389880754 [Eh]
	 Total Energy              =    -823.9267056329604202 [Eh]

	 ================> DF-SCS-MP2 Energies <==================
	-----------------------------------------------------------
	 SCS Same-Spin Scale       =       0.3333333333333333 [-]
	 SCS Opposite-Spin Scale   =       1.2000000000000000 [-]
	 SCS Same-Spin Energy      =      -0.1669747342995441 [Eh]
	 SCS Opposite-Spin Energy  =      -1.9779190033073317 [Eh]
	 SCS Correlation Energy    =      -2.1448937376068757 [Eh]
	 SCS Total Energy          =    -823.9224093315791606 [Eh]
	-----------------------------------------------------------

  Dipole Moment: [D]
     X:    -0.2068      Y:     3.7739      Z:    -1.5721     Total:     4.0935

*** Psi4 exiting successfully. Buy a developer a beer!
