                               Psi4 1.4a3.dev225

  ==> Input File <==

--------------------------------------------------------------------------
#psi4
#
memory 32 gb

molecule  {
0 1
  S       -0.2573260    -0.3323280     0.1419150
  O       -0.2860210    -1.5224110    -0.7288200
  O       -0.1913230    -0.4820040     1.6079470
  C        1.1077430     0.7304620    -0.3526940
  C        2.4495880     0.2623560     0.2167580
  C       -1.7119910     0.6470300    -0.2467030
  C       -2.9773330    -0.1490110     0.0593080
  C        2.8936370    -1.0771870    -0.3692660
  C        3.4979800     1.3449170    -0.0414460
  C       -4.2305000     0.6643980    -0.2524990
  H        1.1201440     0.7512950    -1.4483370
  H        0.8637990     1.7314470     0.0219200
  H        2.3319684     0.1601568     1.2009003
  H       -1.6515560     0.9087510    -1.3087410
  H       -1.6583250     1.5603790     0.3547230
  H       -2.9641430    -1.0716000    -0.5283160
  H       -2.9644700    -0.4377180     1.1148610
  H        2.9999490    -1.0007780    -1.4570900
  H        2.1808400    -1.8761700    -0.1584720
  H        3.8652790    -1.3613920     0.0461660
  H        3.6372140     1.5009250    -1.1167480
  H        3.2107350     2.3002430     0.4092550
  H        4.4622490     1.0479330     0.3817310
  H       -4.2653590     1.5804770     0.3446860
  H       -4.2647910     0.9464390    -1.3091180
  H       -5.1305020     0.0846610    -0.0305780
units angstrom
no_reorient  #important for SAPT in psi4, default
symmetry c1  #important for SAPT in psi4, default
}

set PROPERTIES_ORIGIN ["COM"]
properties('MP2/aug-cc-pvtz', properties = ['dipole'])
--------------------------------------------------------------------------

    Molecular point group: c1
  Charge       = 0
  Multiplicity = 1
  Basis Set: AUG-CC-PVTZ
    Blend: AUG-CC-PVTZ
  Basis Set: (AUG-CC-PVTZ AUX)
    Blend: AUG-CC-PVTZ-JKFIT

    Orbital Energies [Eh]
    ---------------------

    Doubly Occupied:

       1A    -92.170154     2A    -20.535757     3A    -20.534713
       4A    -11.274730     5A    -11.273071     6A    -11.241408
       7A    -11.234836     8A    -11.229635     9A    -11.226342
      10A    -11.212293    11A     -9.140635    12A     -6.825020
      13A     -6.824613    14A     -6.824426    15A     -1.425924
      16A     -1.316695    17A     -1.119153    18A     -1.096626
      19A     -1.013932    20A     -0.960415    21A     -0.937407
      22A     -0.851595    23A     -0.809970    24A     -0.788010
      25A     -0.688093    26A     -0.676161    27A     -0.665684
      28A     -0.642618    29A     -0.620569    30A     -0.604919
      31A     -0.591526    32A     -0.581927    33A     -0.568183
      34A     -0.553734    35A     -0.539672    36A     -0.528564
      37A     -0.510136    38A     -0.502925    39A     -0.495931
      40A     -0.492370    41A     -0.484976    42A     -0.477747
      43A     -0.471503    44A     -0.456444    45A     -0.418073

  @DF-RHF Final Energy:  -821.77795623405052

   => Energetics <=

    Nuclear Repulsion Energy =            707.8285460733325181
    One-Electron Energy =               -2532.3347749187601039
    Two-Electron Energy =                1002.7282726113770650
    Total Energy =                       -821.7779562340505208
  Basis Set: (AUG-CC-PVTZ AUX)
    Blend: AUG-CC-PVTZ-RI
    Molecular point group: c1

    Geometry (in Angstrom), charge = 0, multiplicity = 1:

       Center              X                  Y                   Z               Mass
    ------------   -----------------  -----------------  -----------------  -----------------
         S           -0.246807633391    -0.291303286957     0.122108688317    31.972071174400
         O           -0.275502633391    -1.481386286957    -0.748626311683    15.994914619570
         O           -0.180804633391    -0.440979286957     1.588140688317    15.994914619570
         C            1.118261366609     0.771486713043    -0.372500311683    12.000000000000
         C            2.460106366609     0.303380713043     0.196951688317    12.000000000000
         C           -1.701472633391     0.688054713043    -0.266509311683    12.000000000000
         C           -2.966814633391    -0.107986286957     0.039501688317    12.000000000000
         C            2.904155366609    -1.036162286957    -0.389072311683    12.000000000000
         C            3.508498366609     1.385941713043    -0.061252311683    12.000000000000
         C           -4.219981633391     0.705422713043    -0.272305311683    12.000000000000
         H            1.130662366609     0.792319713043    -1.468143311683     1.007825032230
         H            0.874317366609     1.772471713043     0.002113688317     1.007825032230
         H            2.342486766609     0.201181513043     1.181093988317     1.007825032230
         H           -1.641037633391     0.949775713043    -1.328547311683     1.007825032230
         H           -1.647806633391     1.601403713043     0.334916688317     1.007825032230
         H           -2.953624633391    -1.030575286957    -0.548122311683     1.007825032230
         H           -2.953951633391    -0.396693286957     1.095054688317     1.007825032230
         H            3.010467366609    -0.959753286957    -1.476896311683     1.007825032230
         H            2.191358366609    -1.835145286957    -0.178278311683     1.007825032230
         H            3.875797366609    -1.320367286957     0.026359688317     1.007825032230
         H            3.647732366609     1.541949713043    -1.136554311683     1.007825032230
         H            3.221253366609     2.341267713043     0.389448688317     1.007825032230
         H            4.472767366609     1.088957713043     0.361924688317     1.007825032230
         H           -4.254840633391     1.621501713043     0.324879688317     1.007825032230
         H           -4.254272633391     0.987463713043    -1.328924311683     1.007825032230
         H           -5.119983633391     0.125685713043    -0.050384311683     1.007825032230

  Basis Set: AUG-CC-PVTZ
    Blend: AUG-CC-PVTZ
  Basis Set: (AUG-CC-PVTZ AUX)
    Blend: AUG-CC-PVTZ-JKFIT
	 Reference Energy          =    -821.7779562340505208 [Eh]
	 Singles Energy            =      -0.0000000000000000 [Eh]
	 Same-Spin Energy          =      -0.5008841361651630 [Eh]
	 Opposite-Spin Energy      =      -1.6482319107568806 [Eh]
	 Correlation Energy        =      -2.1491160469220434 [Eh]
	 Total Energy              =    -823.9270722809725385 [Eh]

	 ================> DF-SCS-MP2 Energies <==================
	-----------------------------------------------------------
	 SCS Same-Spin Scale       =       0.3333333333333333 [-]
	 SCS Opposite-Spin Scale   =       1.2000000000000000 [-]
	 SCS Same-Spin Energy      =      -0.1669613787217210 [Eh]
	 SCS Opposite-Spin Energy  =      -1.9778782929082566 [Eh]
	 SCS Correlation Energy    =      -2.1448396716299776 [Eh]
	 SCS Total Energy          =    -823.9227959056804593 [Eh]
	-----------------------------------------------------------

  Dipole Moment: [D]
     X:    -0.1991      Y:     3.8034      Z:    -1.5538     Total:     4.1134

*** Psi4 exiting successfully. Buy a developer a beer!
