                               Psi4 1.4a3.dev225

  ==> Input File <==

--------------------------------------------------------------------------
#psi4
#
memory 32 gb

molecule  {
0 1
  S       -0.2573260    -0.3323280     0.1419150
  O       -0.2860210    -1.5224110    -0.7288200
  O       -0.1913230    -0.4820040     1.6079470
  C        1.1077430     0.7304620    -0.3526940
  C        2.4495880     0.2623560     0.2167580
  C       -1.7119910     0.6470300    -0.2467030
  C       -2.9773330    -0.1490110     0.0593080
  C        2.8936370    -1.0771870    -0.3692660
  C        3.4979800     1.3449170    -0.0414460
  C       -4.2305000     0.6643980    -0.2524990
  H        1.1201440     0.7512950    -1.4483370
  H        0.8637990     1.7314470     0.0219200
  H        2.3201640     0.1499000     1.2996700
  H       -1.6543170     0.8716011    -1.3173647
  H       -1.6583250     1.5603790     0.3547230
  H       -2.9641430    -1.0716000    -0.5283160
  H       -2.9644700    -0.4377180     1.1148610
  H        2.9999490    -1.0007780    -1.4570900
  H        2.1808400    -1.8761700    -0.1584720
  H        3.8652790    -1.3613920     0.0461660
  H        3.6372140     1.5009250    -1.1167480
  H        3.2107350     2.3002430     0.4092550
  H        4.4622490     1.0479330     0.3817310
  H       -4.2653590     1.5804770     0.3446860
  H       -4.2647910     0.9464390    -1.3091180
  H       -5.1305020     0.0846610    -0.0305780
units angstrom
no_reorient  #important for SAPT in psi4, default
symmetry c1  #important for SAPT in psi4, default
}

set PROPERTIES_ORIGIN ["COM"]
properties('MP2/aug-cc-pvtz', properties = ['dipole'])
--------------------------------------------------------------------------

    Molecular point group: c1
  Charge       = 0
  Multiplicity = 1
  Basis Set: AUG-CC-PVTZ
    Blend: AUG-CC-PVTZ
  Basis Set: (AUG-CC-PVTZ AUX)
    Blend: AUG-CC-PVTZ-JKFIT

    Orbital Energies [Eh]
    ---------------------

    Doubly Occupied:

       1A    -92.169891     2A    -20.535289     3A    -20.534772
       4A    -11.274928     5A    -11.273691     6A    -11.246585
       7A    -11.241274     8A    -11.229673     9A    -11.226812
      10A    -11.212900    11A     -9.140409    12A     -6.824781
      13A     -6.824389    14A     -6.824196    15A     -1.425773
      16A     -1.316540    17A     -1.115756    18A     -1.096312
      19A     -1.013405    20A     -0.960576    21A     -0.937734
      22A     -0.850604    23A     -0.804214    24A     -0.778528
      25A     -0.687337    26A     -0.677189    27A     -0.663976
      28A     -0.642791    29A     -0.619239    30A     -0.605115
      31A     -0.590402    32A     -0.581067    33A     -0.569600
      34A     -0.553794    35A     -0.539679    36A     -0.528520
      37A     -0.509859    38A     -0.503174    39A     -0.495733
      40A     -0.487028    41A     -0.482410    42A     -0.475214
      43A     -0.470268    44A     -0.456377    45A     -0.418065

  @DF-RHF Final Energy:  -821.78341491280503

   => Energetics <=

    Nuclear Repulsion Energy =            707.3599532838360346
    One-Electron Energy =               -2531.4550027170175781
    Two-Electron Energy =                1002.3116345203764013
    Total Energy =                       -821.7834149128050285
  Basis Set: (AUG-CC-PVTZ AUX)
    Blend: AUG-CC-PVTZ-RI
    Molecular point group: c1

    Geometry (in Angstrom), charge = 0, multiplicity = 1:

       Center              X                  Y                   Z               Mass
    ------------   -----------------  -----------------  -----------------  -----------------
         S           -0.246718172522    -0.291012114411     0.121555010454    31.972071174400
         O           -0.275413172522    -1.481095114411    -0.749179989546    15.994914619570
         O           -0.180715172522    -0.440688114411     1.587587010454    15.994914619570
         C            1.118350827478     0.771777885589    -0.373053989546    12.000000000000
         C            2.460195827478     0.303671885589     0.196398010454    12.000000000000
         C           -1.701383172522     0.688345885589    -0.267062989546    12.000000000000
         C           -2.966725172522    -0.107695114411     0.038948010454    12.000000000000
         C            2.904244827478    -1.035871114411    -0.389625989546    12.000000000000
         C            3.508587827478     1.386232885589    -0.061805989546    12.000000000000
         C           -4.219892172522     0.705713885589    -0.272858989546    12.000000000000
         H            1.130751827478     0.792610885589    -1.468696989546     1.007825032230
         H            0.874406827478     1.772762885589     0.001560010454     1.007825032230
         H            2.330771827478     0.191215885589     1.279310010454     1.007825032230
         H           -1.643709172522     0.912916985589    -1.337724689546     1.007825032230
         H           -1.647717172522     1.601694885589     0.334363010454     1.007825032230
         H           -2.953535172522    -1.030284114411    -0.548675989546     1.007825032230
         H           -2.953862172522    -0.396402114411     1.094501010454     1.007825032230
         H            3.010556827478    -0.959462114411    -1.477449989546     1.007825032230
         H            2.191447827478    -1.834854114411    -0.178831989546     1.007825032230
         H            3.875886827478    -1.320076114411     0.025806010454     1.007825032230
         H            3.647821827478     1.542240885589    -1.137107989546     1.007825032230
         H            3.221342827478     2.341558885589     0.388895010454     1.007825032230
         H            4.472856827478     1.089248885589     0.361371010454     1.007825032230
         H           -4.254751172522     1.621792885589     0.324326010454     1.007825032230
         H           -4.254183172522     0.987754885589    -1.329477989546     1.007825032230
         H           -5.119894172522     0.125976885589    -0.050937989546     1.007825032230

  Basis Set: AUG-CC-PVTZ
    Blend: AUG-CC-PVTZ
  Basis Set: (AUG-CC-PVTZ AUX)
    Blend: AUG-CC-PVTZ-JKFIT
	 Reference Energy          =    -821.7834149128050285 [Eh]
	 Singles Energy            =      -0.0000000000000000 [Eh]
	 Same-Spin Energy          =      -0.5010700709722066 [Eh]
	 Opposite-Spin Energy      =      -1.6489192592735527 [Eh]
	 Correlation Energy        =      -2.1499893302457593 [Eh]
	 Total Energy              =    -823.9334042430507452 [Eh]

	 ================> DF-SCS-MP2 Energies <==================
	-----------------------------------------------------------
	 SCS Same-Spin Scale       =       0.3333333333333333 [-]
	 SCS Opposite-Spin Scale   =       1.2000000000000000 [-]
	 SCS Same-Spin Energy      =      -0.1670233569907355 [Eh]
	 SCS Opposite-Spin Energy  =      -1.9787031111282631 [Eh]
	 SCS Correlation Energy    =      -2.1457264681189985 [Eh]
	 SCS Total Energy          =    -823.9291413809240794 [Eh]
	-----------------------------------------------------------

  Dipole Moment: [D]
     X:    -0.2067      Y:     3.7903      Z:    -1.5784     Total:     4.1110

*** Psi4 exiting successfully. Buy a developer a beer!
