                               Psi4 1.4a3.dev225

  ==> Input File <==

--------------------------------------------------------------------------
#psi4
#
memory 32 gb

molecule  {
0 1
  S       -0.2573260    -0.3323280     0.1419150
  O       -0.2860210    -1.5224110    -0.7288200
  O       -0.1913230    -0.4820040     1.6079470
  C        1.1077430     0.7304620    -0.3526940
  C        2.4495880     0.2623560     0.2167580
  C       -1.7119910     0.6470300    -0.2467030
  C       -2.9773330    -0.1490110     0.0593080
  C        2.8936370    -1.0771870    -0.3692660
  C        3.4979800     1.3449170    -0.0414460
  C       -4.2305000     0.6643980    -0.2524990
  H        1.1201440     0.7512950    -1.4483370
  H        0.8637990     1.7314470     0.0219200
  H        2.3201640     0.1499000     1.2996700
  H       -1.6515560     0.9087510    -1.3087410
  H       -1.6583250     1.5603790     0.3547230
  H       -2.9641430    -1.0716000    -0.5283160
  H       -2.9644700    -0.4377180     1.1148610
  H        2.9999490    -1.0007780    -1.4570900
  H        2.1808400    -1.8761700    -0.1584720
  H        3.8652790    -1.3613920     0.0461660
  H        3.6372140     1.5009250    -1.1167480
  H        3.2107350     2.3002430     0.4092550
  H        4.4798754     1.0425043     0.3894665
  H       -4.2653590     1.5804770     0.3446860
  H       -4.2647910     0.9464390    -1.3091180
  H       -5.1305020     0.0846610    -0.0305780
units angstrom
no_reorient  #important for SAPT in psi4, default
symmetry c1  #important for SAPT in psi4, default
}

set PROPERTIES_ORIGIN ["COM"]
properties('MP2/aug-cc-pvtz', properties = ['dipole'])
--------------------------------------------------------------------------

    Molecular point group: c1
  Charge       = 0
  Multiplicity = 1
  Basis Set: AUG-CC-PVTZ
    Blend: AUG-CC-PVTZ
  Basis Set: (AUG-CC-PVTZ AUX)
    Blend: AUG-CC-PVTZ-JKFIT

    Orbital Energies [Eh]
    ---------------------

    Doubly Occupied:

       1A    -92.170269     2A    -20.535602     3A    -20.534840
       4A    -11.274868     5A    -11.273876     6A    -11.246777
       7A    -11.241486     8A    -11.229697     9A    -11.229240
      10A    -11.212898    11A     -9.140744    12A     -6.825133
      13A     -6.824724    14A     -6.824531    15A     -1.425926
      16A     -1.316688    17A     -1.115728    18A     -1.096111
      19A     -1.013256    20A     -0.960287    21A     -0.936874
      22A     -0.850471    23A     -0.804737    24A     -0.778728
      25A     -0.687670    26A     -0.675863    27A     -0.663563
      28A     -0.642706    29A     -0.619300    30A     -0.604801
      31A     -0.591459    32A     -0.580648    33A     -0.568249
      34A     -0.553729    35A     -0.537881    36A     -0.528409
      37A     -0.510189    38A     -0.503135    39A     -0.495756
      40A     -0.486848    41A     -0.482510    42A     -0.475382
      43A     -0.470534    44A     -0.456442    45A     -0.418289

  @DF-RHF Final Energy:  -821.78299424708098

   => Energetics <=

    Nuclear Repulsion Energy =            707.2233535471317509
    One-Electron Energy =               -2531.1789821054371714
    Two-Electron Energy =                1002.1726343112243285
    Total Energy =                       -821.7829942470809783
  Basis Set: (AUG-CC-PVTZ AUX)
    Blend: AUG-CC-PVTZ-RI
    Molecular point group: c1

    Geometry (in Angstrom), charge = 0, multiplicity = 1:

       Center              X                  Y                   Z               Mass
    ------------   -----------------  -----------------  -----------------  -----------------
         S           -0.246843392188    -0.291206946420     0.121454532042    31.972071174400
         O           -0.275538392188    -1.481289946420    -0.749280467958    15.994914619570
         O           -0.180840392188    -0.440882946420     1.587486532042    15.994914619570
         C            1.118225607812     0.771583053580    -0.373154467958    12.000000000000
         C            2.460070607812     0.303477053580     0.196297532042    12.000000000000
         C           -1.701508392188     0.688151053580    -0.267163467958    12.000000000000
         C           -2.966850392188    -0.107889946420     0.038847532042    12.000000000000
         C            2.904119607812    -1.036065946420    -0.389726467958    12.000000000000
         C            3.508462607812     1.386038053580    -0.061906467958    12.000000000000
         C           -4.220017392188     0.705519053580    -0.272959467958    12.000000000000
         H            1.130626607812     0.792416053580    -1.468797467958     1.007825032230
         H            0.874281607812     1.772568053580     0.001459532042     1.007825032230
         H            2.330646607812     0.191021053580     1.279209532042     1.007825032230
         H           -1.641073392188     0.949872053580    -1.329201467958     1.007825032230
         H           -1.647842392188     1.601500053580     0.334262532042     1.007825032230
         H           -2.953660392188    -1.030478946420    -0.548776467958     1.007825032230
         H           -2.953987392188    -0.396596946420     1.094400532042     1.007825032230
         H            3.010431607812    -0.959656946420    -1.477550467958     1.007825032230
         H            2.191322607812    -1.835048946420    -0.178932467958     1.007825032230
         H            3.875761607812    -1.320270946420     0.025705532042     1.007825032230
         H            3.647696607812     1.542046053580    -1.137208467958     1.007825032230
         H            3.221217607812     2.341364053580     0.388794532042     1.007825032230
         H            4.490358007812     1.083625353580     0.369006032042     1.007825032230
         H           -4.254876392188     1.621598053580     0.324225532042     1.007825032230
         H           -4.254308392188     0.987560053580    -1.329578467958     1.007825032230
         H           -5.120019392188     0.125782053580    -0.051038467958     1.007825032230

  Basis Set: AUG-CC-PVTZ
    Blend: AUG-CC-PVTZ
  Basis Set: (AUG-CC-PVTZ AUX)
    Blend: AUG-CC-PVTZ-JKFIT
	 Reference Energy          =    -821.7829942470809783 [Eh]
	 Singles Energy            =      -0.0000000000000000 [Eh]
	 Same-Spin Energy          =      -0.5010478201345304 [Eh]
	 Opposite-Spin Energy      =      -1.6490199900989184 [Eh]
	 Correlation Energy        =      -2.1500678102334487 [Eh]
	 Total Energy              =    -823.9330620573143733 [Eh]

	 ================> DF-SCS-MP2 Energies <==================
	-----------------------------------------------------------
	 SCS Same-Spin Scale       =       0.3333333333333333 [-]
	 SCS Opposite-Spin Scale   =       1.2000000000000000 [-]
	 SCS Same-Spin Energy      =      -0.1670159400448435 [Eh]
	 SCS Opposite-Spin Energy  =      -1.9788239881187020 [Eh]
	 SCS Correlation Energy    =      -2.1458399281635456 [Eh]
	 SCS Total Energy          =    -823.9288341752445604 [Eh]
	-----------------------------------------------------------

  Dipole Moment: [D]
     X:    -0.2186      Y:     3.7984      Z:    -1.5778     Total:     4.1189

*** Psi4 exiting successfully. Buy a developer a beer!
