                               Psi4 1.4a3.dev225

  ==> Input File <==

--------------------------------------------------------------------------
#psi4
#
memory 32 gb

molecule  {
0 1
  S       -0.2573260    -0.3323280     0.1419150
  O       -0.2860210    -1.5224110    -0.7288200
  O       -0.1913230    -0.4820040     1.6079470
  C        1.1077430     0.7304620    -0.3526940
  C        2.4495880     0.2623560     0.2167580
  C       -1.7119910     0.6470300    -0.2467030
  C       -2.9773330    -0.1490110     0.0593080
  C        2.8936370    -1.0771870    -0.3692660
  C        3.4979800     1.3449170    -0.0414460
  C       -4.2305000     0.6643980    -0.2524990
  H        1.1201440     0.7512950    -1.4483370
  H        0.8637990     1.7314470     0.0219200
  H        2.3201640     0.1499000     1.2996700
  H       -1.6488687     0.9455820    -1.2988234
  H       -1.6583250     1.5603790     0.3547230
  H       -2.9641430    -1.0716000    -0.5283160
  H       -2.9644700    -0.4377180     1.1148610
  H        2.9999490    -1.0007780    -1.4570900
  H        2.1808400    -1.8761700    -0.1584720
  H        3.8652790    -1.3613920     0.0461660
  H        3.6372140     1.5009250    -1.1167480
  H        3.2107350     2.3002430     0.4092550
  H        4.4622490     1.0479330     0.3817310
  H       -4.2653590     1.5804770     0.3446860
  H       -4.2647910     0.9464390    -1.3091180
  H       -5.1305020     0.0846610    -0.0305780
units angstrom
no_reorient  #important for SAPT in psi4, default
symmetry c1  #important for SAPT in psi4, default
}

set PROPERTIES_ORIGIN ["COM"]
properties('MP2/aug-cc-pvtz', properties = ['dipole'])
--------------------------------------------------------------------------

    Molecular point group: c1
  Charge       = 0
  Multiplicity = 1
  Basis Set: AUG-CC-PVTZ
    Blend: AUG-CC-PVTZ
  Basis Set: (AUG-CC-PVTZ AUX)
    Blend: AUG-CC-PVTZ-JKFIT

    Orbital Energies [Eh]
    ---------------------

    Doubly Occupied:

       1A    -92.170410     2A    -20.535730     3A    -20.534737
       4A    -11.274634     5A    -11.273728     6A    -11.246611
       7A    -11.241587     8A    -11.229628     9A    -11.226839
      10A    -11.212913    11A     -9.140849    12A     -6.825254
      13A     -6.824827    14A     -6.824637    15A     -1.425901
      16A     -1.316666    17A     -1.115749    18A     -1.095865
      19A     -1.013445    20A     -0.960495    21A     -0.937755
      22A     -0.850691    23A     -0.805698    24A     -0.778955
      25A     -0.688303    26A     -0.674501    27A     -0.663054
      28A     -0.642614    29A     -0.619275    30A     -0.605205
      31A     -0.592591    32A     -0.581084    33A     -0.566667
      34A     -0.553845    35A     -0.539703    36A     -0.528705
      37A     -0.510642    38A     -0.502915    39A     -0.495578
      40A     -0.487366    41A     -0.482422    42A     -0.475453
      43A     -0.470551    44A     -0.456331    45A     -0.418423

  @DF-RHF Final Energy:  -821.78334216278529

   => Energetics <=

    Nuclear Repulsion Energy =            707.2744875370126465
    One-Electron Energy =               -2531.2779907613185060
    Two-Electron Energy =                1002.2201610615205709
    Total Energy =                       -821.7833421627852886
  Basis Set: (AUG-CC-PVTZ AUX)
    Blend: AUG-CC-PVTZ-RI
    Molecular point group: c1

    Geometry (in Angstrom), charge = 0, multiplicity = 1:

       Center              X                  Y                   Z               Mass
    ------------   -----------------  -----------------  -----------------  -----------------
         S           -0.246751636049    -0.291466506027     0.121441129557    31.972071174400
         O           -0.275446636049    -1.481549506027    -0.749293870443    15.994914619570
         O           -0.180748636049    -0.441142506027     1.587473129557    15.994914619570
         C            1.118317363951     0.771323493973    -0.373167870443    12.000000000000
         C            2.460162363951     0.303217493973     0.196284129557    12.000000000000
         C           -1.701416636049     0.687891493973    -0.267176870443    12.000000000000
         C           -2.966758636049    -0.108149506027     0.038834129557    12.000000000000
         C            2.904211363951    -1.036325506027    -0.389739870443    12.000000000000
         C            3.508554363951     1.385778493973    -0.061919870443    12.000000000000
         C           -4.219925636049     0.705259493973    -0.272972870443    12.000000000000
         H            1.130718363951     0.792156493973    -1.468810870443     1.007825032230
         H            0.874373363951     1.772308493973     0.001446129557     1.007825032230
         H            2.330738363951     0.190761493973     1.279196129557     1.007825032230
         H           -1.638294336049     0.986443493973    -1.319297270443     1.007825032230
         H           -1.647750636049     1.601240493973     0.334249129557     1.007825032230
         H           -2.953568636049    -1.030738506027    -0.548789870443     1.007825032230
         H           -2.953895636049    -0.396856506027     1.094387129557     1.007825032230
         H            3.010523363951    -0.959916506027    -1.477563870443     1.007825032230
         H            2.191414363951    -1.835308506027    -0.178945870443     1.007825032230
         H            3.875853363951    -1.320530506027     0.025692129557     1.007825032230
         H            3.647788363951     1.541786493973    -1.137221870443     1.007825032230
         H            3.221309363951     2.341104493973     0.388781129557     1.007825032230
         H            4.472823363951     1.088794493973     0.361257129557     1.007825032230
         H           -4.254784636049     1.621338493973     0.324212129557     1.007825032230
         H           -4.254216636049     0.987300493973    -1.329591870443     1.007825032230
         H           -5.119927636049     0.125522493973    -0.051051870443     1.007825032230

  Basis Set: AUG-CC-PVTZ
    Blend: AUG-CC-PVTZ
  Basis Set: (AUG-CC-PVTZ AUX)
    Blend: AUG-CC-PVTZ-JKFIT
	 Reference Energy          =    -821.7833421627852886 [Eh]
	 Singles Energy            =      -0.0000000000000000 [Eh]
	 Same-Spin Energy          =      -0.5010325610441854 [Eh]
	 Opposite-Spin Energy      =      -1.6488721040944787 [Eh]
	 Correlation Energy        =      -2.1499046651386640 [Eh]
	 Total Energy              =    -823.9332468279239947 [Eh]

	 ================> DF-SCS-MP2 Energies <==================
	-----------------------------------------------------------
	 SCS Same-Spin Scale       =       0.3333333333333333 [-]
	 SCS Opposite-Spin Scale   =       1.2000000000000000 [-]
	 SCS Same-Spin Energy      =      -0.1670108536813951 [Eh]
	 SCS Opposite-Spin Energy  =      -1.9786465249133744 [Eh]
	 SCS Correlation Energy    =      -2.1456573785947697 [Eh]
	 SCS Total Energy          =    -823.9289995413801080 [Eh]
	-----------------------------------------------------------

  Dipole Moment: [D]
     X:    -0.1997      Y:     3.8081      Z:    -1.5702     Total:     4.1239

*** Psi4 exiting successfully. Buy a developer a beer!
