                               Psi4 1.4a3.dev225

  ==> Input File <==

--------------------------------------------------------------------------
#psi4
#
memory 32 gb

molecule  {
0 1
  S       -0.2573260    -0.3323280     0.1419150
  O       -0.2860210    -1.5224110    -0.7288200
  O       -0.1483025    -0.5097206     1.6022762
  C        1.1077430     0.7304620    -0.3526940
  C        2.4495880     0.2623560     0.2167580
  C       -1.7119910     0.6470300    -0.2467030
  C       -2.9773330    -0.1490110     0.0593080
  C        2.8936370    -1.0771870    -0.3692660
  C        3.4979800     1.3449170    -0.0414460
  C       -4.2305000     0.6643980    -0.2524990
  H        1.1201440     0.7512950    -1.4483370
  H        0.8637990     1.7314470     0.0219200
  H        2.3201640     0.1499000     1.2996700
  H       -1.6515560     0.9087510    -1.3087410
  H       -1.6583250     1.5603790     0.3547230
  H       -2.9641430    -1.0716000    -0.5283160
  H       -2.9644700    -0.4377180     1.1148610
  H        2.9999490    -1.0007780    -1.4570900
  H        2.1808400    -1.8761700    -0.1584720
  H        3.8652790    -1.3613920     0.0461660
  H        3.6372140     1.5009250    -1.1167480
  H        3.2107350     2.3002430     0.4092550
  H        4.4622490     1.0479330     0.3817310
  H       -4.2653590     1.5804770     0.3446860
  H       -4.2647910     0.9464390    -1.3091180
  H       -5.1305020     0.0846610    -0.0305780
units angstrom
no_reorient  #important for SAPT in psi4, default
symmetry c1  #important for SAPT in psi4, default
}

set PROPERTIES_ORIGIN ["COM"]
properties('MP2/aug-cc-pvtz', properties = ['dipole'])
--------------------------------------------------------------------------

    Molecular point group: c1
  Charge       = 0
  Multiplicity = 1
  Basis Set: AUG-CC-PVTZ
    Blend: AUG-CC-PVTZ
  Basis Set: (AUG-CC-PVTZ AUX)
    Blend: AUG-CC-PVTZ-JKFIT

    Orbital Energies [Eh]
    ---------------------

    Doubly Occupied:

       1A    -92.169943     2A    -20.535307     3A    -20.533124
       4A    -11.277156     5A    -11.272611     6A    -11.245466
       7A    -11.242818     8A    -11.230672     9A    -11.226092
      10A    -11.211869    11A     -9.140462    12A     -6.824860
      13A     -6.824414    14A     -6.824261    15A     -1.425564
      16A     -1.315045    17A     -1.115118    18A     -1.097512
      19A     -1.013751    20A     -0.960963    21A     -0.936818
      22A     -0.851328    23A     -0.805426    24A     -0.777882
      25A     -0.687711    26A     -0.676421    27A     -0.663951
      28A     -0.642335    29A     -0.618634    30A     -0.604549
      31A     -0.592632    32A     -0.580187    33A     -0.569129
      34A     -0.553158    35A     -0.538980    36A     -0.529264
      37A     -0.511083    38A     -0.502598    39A     -0.496370
      40A     -0.486539    41A     -0.481666    42A     -0.474738
      43A     -0.469931    44A     -0.455122    45A     -0.418564

  @DF-RHF Final Energy:  -821.78343667937770

   => Energetics <=

    Nuclear Repulsion Energy =            707.3704047875988863
    One-Electron Energy =               -2531.4836356234814048
    Two-Electron Energy =                1002.3297941565047040
    Total Energy =                       -821.7834366793777008
  Basis Set: (AUG-CC-PVTZ AUX)
    Blend: AUG-CC-PVTZ-RI
    Molecular point group: c1

    Geometry (in Angstrom), charge = 0, multiplicity = 1:

       Center              X                  Y                   Z               Mass
    ------------   -----------------  -----------------  -----------------  -----------------
         S           -0.250928691358    -0.288538525390     0.122054822935    31.972071174400
         O           -0.279623691358    -1.478621525390    -0.748680177065    15.994914619570
         O           -0.141905191358    -0.465931125390     1.582416022935    15.994914619570
         C            1.114140308642     0.774251474610    -0.372554177065    12.000000000000
         C            2.455985308642     0.306145474610     0.196897822935    12.000000000000
         C           -1.705593691358     0.690819474610    -0.266563177065    12.000000000000
         C           -2.970935691358    -0.105221525390     0.039447822935    12.000000000000
         C            2.900034308642    -1.033397525390    -0.389126177065    12.000000000000
         C            3.504377308642     1.388706474610    -0.061306177065    12.000000000000
         C           -4.224102691358     0.708187474610    -0.272359177065    12.000000000000
         H            1.126541308642     0.795084474610    -1.468197177065     1.007825032230
         H            0.870196308642     1.775236474610     0.002059822935     1.007825032230
         H            2.326561308642     0.193689474610     1.279809822935     1.007825032230
         H           -1.645158691358     0.952540474610    -1.328601177065     1.007825032230
         H           -1.651927691358     1.604168474610     0.334862822935     1.007825032230
         H           -2.957745691358    -1.027810525390    -0.548176177065     1.007825032230
         H           -2.958072691358    -0.393928525390     1.095000822935     1.007825032230
         H            3.006346308642    -0.956988525390    -1.476950177065     1.007825032230
         H            2.187237308642    -1.832380525390    -0.178332177065     1.007825032230
         H            3.871676308642    -1.317602525390     0.026305822935     1.007825032230
         H            3.643611308642     1.544714474610    -1.136608177065     1.007825032230
         H            3.217132308642     2.344032474610     0.389394822935     1.007825032230
         H            4.468646308642     1.091722474610     0.361870822935     1.007825032230
         H           -4.258961691358     1.624266474610     0.324825822935     1.007825032230
         H           -4.258393691358     0.990228474610    -1.328978177065     1.007825032230
         H           -5.124104691358     0.128450474610    -0.050438177065     1.007825032230

  Basis Set: AUG-CC-PVTZ
    Blend: AUG-CC-PVTZ
  Basis Set: (AUG-CC-PVTZ AUX)
    Blend: AUG-CC-PVTZ-JKFIT
	 Reference Energy          =    -821.7834366793777008 [Eh]
	 Singles Energy            =      -0.0000000000000000 [Eh]
	 Same-Spin Energy          =      -0.5010333441680616 [Eh]
	 Opposite-Spin Energy      =      -1.6488173513038122 [Eh]
	 Correlation Energy        =      -2.1498506954718737 [Eh]
	 Total Energy              =    -823.9332873748495558 [Eh]

	 ================> DF-SCS-MP2 Energies <==================
	-----------------------------------------------------------
	 SCS Same-Spin Scale       =       0.3333333333333333 [-]
	 SCS Opposite-Spin Scale   =       1.2000000000000000 [-]
	 SCS Same-Spin Energy      =      -0.1670111147226872 [Eh]
	 SCS Opposite-Spin Energy  =      -1.9785808215645746 [Eh]
	 SCS Correlation Energy    =      -2.1455919362872620 [Eh]
	 SCS Total Energy          =    -823.9290286156649472 [Eh]
	-----------------------------------------------------------

  Dipole Moment: [D]
     X:    -0.3552      Y:     3.8639      Z:    -1.5574     Total:     4.1811

*** Psi4 exiting successfully. Buy a developer a beer!
