                               Psi4 1.4a3.dev225

  ==> Input File <==

--------------------------------------------------------------------------
#psi4
#
memory 32 gb

molecule  {
0 1
  S       -0.2573260    -0.3323280     0.1419150
  O       -0.2860210    -1.5224110    -0.7288200
  O       -0.1913230    -0.4820040     1.6079470
  C        1.1077430     0.7304620    -0.3526940
  C        2.4495880     0.2623560     0.2167580
  C       -1.7119910     0.6470300    -0.2467030
  C       -2.9773330    -0.1490110     0.0593080
  C        2.8936370    -1.0771870    -0.3692660
  C        3.4979800     1.3449170    -0.0414460
  C       -4.2305000     0.6643980    -0.2524990
  H        1.1201440     0.7512950    -1.4483370
  H        0.8637990     1.7314470     0.0219200
  H        2.3201640     0.1499000     1.2996700
  H       -1.6515560     0.9087510    -1.3087410
  H       -1.6583250     1.5603790     0.3547230
  H       -2.9641430    -1.0716000    -0.5283160
  H       -2.9644700    -0.4377180     1.1148610
  H        2.9999490    -1.0007780    -1.4570900
  H        2.1155224    -1.9493854    -0.1391557
  H        3.8652790    -1.3613920     0.0461660
  H        3.6372140     1.5009250    -1.1167480
  H        3.2107350     2.3002430     0.4092550
  H        4.4622490     1.0479330     0.3817310
  H       -4.2653590     1.5804770     0.3446860
  H       -4.2647910     0.9464390    -1.3091180
  H       -5.1305020     0.0846610    -0.0305780
units angstrom
no_reorient  #important for SAPT in psi4, default
symmetry c1  #important for SAPT in psi4, default
}

set PROPERTIES_ORIGIN ["COM"]
properties('MP2/aug-cc-pvtz', properties = ['dipole'])
--------------------------------------------------------------------------

    Molecular point group: c1
  Charge       = 0
  Multiplicity = 1
  Basis Set: AUG-CC-PVTZ
    Blend: AUG-CC-PVTZ
  Basis Set: (AUG-CC-PVTZ AUX)
    Blend: AUG-CC-PVTZ-JKFIT

    Orbital Energies [Eh]
    ---------------------

    Doubly Occupied:

       1A    -92.170049     2A    -20.535339     3A    -20.534348
       4A    -11.274725     5A    -11.273814     6A    -11.247376
       7A    -11.241364     8A    -11.229606     9A    -11.227535
      10A    -11.223528    11A     -9.140518    12A     -6.824908
      13A     -6.824500    14A     -6.824305    15A     -1.425648
      16A     -1.316406    17A     -1.115483    18A     -1.095938
      19A     -1.013071    20A     -0.960431    21A     -0.931884
      22A     -0.850267    23A     -0.804381    24A     -0.777724
      25A     -0.687548    26A     -0.675537    27A     -0.663522
      28A     -0.641893    29A     -0.619123    30A     -0.600835
      31A     -0.591314    32A     -0.578346    33A     -0.568113
      34A     -0.553052    35A     -0.540160    36A     -0.526960
      37A     -0.509888    38A     -0.500491    39A     -0.494596
      40A     -0.486720    41A     -0.481262    42A     -0.474333
      43A     -0.467602    44A     -0.456183    45A     -0.416967

  @DF-RHF Final Energy:  -821.77665696223949

   => Energetics <=

    Nuclear Repulsion Energy =            707.0056768373291334
    One-Electron Energy =               -2530.7694806978579436
    Two-Electron Energy =                1001.9871468982892111
    Total Energy =                       -821.7766569622394854
  Basis Set: (AUG-CC-PVTZ AUX)
    Blend: AUG-CC-PVTZ-RI
    Molecular point group: c1

    Geometry (in Angstrom), charge = 0, multiplicity = 1:

       Center              X                  Y                   Z               Mass
    ------------   -----------------  -----------------  -----------------  -----------------
         S           -0.246333949100    -0.290790599658     0.121383402623    31.972071174400
         O           -0.275028949100    -1.480873599658    -0.749351597377    15.994914619570
         O           -0.180330949100    -0.440466599658     1.587415402623    15.994914619570
         C            1.118735050900     0.771999400342    -0.373225597377    12.000000000000
         C            2.460580050900     0.303893400342     0.196226402623    12.000000000000
         C           -1.700998949100     0.688567400342    -0.267234597377    12.000000000000
         C           -2.966340949100    -0.107473599658     0.038776402623    12.000000000000
         C            2.904629050900    -1.035649599658    -0.389797597377    12.000000000000
         C            3.508972050900     1.386454400342    -0.061977597377    12.000000000000
         C           -4.219507949100     0.705935400342    -0.273030597377    12.000000000000
         H            1.131136050900     0.792832400342    -1.468868597377     1.007825032230
         H            0.874791050900     1.772984400342     0.001388402623     1.007825032230
         H            2.331156050900     0.191437400342     1.279138402623     1.007825032230
         H           -1.640563949100     0.950288400342    -1.329272597377     1.007825032230
         H           -1.647332949100     1.601916400342     0.334191402623     1.007825032230
         H           -2.953150949100    -1.030062599658    -0.548847597377     1.007825032230
         H           -2.953477949100    -0.396180599658     1.094329402623     1.007825032230
         H            3.010941050900    -0.959240599658    -1.477621597377     1.007825032230
         H            2.126514450900    -1.907847999658    -0.159687297377     1.007825032230
         H            3.876271050900    -1.319854599658     0.025634402623     1.007825032230
         H            3.648206050900     1.542462400342    -1.137279597377     1.007825032230
         H            3.221727050900     2.341780400342     0.388723402623     1.007825032230
         H            4.473241050900     1.089470400342     0.361199402623     1.007825032230
         H           -4.254366949100     1.622014400342     0.324154402623     1.007825032230
         H           -4.253798949100     0.987976400342    -1.329649597377     1.007825032230
         H           -5.119509949100     0.126198400342    -0.051109597377     1.007825032230

  Basis Set: AUG-CC-PVTZ
    Blend: AUG-CC-PVTZ
  Basis Set: (AUG-CC-PVTZ AUX)
    Blend: AUG-CC-PVTZ-JKFIT
	 Reference Energy          =    -821.7766569622394854 [Eh]
	 Singles Energy            =      -0.0000000000000000 [Eh]
	 Same-Spin Energy          =      -0.5012207387292623 [Eh]
	 Opposite-Spin Energy      =      -1.6497838950904313 [Eh]
	 Correlation Energy        =      -2.1510046338196935 [Eh]
	 Total Energy              =    -823.9276615960591243 [Eh]

	 ================> DF-SCS-MP2 Energies <==================
	-----------------------------------------------------------
	 SCS Same-Spin Scale       =       0.3333333333333333 [-]
	 SCS Opposite-Spin Scale   =       1.2000000000000000 [-]
	 SCS Same-Spin Energy      =      -0.1670735795764208 [Eh]
	 SCS Opposite-Spin Energy  =      -1.9797406741085175 [Eh]
	 SCS Correlation Energy    =      -2.1468142536849384 [Eh]
	 SCS Total Energy          =    -823.9234712159244509 [Eh]
	-----------------------------------------------------------

  Dipole Moment: [D]
     X:    -0.1973      Y:     3.8334      Z:    -1.5786     Total:     4.1505

*** Psi4 exiting successfully. Buy a developer a beer!
