                               Psi4 1.4a3.dev225

  ==> Input File <==

--------------------------------------------------------------------------
#psi4
#
memory 32 gb

molecule  {
0 1
  S       -0.2573260    -0.3323280     0.1419150
  O       -0.2860210    -1.5224110    -0.7288200
  O       -0.1913230    -0.4820040     1.6079470
  C        1.1077430     0.7304620    -0.3526940
  C        2.4495880     0.2623560     0.2167580
  C       -1.7119910     0.6470300    -0.2467030
  C       -2.9773330    -0.1490110     0.0593080
  C        2.8936370    -1.0771870    -0.3692660
  C        3.4979800     1.3449170    -0.0414460
  C       -4.2305000     0.6643980    -0.2524990
  H        1.1201440     0.7512950    -1.4483370
  H        0.8637990     1.7314470     0.0219200
  H        2.2965551     0.1293863     1.4972094
  H       -1.6515560     0.9087510    -1.3087410
  H       -1.6583250     1.5603790     0.3547230
  H       -2.9641430    -1.0716000    -0.5283160
  H       -2.9644700    -0.4377180     1.1148610
  H        2.9999490    -1.0007780    -1.4570900
  H        2.1808400    -1.8761700    -0.1584720
  H        3.8652790    -1.3613920     0.0461660
  H        3.6372140     1.5009250    -1.1167480
  H        3.2107350     2.3002430     0.4092550
  H        4.4622490     1.0479330     0.3817310
  H       -4.2653590     1.5804770     0.3446860
  H       -4.2647910     0.9464390    -1.3091180
  H       -5.1305020     0.0846610    -0.0305780
units angstrom
no_reorient  #important for SAPT in psi4, default
symmetry c1  #important for SAPT in psi4, default
}

set PROPERTIES_ORIGIN ["COM"]
properties('MP2/aug-cc-pvtz', properties = ['dipole'])
--------------------------------------------------------------------------

    Molecular point group: c1
  Charge       = 0
  Multiplicity = 1
  Basis Set: AUG-CC-PVTZ
    Blend: AUG-CC-PVTZ
  Basis Set: (AUG-CC-PVTZ AUX)
    Blend: AUG-CC-PVTZ-JKFIT

    Orbital Energies [Eh]
    ---------------------

    Doubly Occupied:

       1A    -92.170283     2A    -20.534948     3A    -20.534902
       4A    -11.275571     5A    -11.274985     6A    -11.267740
       7A    -11.241512     8A    -11.229717     9A    -11.228345
      10A    -11.214746    11A     -9.140741    12A     -6.825140
      13A     -6.824725    14A     -6.824521    15A     -1.425675
      16A     -1.316402    17A     -1.112738    18A     -1.095364
      19A     -1.013175    20A     -0.961033    21A     -0.938958
      22A     -0.850154    23A     -0.802482    24A     -0.762798
      25A     -0.687393    26A     -0.675369    27A     -0.659307
      28A     -0.643085    29A     -0.616782    30A     -0.606109
      31A     -0.591495    32A     -0.579826    33A     -0.568253
      34A     -0.554445    35A     -0.540237    36A     -0.528894
      37A     -0.510683    38A     -0.503745    39A     -0.495935
      40A     -0.488015    41A     -0.479887    42A     -0.472798
      43A     -0.456456    44A     -0.447805    45A     -0.418736

  @DF-RHF Final Energy:  -821.76315293892321

   => Energetics <=

    Nuclear Repulsion Energy =            706.4275374320363881
    One-Electron Energy =               -2529.5975582271080384
    Two-Electron Energy =                1001.4068678561484376
    Total Energy =                       -821.7631529389232128
  Basis Set: (AUG-CC-PVTZ AUX)
    Blend: AUG-CC-PVTZ-RI
    Molecular point group: c1

    Geometry (in Angstrom), charge = 0, multiplicity = 1:

       Center              X                  Y                   Z               Mass
    ------------   -----------------  -----------------  -----------------  -----------------
         S           -0.246590124458    -0.291114294160     0.120288754108    31.972071174400
         O           -0.275285124458    -1.481197294160    -0.750446245892    15.994914619570
         O           -0.180587124458    -0.440790294160     1.586320754108    15.994914619570
         C            1.118478875542     0.771675705840    -0.374320245892    12.000000000000
         C            2.460323875542     0.303569705840     0.195131754108    12.000000000000
         C           -1.701255124458     0.688243705840    -0.268329245892    12.000000000000
         C           -2.966597124458    -0.107797294160     0.037681754108    12.000000000000
         C            2.904372875542    -1.035973294160    -0.390892245892    12.000000000000
         C            3.508715875542     1.386130705840    -0.063072245892    12.000000000000
         C           -4.219764124458     0.705611705840    -0.274125245892    12.000000000000
         H            1.130879875542     0.792508705840    -1.469963245892     1.007825032230
         H            0.874534875542     1.772660705840     0.000293754108     1.007825032230
         H            2.307290975542     0.170600005840     1.475583154108     1.007825032230
         H           -1.640820124458     0.949964705840    -1.330367245892     1.007825032230
         H           -1.647589124458     1.601592705840     0.333096754108     1.007825032230
         H           -2.953407124458    -1.030386294160    -0.549942245892     1.007825032230
         H           -2.953734124458    -0.396504294160     1.093234754108     1.007825032230
         H            3.010684875542    -0.959564294160    -1.478716245892     1.007825032230
         H            2.191575875542    -1.834956294160    -0.180098245892     1.007825032230
         H            3.876014875542    -1.320178294160     0.024539754108     1.007825032230
         H            3.647949875542     1.542138705840    -1.138374245892     1.007825032230
         H            3.221470875542     2.341456705840     0.387628754108     1.007825032230
         H            4.472984875542     1.089146705840     0.360104754108     1.007825032230
         H           -4.254623124458     1.621690705840     0.323059754108     1.007825032230
         H           -4.254055124458     0.987652705840    -1.330744245892     1.007825032230
         H           -5.119766124458     0.125874705840    -0.052204245892     1.007825032230

  Basis Set: AUG-CC-PVTZ
    Blend: AUG-CC-PVTZ
  Basis Set: (AUG-CC-PVTZ AUX)
    Blend: AUG-CC-PVTZ-JKFIT
	 Reference Energy          =    -821.7631529389232128 [Eh]
	 Singles Energy            =      -0.0000000000000000 [Eh]
	 Same-Spin Energy          =      -0.5014848137715013 [Eh]
	 Opposite-Spin Energy      =      -1.6509547724860423 [Eh]
	 Correlation Energy        =      -2.1524395862575436 [Eh]
	 Total Energy              =    -823.9155925251807275 [Eh]

	 ================> DF-SCS-MP2 Energies <==================
	-----------------------------------------------------------
	 SCS Same-Spin Scale       =       0.3333333333333333 [-]
	 SCS Opposite-Spin Scale   =       1.2000000000000000 [-]
	 SCS Same-Spin Energy      =      -0.1671616045905004 [Eh]
	 SCS Opposite-Spin Energy  =      -1.9811457269832506 [Eh]
	 SCS Correlation Energy    =      -2.1483073315737511 [Eh]
	 SCS Total Energy          =    -823.9114602704969457 [Eh]
	-----------------------------------------------------------

  Dipole Moment: [D]
     X:    -0.2147      Y:     3.7917      Z:    -1.6597     Total:     4.1446

*** Psi4 exiting successfully. Buy a developer a beer!
