                               Psi4 1.4a3.dev225

  ==> Input File <==

--------------------------------------------------------------------------
#psi4
#
memory 32 gb

molecule  {
0 1
  S       -0.2573260    -0.3323280     0.1419150
  O       -0.2860210    -1.5224110    -0.7288200
  O       -0.1913230    -0.4820040     1.6079470
  C        1.1229161     0.7422752    -0.3581917
  C        2.4495880     0.2623560     0.2167580
  C       -1.7119910     0.6470300    -0.2467030
  C       -2.9773330    -0.1490110     0.0593080
  C        2.8936370    -1.0771870    -0.3692660
  C        3.4979800     1.3449170    -0.0414460
  C       -4.2305000     0.6643980    -0.2524990
  H        1.1201440     0.7512950    -1.4483370
  H        0.8637990     1.7314470     0.0219200
  H        2.3201640     0.1499000     1.2996700
  H       -1.6515560     0.9087510    -1.3087410
  H       -1.6583250     1.5603790     0.3547230
  H       -2.9641430    -1.0716000    -0.5283160
  H       -2.9644700    -0.4377180     1.1148610
  H        2.9999490    -1.0007780    -1.4570900
  H        2.1808400    -1.8761700    -0.1584720
  H        3.8652790    -1.3613920     0.0461660
  H        3.6372140     1.5009250    -1.1167480
  H        3.2107350     2.3002430     0.4092550
  H        4.4622490     1.0479330     0.3817310
  H       -4.2653590     1.5804770     0.3446860
  H       -4.2647910     0.9464390    -1.3091180
  H       -5.1305020     0.0846610    -0.0305780
units angstrom
no_reorient  #important for SAPT in psi4, default
symmetry c1  #important for SAPT in psi4, default
}

set PROPERTIES_ORIGIN ["COM"]
properties('MP2/aug-cc-pvtz', properties = ['dipole'])
--------------------------------------------------------------------------

    Molecular point group: c1
  Charge       = 0
  Multiplicity = 1
  Basis Set: AUG-CC-PVTZ
    Blend: AUG-CC-PVTZ
  Basis Set: (AUG-CC-PVTZ AUX)
    Blend: AUG-CC-PVTZ-JKFIT

    Orbital Energies [Eh]
    ---------------------

    Doubly Occupied:

       1A    -92.169471     2A    -20.535457     3A    -20.534654
       4A    -11.274764     5A    -11.274027     6A    -11.245916
       7A    -11.241398     8A    -11.229620     9A    -11.226567
      10A    -11.213080    11A     -9.139882    12A     -6.824233
      13A     -6.823828    14A     -6.823664    15A     -1.425123
      16A     -1.316318    17A     -1.116195    18A     -1.096143
      19A     -1.011684    20A     -0.960173    21A     -0.937913
      22A     -0.850662    23A     -0.804387    24A     -0.779635
      25A     -0.686306    26A     -0.675955    27A     -0.663932
      28A     -0.642817    29A     -0.619393    30A     -0.605810
      31A     -0.591453    32A     -0.582003    33A     -0.568133
      34A     -0.553948    35A     -0.539828    36A     -0.528441
      37A     -0.510240    38A     -0.503132    39A     -0.495803
      40A     -0.488759    41A     -0.482529    42A     -0.474926
      43A     -0.470058    44A     -0.456457    45A     -0.415664

  @DF-RHF Final Energy:  -821.78320876450334

   => Energetics <=

    Nuclear Repulsion Energy =            706.9690614627874083
    One-Electron Energy =               -2530.6837872483733918
    Two-Electron Energy =                1001.9315170210825272
    Total Energy =                       -821.7832087645033425
  Basis Set: (AUG-CC-PVTZ AUX)
    Blend: AUG-CC-PVTZ-RI
    Molecular point group: c1

    Geometry (in Angstrom), charge = 0, multiplicity = 1:

       Center              X                  Y                   Z               Mass
    ------------   -----------------  -----------------  -----------------  -----------------
         S           -0.247844768116    -0.292104211219     0.121904100778    31.972071174400
         O           -0.276539768116    -1.482187211219    -0.748830899222    15.994914619570
         O           -0.181841768116    -0.441780211219     1.587936100778    15.994914619570
         C            1.132397331884     0.782498988781    -0.378202599222    12.000000000000
         C            2.459069231884     0.302579788781     0.196747100778    12.000000000000
         C           -1.702509768116     0.687253788781    -0.266713899222    12.000000000000
         C           -2.967851768116    -0.108787211219     0.039297100778    12.000000000000
         C            2.903118231884    -1.036963211219    -0.389276899222    12.000000000000
         C            3.507461231884     1.385140788781    -0.061456899222    12.000000000000
         C           -4.221018768116     0.704621788781    -0.272509899222    12.000000000000
         H            1.129625231884     0.791518788781    -1.468347899222     1.007825032230
         H            0.873280231884     1.771670788781     0.001909100778     1.007825032230
         H            2.329645231884     0.190123788781     1.279659100778     1.007825032230
         H           -1.642074768116     0.948974788781    -1.328751899222     1.007825032230
         H           -1.648843768116     1.600602788781     0.334712100778     1.007825032230
         H           -2.954661768116    -1.031376211219    -0.548326899222     1.007825032230
         H           -2.954988768116    -0.397494211219     1.094850100778     1.007825032230
         H            3.009430231884    -0.960554211219    -1.477100899222     1.007825032230
         H            2.190321231884    -1.835946211219    -0.178482899222     1.007825032230
         H            3.874760231884    -1.321168211219     0.026155100778     1.007825032230
         H            3.646695231884     1.541148788781    -1.136758899222     1.007825032230
         H            3.220216231884     2.340466788781     0.389244100778     1.007825032230
         H            4.471730231884     1.088156788781     0.361720100778     1.007825032230
         H           -4.255877768116     1.620700788781     0.324675100778     1.007825032230
         H           -4.255309768116     0.986662788781    -1.329128899222     1.007825032230
         H           -5.121020768116     0.124884788781    -0.050588899222     1.007825032230

  Basis Set: AUG-CC-PVTZ
    Blend: AUG-CC-PVTZ
  Basis Set: (AUG-CC-PVTZ AUX)
    Blend: AUG-CC-PVTZ-JKFIT
	 Reference Energy          =    -821.7832087645033425 [Eh]
	 Singles Energy            =      -0.0000000000000000 [Eh]
	 Same-Spin Energy          =      -0.5010650817440688 [Eh]
	 Opposite-Spin Energy      =      -1.6489902847366538 [Eh]
	 Correlation Energy        =      -2.1500553664807227 [Eh]
	 Total Energy              =    -823.9332641309840710 [Eh]

	 ================> DF-SCS-MP2 Energies <==================
	-----------------------------------------------------------
	 SCS Same-Spin Scale       =       0.3333333333333333 [-]
	 SCS Opposite-Spin Scale   =       1.2000000000000000 [-]
	 SCS Same-Spin Energy      =      -0.1670216939146896 [Eh]
	 SCS Opposite-Spin Energy  =      -1.9787883416839844 [Eh]
	 SCS Correlation Energy    =      -2.1458100355986742 [Eh]
	 SCS Total Energy          =    -823.9290188001019715 [Eh]
	-----------------------------------------------------------

  Dipole Moment: [D]
     X:    -0.2219      Y:     3.7877      Z:    -1.5720     Total:     4.1070

*** Psi4 exiting successfully. Buy a developer a beer!
