                               Psi4 1.4a3.dev225

  ==> Input File <==

--------------------------------------------------------------------------
#psi4
#
memory 32 gb

molecule  {
0 1
  S       -0.2573260    -0.3323280     0.1419150
  O       -0.2860210    -1.5224110    -0.7288200
  O       -0.1913230    -0.4820040     1.6079470
  C        1.1077430     0.7304620    -0.3526940
  C        2.4495880     0.2623560     0.2167580
  C       -1.7119910     0.6470300    -0.2467030
  C       -2.9773330    -0.1490110     0.0593080
  C        2.8936370    -1.0771870    -0.3692660
  C        3.4979800     1.3449170    -0.0414460
  C       -4.2305000     0.6643980    -0.2524990
  H        1.1201440     0.7512950    -1.4483370
  H        0.8637990     1.7314470     0.0219200
  H        2.3201640     0.1499000     1.2996700
  H       -1.6529275     0.8902131    -1.3132153
  H       -1.6583250     1.5603790     0.3547230
  H       -2.9641430    -1.0716000    -0.5283160
  H       -2.9644700    -0.4377180     1.1148610
  H        2.9999490    -1.0007780    -1.4570900
  H        2.1808400    -1.8761700    -0.1584720
  H        3.8652790    -1.3613920     0.0461660
  H        3.6372140     1.5009250    -1.1167480
  H        3.2107350     2.3002430     0.4092550
  H        4.4622490     1.0479330     0.3817310
  H       -4.2653590     1.5804770     0.3446860
  H       -4.2647910     0.9464390    -1.3091180
  H       -5.1305020     0.0846610    -0.0305780
units angstrom
no_reorient  #important for SAPT in psi4, default
symmetry c1  #important for SAPT in psi4, default
}

set PROPERTIES_ORIGIN ["COM"]
properties('MP2/aug-cc-pvtz', properties = ['dipole'])
--------------------------------------------------------------------------

    Molecular point group: c1
  Charge       = 0
  Multiplicity = 1
  Basis Set: AUG-CC-PVTZ
    Blend: AUG-CC-PVTZ
  Basis Set: (AUG-CC-PVTZ AUX)
    Blend: AUG-CC-PVTZ-JKFIT

    Orbital Energies [Eh]
    ---------------------

    Doubly Occupied:

       1A    -92.170020     2A    -20.535403     3A    -20.534761
       4A    -11.274856     5A    -11.273700     6A    -11.246592
       7A    -11.241348     8A    -11.229660     9A    -11.226819
      10A    -11.212903    11A     -9.140519    12A     -6.824899
      13A     -6.824499    14A     -6.824306    15A     -1.425805
      16A     -1.316572    17A     -1.115753    18A     -1.096191
      19A     -1.013413    20A     -0.960550    21A     -0.937739
      22A     -0.850623    23A     -0.804573    24A     -0.778637
      25A     -0.687572    26A     -0.676466    27A     -0.663776
      28A     -0.642752    29A     -0.619248    30A     -0.605133
      31A     -0.590941    32A     -0.581069    33A     -0.568910
      34A     -0.553808    35A     -0.539685    36A     -0.528565
      37A     -0.510050    38A     -0.503097    39A     -0.495735
      40A     -0.487118    41A     -0.482414    42A     -0.475274
      43A     -0.470345    44A     -0.456373    45A     -0.418157

  @DF-RHF Final Energy:  -821.78350166608425

   => Energetics <=

    Nuclear Repulsion Energy =            707.3377892219402838
    One-Electron Energy =               -2531.4093205203798789
    Two-Electron Energy =                1002.2880296323553466
    Total Energy =                       -821.7835016660842484
  Basis Set: (AUG-CC-PVTZ AUX)
    Blend: AUG-CC-PVTZ-RI
    Molecular point group: c1

    Geometry (in Angstrom), charge = 0, multiplicity = 1:

       Center              X                  Y                   Z               Mass
    ------------   -----------------  -----------------  -----------------  -----------------
         S           -0.246726706848    -0.291126429549     0.121529524787    31.972071174400
         O           -0.275421706848    -1.481209429549    -0.749205475213    15.994914619570
         O           -0.180723706848    -0.440802429549     1.587561524787    15.994914619570
         C            1.118342293152     0.771663570451    -0.373079475213    12.000000000000
         C            2.460187293152     0.303557570451     0.196372524787    12.000000000000
         C           -1.701391706848     0.688231570451    -0.267088475213    12.000000000000
         C           -2.966733706848    -0.107809429549     0.038922524787    12.000000000000
         C            2.904236293152    -1.035985429549    -0.389651475213    12.000000000000
         C            3.508579293152     1.386118570451    -0.061831475213    12.000000000000
         C           -4.219900706848     0.705599570451    -0.272884475213    12.000000000000
         H            1.130743293152     0.792496570451    -1.468722475213     1.007825032230
         H            0.874398293152     1.772648570451     0.001534524787     1.007825032230
         H            2.330763293152     0.191101570451     1.279284524787     1.007825032230
         H           -1.642328206848     0.931414670451    -1.333600775213     1.007825032230
         H           -1.647725706848     1.601580570451     0.334337524787     1.007825032230
         H           -2.953543706848    -1.030398429549    -0.548701475213     1.007825032230
         H           -2.953870706848    -0.396516429549     1.094475524787     1.007825032230
         H            3.010548293152    -0.959576429549    -1.477475475213     1.007825032230
         H            2.191439293152    -1.834968429549    -0.178857475213     1.007825032230
         H            3.875878293152    -1.320190429549     0.025780524787     1.007825032230
         H            3.647813293152     1.542126570451    -1.137133475213     1.007825032230
         H            3.221334293152     2.341444570451     0.388869524787     1.007825032230
         H            4.472848293152     1.089134570451     0.361345524787     1.007825032230
         H           -4.254759706848     1.621678570451     0.324300524787     1.007825032230
         H           -4.254191706848     0.987640570451    -1.329503475213     1.007825032230
         H           -5.119902706848     0.125862570451    -0.050963475213     1.007825032230

  Basis Set: AUG-CC-PVTZ
    Blend: AUG-CC-PVTZ
  Basis Set: (AUG-CC-PVTZ AUX)
    Blend: AUG-CC-PVTZ-JKFIT
	 Reference Energy          =    -821.7835016660842484 [Eh]
	 Singles Energy            =      -0.0000000000000000 [Eh]
	 Same-Spin Energy          =      -0.5010552421272059 [Eh]
	 Opposite-Spin Energy      =      -1.6488994827346222 [Eh]
	 Correlation Energy        =      -2.1499547248618280 [Eh]
	 Total Energy              =    -823.9334563909460485 [Eh]

	 ================> DF-SCS-MP2 Energies <==================
	-----------------------------------------------------------
	 SCS Same-Spin Scale       =       0.3333333333333333 [-]
	 SCS Opposite-Spin Scale   =       1.2000000000000000 [-]
	 SCS Same-Spin Energy      =      -0.1670184140424019 [Eh]
	 SCS Opposite-Spin Energy  =      -1.9786793792815465 [Eh]
	 SCS Correlation Energy    =      -2.1456977933239485 [Eh]
	 SCS Total Energy          =    -823.9291994594082098 [Eh]
	-----------------------------------------------------------

  Dipole Moment: [D]
     X:    -0.2049      Y:     3.7946      Z:    -1.5766     Total:     4.1142

*** Psi4 exiting successfully. Buy a developer a beer!
