                               Psi4 1.4a3.dev225

  ==> Input File <==

--------------------------------------------------------------------------
#psi4
#
memory 32 gb

molecule  {
0 1
  S       -0.2573260    -0.3323280     0.1419150
  O       -0.2860210    -1.5224110    -0.7288200
  O       -0.1913230    -0.4820040     1.6079470
  C        1.1077430     0.7304620    -0.3526940
  C        2.4495880     0.2623560     0.2167580
  C       -1.7119910     0.6470300    -0.2467030
  C       -2.9773330    -0.1490110     0.0593080
  C        2.8936370    -1.0771870    -0.3692660
  C        3.4979800     1.3449170    -0.0414460
  C       -4.2305000     0.6643980    -0.2524990
  H        1.1201440     0.7512950    -1.4483370
  H        0.8637990     1.7314470     0.0219200
  H        2.3201640     0.1499000     1.2996700
  H       -1.6515560     0.9087510    -1.3087410
  H       -1.6583250     1.5603790     0.3547230
  H       -2.9641430    -1.0716000    -0.5283160
  H       -2.9644700    -0.4377180     1.1148610
  H        2.9999490    -1.0007780    -1.4570900
  H        2.1808400    -1.8761700    -0.1584720
  H        3.8652790    -1.3613920     0.0461660
  H        3.6372140     1.5009250    -1.1167480
  H        3.2107350     2.3002430     0.4092550
  H        4.4622490     1.0479330     0.3817310
  H       -4.2659962     1.5972229     0.3556025
  H       -4.2647910     0.9464390    -1.3091180
  H       -5.1305020     0.0846610    -0.0305780
units angstrom
no_reorient  #important for SAPT in psi4, default
symmetry c1  #important for SAPT in psi4, default
}

set PROPERTIES_ORIGIN ["COM"]
properties('MP2/aug-cc-pvtz', properties = ['dipole'])
--------------------------------------------------------------------------

    Molecular point group: c1
  Charge       = 0
  Multiplicity = 1
  Basis Set: AUG-CC-PVTZ
    Blend: AUG-CC-PVTZ
  Basis Set: (AUG-CC-PVTZ AUX)
    Blend: AUG-CC-PVTZ-JKFIT

    Orbital Energies [Eh]
    ---------------------

    Doubly Occupied:

       1A    -92.170182     2A    -20.535547     3A    -20.534790
       4A    -11.274820     5A    -11.273732     6A    -11.246616
       7A    -11.241678     8A    -11.232138     9A    -11.226837
      10A    -11.212924    11A     -9.140662    12A     -6.825050
      13A     -6.824642    14A     -6.824450    15A     -1.425874
      16A     -1.316640    17A     -1.115764    18A     -1.095954
      19A     -1.013140    20A     -0.959909    21A     -0.937756
      22A     -0.849851    23A     -0.804762    24A     -0.778767
      25A     -0.687826    26A     -0.675711    27A     -0.663425
      28A     -0.642720    29A     -0.619031    30A     -0.605165
      31A     -0.591212    32A     -0.580992    33A     -0.566792
      34A     -0.553829    35A     -0.539712    36A     -0.528755
      37A     -0.510029    38A     -0.502836    39A     -0.495020
      40A     -0.487120    41A     -0.482434    42A     -0.475352
      43A     -0.470433    44A     -0.456398    45A     -0.418291

  @DF-RHF Final Energy:  -821.78303516685401

   => Energetics <=

    Nuclear Repulsion Energy =            707.2344105515390993
    One-Electron Energy =               -2531.2037526461344896
    Two-Electron Energy =                1002.1863069277414979
    Total Energy =                       -821.7830351668540061
  Basis Set: (AUG-CC-PVTZ AUX)
    Blend: AUG-CC-PVTZ-RI
    Molecular point group: c1

    Geometry (in Angstrom), charge = 0, multiplicity = 1:

       Center              X                  Y                   Z               Mass
    ------------   -----------------  -----------------  -----------------  -----------------
         S           -0.246731216928    -0.291343143091     0.121434994300    31.972071174400
         O           -0.275426216928    -1.481426143091    -0.749300005700    15.994914619570
         O           -0.180728216928    -0.441019143091     1.587466994300    15.994914619570
         C            1.118337783072     0.771446856909    -0.373174005700    12.000000000000
         C            2.460182783072     0.303340856909     0.196277994300    12.000000000000
         C           -1.701396216928     0.688014856909    -0.267183005700    12.000000000000
         C           -2.966738216928    -0.108026143091     0.038827994300    12.000000000000
         C            2.904231783072    -1.036202143091    -0.389746005700    12.000000000000
         C            3.508574783072     1.385901856909    -0.061926005700    12.000000000000
         C           -4.219905216928     0.705382856909    -0.272979005700    12.000000000000
         H            1.130738783072     0.792279856909    -1.468817005700     1.007825032230
         H            0.874393783072     1.772431856909     0.001439994300     1.007825032230
         H            2.330758783072     0.190884856909     1.279189994300     1.007825032230
         H           -1.640961216928     0.949735856909    -1.329221005700     1.007825032230
         H           -1.647730216928     1.601363856909     0.334242994300     1.007825032230
         H           -2.953548216928    -1.030615143091    -0.548796005700     1.007825032230
         H           -2.953875216928    -0.396733143091     1.094380994300     1.007825032230
         H            3.010543783072    -0.959793143091    -1.477570005700     1.007825032230
         H            2.191434783072    -1.835185143091    -0.178952005700     1.007825032230
         H            3.875873783072    -1.320407143091     0.025685994300     1.007825032230
         H            3.647808783072     1.541909856909    -1.137228005700     1.007825032230
         H            3.221329783072     2.341227856909     0.388774994300     1.007825032230
         H            4.472843783072     1.088917856909     0.361250994300     1.007825032230
         H           -4.255401416928     1.638207756909     0.335122494300     1.007825032230
         H           -4.254196216928     0.987423856909    -1.329598005700     1.007825032230
         H           -5.119907216928     0.125645856909    -0.051058005700     1.007825032230

  Basis Set: AUG-CC-PVTZ
    Blend: AUG-CC-PVTZ
  Basis Set: (AUG-CC-PVTZ AUX)
    Blend: AUG-CC-PVTZ-JKFIT
	 Reference Energy          =    -821.7830351668540061 [Eh]
	 Singles Energy            =      -0.0000000000000000 [Eh]
	 Same-Spin Energy          =      -0.5010316397271096 [Eh]
	 Opposite-Spin Energy      =      -1.6489974255836999 [Eh]
	 Correlation Energy        =      -2.1500290653108096 [Eh]
	 Total Energy              =    -823.9330642321648384 [Eh]

	 ================> DF-SCS-MP2 Energies <==================
	-----------------------------------------------------------
	 SCS Same-Spin Scale       =       0.3333333333333333 [-]
	 SCS Opposite-Spin Scale   =       1.2000000000000000 [-]
	 SCS Same-Spin Energy      =      -0.1670105465757032 [Eh]
	 SCS Opposite-Spin Energy  =      -1.9787969107004397 [Eh]
	 SCS Correlation Energy    =      -2.1458074572761427 [Eh]
	 SCS Total Energy          =    -823.9288426241301977 [Eh]
	-----------------------------------------------------------

  Dipole Moment: [D]
     X:    -0.1993      Y:     3.7879      Z:    -1.5800     Total:     4.1090

*** Psi4 exiting successfully. Buy a developer a beer!
