                               Psi4 1.4a3.dev225

  ==> Input File <==

--------------------------------------------------------------------------
#psi4
#
memory 32 gb

molecule  {
0 1
  S       -0.2573260    -0.3323280     0.1419150
  O       -0.2860210    -1.5224110    -0.7288200
  O       -0.1913230    -0.4820040     1.6079470
  C        1.1077430     0.7304620    -0.3526940
  C        2.4534253     0.3086158     0.2432353
  C       -1.7119910     0.6470300    -0.2467030
  C       -2.9773330    -0.1490110     0.0593080
  C        2.8936370    -1.0771870    -0.3692660
  C        3.4979800     1.3449170    -0.0414460
  C       -4.2305000     0.6643980    -0.2524990
  H        1.1201440     0.7512950    -1.4483370
  H        0.8637990     1.7314470     0.0219200
  H        2.3201640     0.1499000     1.2996700
  H       -1.6515560     0.9087510    -1.3087410
  H       -1.6583250     1.5603790     0.3547230
  H       -2.9641430    -1.0716000    -0.5283160
  H       -2.9644700    -0.4377180     1.1148610
  H        2.9999490    -1.0007780    -1.4570900
  H        2.1808400    -1.8761700    -0.1584720
  H        3.8652790    -1.3613920     0.0461660
  H        3.6372140     1.5009250    -1.1167480
  H        3.2107350     2.3002430     0.4092550
  H        4.4622490     1.0479330     0.3817310
  H       -4.2653590     1.5804770     0.3446860
  H       -4.2647910     0.9464390    -1.3091180
  H       -5.1305020     0.0846610    -0.0305780
units angstrom
no_reorient  #important for SAPT in psi4, default
symmetry c1  #important for SAPT in psi4, default
}

set PROPERTIES_ORIGIN ["COM"]
properties('MP2/aug-cc-pvtz', properties = ['dipole'])
--------------------------------------------------------------------------

    Molecular point group: c1
  Charge       = 0
  Multiplicity = 1
  Basis Set: AUG-CC-PVTZ
    Blend: AUG-CC-PVTZ
  Basis Set: (AUG-CC-PVTZ AUX)
    Blend: AUG-CC-PVTZ-JKFIT

    Orbital Energies [Eh]
    ---------------------

    Doubly Occupied:

       1A    -92.170764     2A    -20.535690     3A    -20.534825
       4A    -11.275105     5A    -11.273415     6A    -11.245847
       7A    -11.241606     8A    -11.229790     9A    -11.225992
      10A    -11.213886    11A     -9.141158    12A     -6.825539
      13A     -6.825163    14A     -6.824950    15A     -1.425967
      16A     -1.316744    17A     -1.115367    18A     -1.096153
      19A     -1.013533    20A     -0.961088    21A     -0.933990
      22A     -0.851121    23A     -0.806146    24A     -0.780900
      25A     -0.688113    26A     -0.675486    27A     -0.663327
      28A     -0.642668    29A     -0.618987    30A     -0.603966
      31A     -0.591758    32A     -0.581046    33A     -0.568362
      34A     -0.557392    35A     -0.538598    36A     -0.527916
      37A     -0.511648    38A     -0.505527    39A     -0.496564
      40A     -0.489603    41A     -0.478154    42A     -0.475074
      43A     -0.464389    44A     -0.456320    45A     -0.420003

  @DF-RHF Final Energy:  -821.78109623144212

   => Energetics <=

    Nuclear Repulsion Energy =            707.0119706395984167
    One-Electron Energy =               -2530.7468552617524438
    Two-Electron Energy =                1001.9537883907117930
    Total Energy =                       -821.7810962314421204
  Basis Set: (AUG-CC-PVTZ AUX)
    Blend: AUG-CC-PVTZ-RI
    Molecular point group: c1

    Geometry (in Angstrom), charge = 0, multiplicity = 1:

       Center              X                  Y                   Z               Mass
    ------------   -----------------  -----------------  -----------------  -----------------
         S           -0.247015759624    -0.294623356220     0.119565708559    31.972071174400
         O           -0.275710759624    -1.484706356220    -0.751169291441    15.994914619570
         O           -0.181012759624    -0.444299356220     1.585597708559    15.994914619570
         C            1.118053240376     0.768166643780    -0.375043291441    12.000000000000
         C            2.463735540376     0.346320443780     0.220886008559    12.000000000000
         C           -1.701680759624     0.684734643780    -0.269052291441    12.000000000000
         C           -2.967022759624    -0.111306356220     0.036958708559    12.000000000000
         C            2.903947240376    -1.039482356220    -0.391615291441    12.000000000000
         C            3.508290240376     1.382621643780    -0.063795291441    12.000000000000
         C           -4.220189759624     0.702102643780    -0.274848291441    12.000000000000
         H            1.130454240376     0.788999643780    -1.470686291441     1.007825032230
         H            0.874109240376     1.769151643780    -0.000429291441     1.007825032230
         H            2.330474240376     0.187604643780     1.277320708559     1.007825032230
         H           -1.641245759624     0.946455643780    -1.331090291441     1.007825032230
         H           -1.648014759624     1.598083643780     0.332373708559     1.007825032230
         H           -2.953832759624    -1.033895356220    -0.550665291441     1.007825032230
         H           -2.954159759624    -0.400013356220     1.092511708559     1.007825032230
         H            3.010259240376    -0.963073356220    -1.479439291441     1.007825032230
         H            2.191150240376    -1.838465356220    -0.180821291441     1.007825032230
         H            3.875589240376    -1.323687356220     0.023816708559     1.007825032230
         H            3.647524240376     1.538629643780    -1.139097291441     1.007825032230
         H            3.221045240376     2.337947643780     0.386905708559     1.007825032230
         H            4.472559240376     1.085637643780     0.359381708559     1.007825032230
         H           -4.255048759624     1.618181643780     0.322336708559     1.007825032230
         H           -4.254480759624     0.984143643780    -1.331467291441     1.007825032230
         H           -5.120191759624     0.122365643780    -0.052927291441     1.007825032230

  Basis Set: AUG-CC-PVTZ
    Blend: AUG-CC-PVTZ
  Basis Set: (AUG-CC-PVTZ AUX)
    Blend: AUG-CC-PVTZ-JKFIT
	 Reference Energy          =    -821.7810962314421204 [Eh]
	 Singles Energy            =      -0.0000000000000000 [Eh]
	 Same-Spin Energy          =      -0.5009673077484804 [Eh]
	 Opposite-Spin Energy      =      -1.6489026675145091 [Eh]
	 Correlation Energy        =      -2.1498699752629893 [Eh]
	 Total Energy              =    -823.9309662067050795 [Eh]

	 ================> DF-SCS-MP2 Energies <==================
	-----------------------------------------------------------
	 SCS Same-Spin Scale       =       0.3333333333333333 [-]
	 SCS Opposite-Spin Scale   =       1.2000000000000000 [-]
	 SCS Same-Spin Energy      =      -0.1669891025828268 [Eh]
	 SCS Opposite-Spin Energy  =      -1.9786832010174109 [Eh]
	 SCS Correlation Energy    =      -2.1456723036002376 [Eh]
	 SCS Total Energy          =    -823.9267685350423562 [Eh]
	-----------------------------------------------------------

  Dipole Moment: [D]
     X:    -0.2185      Y:     3.8267      Z:    -1.5678     Total:     4.1412

*** Psi4 exiting successfully. Buy a developer a beer!
