                               Psi4 1.4a3.dev225

  ==> Input File <==

--------------------------------------------------------------------------
#psi4
#
memory 32 gb

molecule  {
0 1
  S       -0.2573260    -0.3323280     0.1419150
  O       -0.2860210    -1.5224110    -0.7288200
  O       -0.1913230    -0.4820040     1.6079470
  C        1.1077430     0.7304620    -0.3526940
  C        2.4495880     0.2623560     0.2167580
  C       -1.7119910     0.6470300    -0.2467030
  C       -2.9773330    -0.1490110     0.0593080
  C        2.8936370    -1.0771870    -0.3692660
  C        3.4979800     1.3449170    -0.0414460
  C       -4.2305000     0.6643980    -0.2524990
  H        1.1201440     0.7512950    -1.4483370
  H        0.8637990     1.7314470     0.0219200
  H        2.3201640     0.1499000     1.2996700
  H       -1.6515560     0.9087510    -1.3087410
  H       -1.6583250     1.5603790     0.3547230
  H       -2.9641430    -1.0716000    -0.5283160
  H       -2.9644700    -0.4377180     1.1148610
  H        2.9999490    -1.0007780    -1.4570900
  H        2.1677765    -1.8908131    -0.1546087
  H        3.8652790    -1.3613920     0.0461660
  H        3.6372140     1.5009250    -1.1167480
  H        3.2107350     2.3002430     0.4092550
  H        4.4622490     1.0479330     0.3817310
  H       -4.2653590     1.5804770     0.3446860
  H       -4.2647910     0.9464390    -1.3091180
  H       -5.1305020     0.0846610    -0.0305780
units angstrom
no_reorient  #important for SAPT in psi4, default
symmetry c1  #important for SAPT in psi4, default
}

set PROPERTIES_ORIGIN ["COM"]
properties('MP2/aug-cc-pvtz', properties = ['dipole'])
--------------------------------------------------------------------------

    Molecular point group: c1
  Charge       = 0
  Multiplicity = 1
  Basis Set: AUG-CC-PVTZ
    Blend: AUG-CC-PVTZ
  Basis Set: (AUG-CC-PVTZ AUX)
    Blend: AUG-CC-PVTZ-JKFIT

    Orbital Energies [Eh]
    ---------------------

    Doubly Occupied:

       1A    -92.170130     2A    -20.535482     3A    -20.534674
       4A    -11.274771     5A    -11.273726     6A    -11.246740
       7A    -11.241413     8A    -11.229640     9A    -11.226954
      10A    -11.215103    11A     -9.140607    12A     -6.824996
      13A     -6.824587    14A     -6.824395    15A     -1.425801
      16A     -1.316566    17A     -1.115669    18A     -1.096042
      19A     -1.013327    20A     -0.960488    21A     -0.936400
      22A     -0.850559    23A     -0.804810    24A     -0.778507
      25A     -0.687752    26A     -0.675718    27A     -0.663540
      28A     -0.642502    29A     -0.619205    30A     -0.604082
      31A     -0.591453    32A     -0.580542    33A     -0.568175
      34A     -0.553658    35A     -0.539757    36A     -0.528247
      37A     -0.510147    38A     -0.502444    39A     -0.495510
      40A     -0.487106    41A     -0.482190    42A     -0.475183
      43A     -0.470091    44A     -0.456330    45A     -0.418036

  @DF-RHF Final Energy:  -821.78295336262909

   => Energetics <=

    Nuclear Repulsion Energy =            707.2506034634395746
    One-Electron Energy =               -2531.2410072256866442
    Two-Electron Energy =                1002.2074503996179828
    Total Energy =                       -821.7829533626290868
  Basis Set: (AUG-CC-PVTZ AUX)
    Blend: AUG-CC-PVTZ-RI
    Molecular point group: c1

    Geometry (in Angstrom), charge = 0, multiplicity = 1:

       Center              X                  Y                   Z               Mass
    ------------   -----------------  -----------------  -----------------  -----------------
         S           -0.246654894438    -0.291150351459     0.121478315143    31.972071174400
         O           -0.275349894438    -1.481233351459    -0.749256684857    15.994914619570
         O           -0.180651894438    -0.440826351459     1.587510315143    15.994914619570
         C            1.118414105562     0.771639648541    -0.373130684857    12.000000000000
         C            2.460259105562     0.303533648541     0.196321315143    12.000000000000
         C           -1.701319894438     0.688207648541    -0.267139684857    12.000000000000
         C           -2.966661894438    -0.107833351459     0.038871315143    12.000000000000
         C            2.904308105562    -1.036009351459    -0.389702684857    12.000000000000
         C            3.508651105562     1.386094648541    -0.061882684857    12.000000000000
         C           -4.219828894438     0.705575648541    -0.272935684857    12.000000000000
         H            1.130815105562     0.792472648541    -1.468773684857     1.007825032230
         H            0.874470105562     1.772624648541     0.001483315143     1.007825032230
         H            2.330835105562     0.191077648541     1.279233315143     1.007825032230
         H           -1.640884894438     0.949928648541    -1.329177684857     1.007825032230
         H           -1.647653894438     1.601556648541     0.334286315143     1.007825032230
         H           -2.953471894438    -1.030422351459    -0.548752684857     1.007825032230
         H           -2.953798894438    -0.396540351459     1.094424315143     1.007825032230
         H            3.010620105562    -0.959600351459    -1.477526684857     1.007825032230
         H            2.178447605562    -1.849635451459    -0.175045384857     1.007825032230
         H            3.875950105562    -1.320214351459     0.025729315143     1.007825032230
         H            3.647885105562     1.542102648541    -1.137184684857     1.007825032230
         H            3.221406105562     2.341420648541     0.388818315143     1.007825032230
         H            4.472920105562     1.089110648541     0.361294315143     1.007825032230
         H           -4.254687894438     1.621654648541     0.324249315143     1.007825032230
         H           -4.254119894438     0.987616648541    -1.329554684857     1.007825032230
         H           -5.119830894438     0.125838648541    -0.051014684857     1.007825032230

  Basis Set: AUG-CC-PVTZ
    Blend: AUG-CC-PVTZ
  Basis Set: (AUG-CC-PVTZ AUX)
    Blend: AUG-CC-PVTZ-JKFIT
	 Reference Energy          =    -821.7829533626290868 [Eh]
	 Singles Energy            =      -0.0000000000000000 [Eh]
	 Same-Spin Energy          =      -0.5010759096746288 [Eh]
	 Opposite-Spin Energy      =      -1.6490460097295270 [Eh]
	 Correlation Energy        =      -2.1501219194041559 [Eh]
	 Total Energy              =    -823.9330752820332009 [Eh]

	 ================> DF-SCS-MP2 Energies <==================
	-----------------------------------------------------------
	 SCS Same-Spin Scale       =       0.3333333333333333 [-]
	 SCS Opposite-Spin Scale   =       1.2000000000000000 [-]
	 SCS Same-Spin Energy      =      -0.1670253032248762 [Eh]
	 SCS Opposite-Spin Energy  =      -1.9788552116754323 [Eh]
	 SCS Correlation Energy    =      -2.1458805149003086 [Eh]
	 SCS Total Energy          =    -823.9288338775294278 [Eh]
	-----------------------------------------------------------

  Dipole Moment: [D]
     X:    -0.2021      Y:     3.8052      Z:    -1.5753     Total:     4.1233

*** Psi4 exiting successfully. Buy a developer a beer!
