                               Psi4 1.4a3.dev225

  ==> Input File <==

--------------------------------------------------------------------------
#psi4
#
memory 32 gb

molecule  {
0 1
  S       -0.2573260    -0.3323280     0.1419150
  O       -0.2860210    -1.5224110    -0.7288200
  O       -0.1913230    -0.4820040     1.6079470
  C        1.1077430     0.7304620    -0.3526940
  C        2.4495880     0.2623560     0.2167580
  C       -1.7119910     0.6470300    -0.2467030
  C       -2.9773330    -0.1490110     0.0593080
  C        2.8936370    -1.0771870    -0.3692660
  C        3.4979800     1.3449170    -0.0414460
  C       -4.2305000     0.6643980    -0.2524990
  H        1.1203703     0.7516752    -1.4683321
  H        0.8637990     1.7314470     0.0219200
  H        2.3201640     0.1499000     1.2996700
  H       -1.6515560     0.9087510    -1.3087410
  H       -1.6583250     1.5603790     0.3547230
  H       -2.9641430    -1.0716000    -0.5283160
  H       -2.9644700    -0.4377180     1.1148610
  H        2.9999490    -1.0007780    -1.4570900
  H        2.1808400    -1.8761700    -0.1584720
  H        3.8652790    -1.3613920     0.0461660
  H        3.6372140     1.5009250    -1.1167480
  H        3.2107350     2.3002430     0.4092550
  H        4.4622490     1.0479330     0.3817310
  H       -4.2653590     1.5804770     0.3446860
  H       -4.2647910     0.9464390    -1.3091180
  H       -5.1305020     0.0846610    -0.0305780
units angstrom
no_reorient  #important for SAPT in psi4, default
symmetry c1  #important for SAPT in psi4, default
}

set PROPERTIES_ORIGIN ["COM"]
properties('MP2/aug-cc-pvtz', properties = ['dipole'])
--------------------------------------------------------------------------

    Molecular point group: c1
  Charge       = 0
  Multiplicity = 1
  Basis Set: AUG-CC-PVTZ
    Blend: AUG-CC-PVTZ
  Basis Set: (AUG-CC-PVTZ AUX)
    Blend: AUG-CC-PVTZ-JKFIT

    Orbital Energies [Eh]
    ---------------------

    Doubly Occupied:

       1A    -92.170251     2A    -20.535655     3A    -20.534705
       4A    -11.275889     5A    -11.274770     6A    -11.246753
       7A    -11.241421     8A    -11.229644     9A    -11.226829
      10A    -11.212911    11A     -9.140717    12A     -6.825108
      13A     -6.824697    14A     -6.824505    15A     -1.425871
      16A     -1.316640    17A     -1.115267    18A     -1.096055
      19A     -1.013052    20A     -0.959963    21A     -0.937739
      22A     -0.850528    23A     -0.804967    24A     -0.777550
      25A     -0.687460    26A     -0.675447    27A     -0.663319
      28A     -0.642548    29A     -0.619163    30A     -0.604882
      31A     -0.591438    32A     -0.579380    33A     -0.568173
      34A     -0.553615    35A     -0.539545    36A     -0.528602
      37A     -0.510254    38A     -0.503026    39A     -0.495685
      40A     -0.487238    41A     -0.482162    42A     -0.475367
      43A     -0.470476    44A     -0.456279    45A     -0.418291

  @DF-RHF Final Energy:  -821.78293071790654

   => Energetics <=

    Nuclear Repulsion Energy =            707.2063657820179969
    One-Electron Energy =               -2531.1509259211975404
    Two-Electron Energy =                1002.1616294212728917
    Total Energy =                       -821.7829307179065381
  Basis Set: (AUG-CC-PVTZ AUX)
    Blend: AUG-CC-PVTZ-RI
    Molecular point group: c1

    Geometry (in Angstrom), charge = 0, multiplicity = 1:

       Center              X                  Y                   Z               Mass
    ------------   -----------------  -----------------  -----------------  -----------------
         S           -0.246736520556    -0.291242624756     0.121624853735    31.972071174400
         O           -0.275431520556    -1.481325624756    -0.749110146265    15.994914619570
         O           -0.180733520556    -0.440918624756     1.587656853735    15.994914619570
         C            1.118332479444     0.771547375244    -0.372984146265    12.000000000000
         C            2.460177479444     0.303441375244     0.196467853735    12.000000000000
         C           -1.701401520556     0.688115375244    -0.266993146265    12.000000000000
         C           -2.966743520556    -0.107925624756     0.039017853735    12.000000000000
         C            2.904226479444    -1.036101624756    -0.389556146265    12.000000000000
         C            3.508569479444     1.386002375244    -0.061736146265    12.000000000000
         C           -4.219910520556     0.705483375244    -0.272789146265    12.000000000000
         H            1.130959779444     0.792760575244    -1.488622246265     1.007825032230
         H            0.874388479444     1.772532375244     0.001629853735     1.007825032230
         H            2.330753479444     0.190985375244     1.279379853735     1.007825032230
         H           -1.640966520556     0.949836375244    -1.329031146265     1.007825032230
         H           -1.647735520556     1.601464375244     0.334432853735     1.007825032230
         H           -2.953553520556    -1.030514624756    -0.548606146265     1.007825032230
         H           -2.953880520556    -0.396632624756     1.094570853735     1.007825032230
         H            3.010538479444    -0.959692624756    -1.477380146265     1.007825032230
         H            2.191429479444    -1.835084624756    -0.178762146265     1.007825032230
         H            3.875868479444    -1.320306624756     0.025875853735     1.007825032230
         H            3.647803479444     1.542010375244    -1.137038146265     1.007825032230
         H            3.221324479444     2.341328375244     0.388964853735     1.007825032230
         H            4.472838479444     1.089018375244     0.361440853735     1.007825032230
         H           -4.254769520556     1.621562375244     0.324395853735     1.007825032230
         H           -4.254201520556     0.987524375244    -1.329408146265     1.007825032230
         H           -5.119912520556     0.125746375244    -0.050868146265     1.007825032230

  Basis Set: AUG-CC-PVTZ
    Blend: AUG-CC-PVTZ
  Basis Set: (AUG-CC-PVTZ AUX)
    Blend: AUG-CC-PVTZ-JKFIT
	 Reference Energy          =    -821.7829307179065381 [Eh]
	 Singles Energy            =      -0.0000000000000000 [Eh]
	 Same-Spin Energy          =      -0.5010861705209719 [Eh]
	 Opposite-Spin Energy      =      -1.6490503764005580 [Eh]
	 Correlation Energy        =      -2.1501365469215301 [Eh]
	 Total Energy              =    -823.9330672648280824 [Eh]

	 ================> DF-SCS-MP2 Energies <==================
	-----------------------------------------------------------
	 SCS Same-Spin Scale       =       0.3333333333333333 [-]
	 SCS Opposite-Spin Scale   =       1.2000000000000000 [-]
	 SCS Same-Spin Energy      =      -0.1670287235069906 [Eh]
	 SCS Opposite-Spin Energy  =      -1.9788604516806694 [Eh]
	 SCS Correlation Energy    =      -2.1458891751876599 [Eh]
	 SCS Total Energy          =    -823.9288198930942144 [Eh]
	-----------------------------------------------------------

  Dipole Moment: [D]
     X:    -0.2017      Y:     3.7965      Z:    -1.5698     Total:     4.1132

*** Psi4 exiting successfully. Buy a developer a beer!
