                               Psi4 1.4a3.dev225

  ==> Input File <==

--------------------------------------------------------------------------
#psi4
#
memory 32 gb

molecule  {
0 1
  S       -0.2573260    -0.3323280     0.1419150
  O       -0.2860210    -1.5224110    -0.7288200
  O       -0.1913230    -0.4820040     1.6079470
  C        1.1077430     0.7304620    -0.3526940
  C        2.4495880     0.2623560     0.2167580
  C       -1.7119910     0.6470300    -0.2467030
  C       -2.9607483    -0.1385774     0.0552971
  C        2.8936370    -1.0771870    -0.3692660
  C        3.4979800     1.3449170    -0.0414460
  C       -4.2305000     0.6643980    -0.2524990
  H        1.1201440     0.7512950    -1.4483370
  H        0.8637990     1.7314470     0.0219200
  H        2.3201640     0.1499000     1.2996700
  H       -1.6515560     0.9087510    -1.3087410
  H       -1.6583250     1.5603790     0.3547230
  H       -2.9641430    -1.0716000    -0.5283160
  H       -2.9644700    -0.4377180     1.1148610
  H        2.9999490    -1.0007780    -1.4570900
  H        2.1808400    -1.8761700    -0.1584720
  H        3.8652790    -1.3613920     0.0461660
  H        3.6372140     1.5009250    -1.1167480
  H        3.2107350     2.3002430     0.4092550
  H        4.4622490     1.0479330     0.3817310
  H       -4.2653590     1.5804770     0.3446860
  H       -4.2647910     0.9464390    -1.3091180
  H       -5.1305020     0.0846610    -0.0305780
units angstrom
no_reorient  #important for SAPT in psi4, default
symmetry c1  #important for SAPT in psi4, default
}

set PROPERTIES_ORIGIN ["COM"]
properties('MP2/aug-cc-pvtz', properties = ['dipole'])
--------------------------------------------------------------------------

    Molecular point group: c1
  Charge       = 0
  Multiplicity = 1
  Basis Set: AUG-CC-PVTZ
    Blend: AUG-CC-PVTZ
  Basis Set: (AUG-CC-PVTZ AUX)
    Blend: AUG-CC-PVTZ-JKFIT

    Orbital Energies [Eh]
    ---------------------

    Doubly Occupied:

       1A    -92.170364     2A    -20.535729     3A    -20.534966
       4A    -11.274508     5A    -11.273919     6A    -11.246744
       7A    -11.241303     8A    -11.229908     9A    -11.226934
      10A    -11.213013    11A     -9.140871    12A     -6.825262
      13A     -6.824845    14A     -6.824650    15A     -1.426085
      16A     -1.316796    17A     -1.116167    18A     -1.098246
      19A     -1.012873    20A     -0.960646    21A     -0.937856
      22A     -0.850760    23A     -0.804360    24A     -0.778996
      25A     -0.688537    26A     -0.676303    27A     -0.663987
      28A     -0.642888    29A     -0.619095    30A     -0.605335
      31A     -0.592479    32A     -0.581174    33A     -0.567628
      34A     -0.553950    35A     -0.539827    36A     -0.528955
      37A     -0.510302    38A     -0.503742    39A     -0.493368
      40A     -0.487483    41A     -0.482576    42A     -0.475043
      43A     -0.470220    44A     -0.456490    45A     -0.418567

  @DF-RHF Final Energy:  -821.78293615424343

   => Energetics <=

    Nuclear Repulsion Energy =            707.6246682119776779
    One-Electron Energy =               -2531.9677038690692825
    Two-Electron Energy =                1002.5600995028481748
    Total Energy =                       -821.7829361542434299
  Basis Set: (AUG-CC-PVTZ AUX)
    Blend: AUG-CC-PVTZ-RI
    Molecular point group: c1

    Geometry (in Angstrom), charge = 0, multiplicity = 1:

       Center              X                  Y                   Z               Mass
    ------------   -----------------  -----------------  -----------------  -----------------
         S           -0.247948001093    -0.292003318462     0.121795368282    31.972071174400
         O           -0.276643001093    -1.482086318462    -0.748939631718    15.994914619570
         O           -0.181945001093    -0.441679318462     1.587827368282    15.994914619570
         C            1.117120998907     0.770786681538    -0.372813631718    12.000000000000
         C            2.458965998907     0.302680681538     0.196638368282    12.000000000000
         C           -1.702613001093     0.687354681538    -0.266822631718    12.000000000000
         C           -2.951370301093    -0.098252718462     0.035177468282    12.000000000000
         C            2.903014998907    -1.036862318462    -0.389385631718    12.000000000000
         C            3.507357998907     1.385241681538    -0.061565631718    12.000000000000
         C           -4.221122001093     0.704722681538    -0.272618631718    12.000000000000
         H            1.129521998907     0.791619681538    -1.468456631718     1.007825032230
         H            0.873176998907     1.771771681538     0.001800368282     1.007825032230
         H            2.329541998907     0.190224681538     1.279550368282     1.007825032230
         H           -1.642178001093     0.949075681538    -1.328860631718     1.007825032230
         H           -1.648947001093     1.600703681538     0.334603368282     1.007825032230
         H           -2.954765001093    -1.031275318462    -0.548435631718     1.007825032230
         H           -2.955092001093    -0.397393318462     1.094741368282     1.007825032230
         H            3.009326998907    -0.960453318462    -1.477209631718     1.007825032230
         H            2.190217998907    -1.835845318462    -0.178591631718     1.007825032230
         H            3.874656998907    -1.321067318462     0.026046368282     1.007825032230
         H            3.646591998907     1.541249681538    -1.136867631718     1.007825032230
         H            3.220112998907     2.340567681538     0.389135368282     1.007825032230
         H            4.471626998907     1.088257681538     0.361611368282     1.007825032230
         H           -4.255981001093     1.620801681538     0.324566368282     1.007825032230
         H           -4.255413001093     0.986763681538    -1.329237631718     1.007825032230
         H           -5.121124001093     0.124985681538    -0.050697631718     1.007825032230

  Basis Set: AUG-CC-PVTZ
    Blend: AUG-CC-PVTZ
  Basis Set: (AUG-CC-PVTZ AUX)
    Blend: AUG-CC-PVTZ-JKFIT
	 Reference Energy          =    -821.7829361542434299 [Eh]
	 Singles Energy            =      -0.0000000000000000 [Eh]
	 Same-Spin Energy          =      -0.5011715928651809 [Eh]
	 Opposite-Spin Energy      =      -1.6490395885401263 [Eh]
	 Correlation Energy        =      -2.1502111814053073 [Eh]
	 Total Energy              =    -823.9331473356487550 [Eh]

	 ================> DF-SCS-MP2 Energies <==================
	-----------------------------------------------------------
	 SCS Same-Spin Scale       =       0.3333333333333333 [-]
	 SCS Opposite-Spin Scale   =       1.2000000000000000 [-]
	 SCS Same-Spin Energy      =      -0.1670571976217269 [Eh]
	 SCS Opposite-Spin Energy  =      -1.9788475062481514 [Eh]
	 SCS Correlation Energy    =      -2.1459047038698782 [Eh]
	 SCS Total Energy          =    -823.9288408581132899 [Eh]
	-----------------------------------------------------------

  Dipole Moment: [D]
     X:    -0.1815      Y:     3.7980      Z:    -1.5744     Total:     4.1154

*** Psi4 exiting successfully. Buy a developer a beer!
