                               Psi4 1.4a3.dev225

  ==> Input File <==

--------------------------------------------------------------------------
#psi4
#
memory 32 gb

molecule  {
0 1
  S       -0.2573260    -0.3323280     0.1419150
  O       -0.2860210    -1.5224110    -0.7288200
  O       -0.1913230    -0.4820040     1.6079470
  C        1.0318774     0.6713960    -0.3252054
  C        2.4495880     0.2623560     0.2167580
  C       -1.7119910     0.6470300    -0.2467030
  C       -2.9773330    -0.1490110     0.0593080
  C        2.8936370    -1.0771870    -0.3692660
  C        3.4979800     1.3449170    -0.0414460
  C       -4.2305000     0.6643980    -0.2524990
  H        1.1201440     0.7512950    -1.4483370
  H        0.8637990     1.7314470     0.0219200
  H        2.3201640     0.1499000     1.2996700
  H       -1.6515560     0.9087510    -1.3087410
  H       -1.6583250     1.5603790     0.3547230
  H       -2.9641430    -1.0716000    -0.5283160
  H       -2.9644700    -0.4377180     1.1148610
  H        2.9999490    -1.0007780    -1.4570900
  H        2.1808400    -1.8761700    -0.1584720
  H        3.8652790    -1.3613920     0.0461660
  H        3.6372140     1.5009250    -1.1167480
  H        3.2107350     2.3002430     0.4092550
  H        4.4622490     1.0479330     0.3817310
  H       -4.2653590     1.5804770     0.3446860
  H       -4.2647910     0.9464390    -1.3091180
  H       -5.1305020     0.0846610    -0.0305780
units angstrom
no_reorient  #important for SAPT in psi4, default
symmetry c1  #important for SAPT in psi4, default
}

set PROPERTIES_ORIGIN ["COM"]
properties('MP2/aug-cc-pvtz', properties = ['dipole'])
--------------------------------------------------------------------------

    Molecular point group: c1
  Charge       = 0
  Multiplicity = 1
  Basis Set: AUG-CC-PVTZ
    Blend: AUG-CC-PVTZ
  Basis Set: (AUG-CC-PVTZ AUX)
    Blend: AUG-CC-PVTZ-JKFIT

    Orbital Energies [Eh]
    ---------------------

    Doubly Occupied:

       1A    -92.171359     2A    -20.534953     3A    -20.534286
       4A    -11.274028     5A    -11.273475     6A    -11.251471
       7A    -11.240940     8A    -11.229350     9A    -11.229065
      10A    -11.212547    11A     -9.142669    12A     -6.827310
      13A     -6.826725    14A     -6.826422    15A     -1.429109
      16A     -1.317255    17A     -1.115600    18A     -1.094984
      19A     -1.023606    20A     -0.962261    21A     -0.937578
      22A     -0.849894    23A     -0.807797    24A     -0.774225
      25A     -0.695369    26A     -0.675103    27A     -0.662514
      28A     -0.641796    29A     -0.618443    30A     -0.602260
      31A     -0.591409    32A     -0.576156    33A     -0.567869
      34A     -0.553341    35A     -0.539297    36A     -0.529201
      37A     -0.510059    38A     -0.502165    39A     -0.495121
      40A     -0.484547    41A     -0.479186    42A     -0.476717
      43A     -0.469637    44A     -0.454637    45A     -0.427517

  @DF-RHF Final Energy:  -821.77476598567819

   => Energetics <=

    Nuclear Repulsion Energy =            709.1523869173150842
    One-Electron Energy =               -2534.9757972878055625
    Two-Electron Energy =                1004.0486443848121780
    Total Energy =                       -821.7747659856781866
  Basis Set: (AUG-CC-PVTZ AUX)
    Blend: AUG-CC-PVTZ-RI
    Molecular point group: c1

    Geometry (in Angstrom), charge = 0, multiplicity = 1:

       Center              X                  Y                   Z               Mass
    ------------   -----------------  -----------------  -----------------  -----------------
         S           -0.241186935819    -0.286920681282     0.119491750278    31.972071174400
         O           -0.269881935819    -1.477003681282    -0.751243249722    15.994914619570
         O           -0.175183935819    -0.436596681282     1.585523750278    15.994914619570
         C            1.048016464181     0.716803318718    -0.347628649722    12.000000000000
         C            2.465727064181     0.307763318718     0.194334750278    12.000000000000
         C           -1.695851935819     0.692437318718    -0.269126249722    12.000000000000
         C           -2.961193935819    -0.103603681282     0.036884750278    12.000000000000
         C            2.909776064181    -1.031779681282    -0.391689249722    12.000000000000
         C            3.514119064181     1.390324318718    -0.063869249722    12.000000000000
         C           -4.214360935819     0.709805318718    -0.274922249722    12.000000000000
         H            1.136283064181     0.796702318718    -1.470760249722     1.007825032230
         H            0.879938064181     1.776854318718    -0.000503249722     1.007825032230
         H            2.336303064181     0.195307318718     1.277246750278     1.007825032230
         H           -1.635416935819     0.954158318718    -1.331164249722     1.007825032230
         H           -1.642185935819     1.605786318718     0.332299750278     1.007825032230
         H           -2.948003935819    -1.026192681282    -0.550739249722     1.007825032230
         H           -2.948330935819    -0.392310681282     1.092437750278     1.007825032230
         H            3.016088064181    -0.955370681282    -1.479513249722     1.007825032230
         H            2.196979064181    -1.830762681282    -0.180895249722     1.007825032230
         H            3.881418064181    -1.315984681282     0.023742750278     1.007825032230
         H            3.653353064181     1.546332318718    -1.139171249722     1.007825032230
         H            3.226874064181     2.345650318718     0.386831750278     1.007825032230
         H            4.478388064181     1.093340318718     0.359307750278     1.007825032230
         H           -4.249219935819     1.625884318718     0.322262750278     1.007825032230
         H           -4.248651935819     0.991846318718    -1.331541249722     1.007825032230
         H           -5.114362935819     0.130068318718    -0.053001249722     1.007825032230

  Basis Set: AUG-CC-PVTZ
    Blend: AUG-CC-PVTZ
  Basis Set: (AUG-CC-PVTZ AUX)
    Blend: AUG-CC-PVTZ-JKFIT
	 Reference Energy          =    -821.7747659856781866 [Eh]
	 Singles Energy            =      -0.0000000000000000 [Eh]
	 Same-Spin Energy          =      -0.5014691345976749 [Eh]
	 Opposite-Spin Energy      =      -1.6492049475692403 [Eh]
	 Correlation Energy        =      -2.1506740821669155 [Eh]
	 Total Energy              =    -823.9254400678451020 [Eh]

	 ================> DF-SCS-MP2 Energies <==================
	-----------------------------------------------------------
	 SCS Same-Spin Scale       =       0.3333333333333333 [-]
	 SCS Opposite-Spin Scale   =       1.2000000000000000 [-]
	 SCS Same-Spin Energy      =      -0.1671563781992250 [Eh]
	 SCS Opposite-Spin Energy  =      -1.9790459370830882 [Eh]
	 SCS Correlation Energy    =      -2.1462023152823133 [Eh]
	 SCS Total Energy          =    -823.9209683009604532 [Eh]
	-----------------------------------------------------------

  Dipole Moment: [D]
     X:    -0.0425      Y:     3.8735      Z:    -1.5921     Total:     4.1882

*** Psi4 exiting successfully. Buy a developer a beer!
