                               Psi4 1.4a3.dev225

  ==> Input File <==

--------------------------------------------------------------------------
#psi4
#
memory 32 gb

molecule  {
0 1
  S       -0.2573260    -0.3323280     0.1419150
  O       -0.2860210    -1.5224110    -0.7288200
  O       -0.1913230    -0.4820040     1.6079470
  C        1.1077430     0.7304620    -0.3526940
  C        2.4495880     0.2623560     0.2167580
  C       -1.7119910     0.6470300    -0.2467030
  C       -2.9773330    -0.1490110     0.0593080
  C        2.8936370    -1.0771870    -0.3692660
  C        3.4979800     1.3449170    -0.0414460
  C       -4.2305000     0.6643980    -0.2524990
  H        1.1201440     0.7512950    -1.4483370
  H        0.8637990     1.7314470     0.0219200
  H        2.3201640     0.1499000     1.2996700
  H       -1.6515560     0.9087510    -1.3087410
  H       -1.6583250     1.5603790     0.3547230
  H       -2.9641430    -1.0716000    -0.5283160
  H       -2.9644700    -0.4377180     1.1148610
  H        2.9999490    -1.0007780    -1.4570900
  H        2.1808400    -1.8761700    -0.1584720
  H        3.8652790    -1.3613920     0.0461660
  H        3.6372140     1.5009250    -1.1167480
  H        3.2632160     2.1257006     0.3269099
  H        4.4622490     1.0479330     0.3817310
  H       -4.2653590     1.5804770     0.3446860
  H       -4.2647910     0.9464390    -1.3091180
  H       -5.1305020     0.0846610    -0.0305780
units angstrom
no_reorient  #important for SAPT in psi4, default
symmetry c1  #important for SAPT in psi4, default
}

set PROPERTIES_ORIGIN ["COM"]
properties('MP2/aug-cc-pvtz', properties = ['dipole'])
--------------------------------------------------------------------------

    Molecular point group: c1
  Charge       = 0
  Multiplicity = 1
  Basis Set: AUG-CC-PVTZ
    Blend: AUG-CC-PVTZ
  Basis Set: (AUG-CC-PVTZ AUX)
    Blend: AUG-CC-PVTZ-JKFIT

    Orbital Energies [Eh]
    ---------------------

    Doubly Occupied:

       1A    -92.170100     2A    -20.535412     3A    -20.534635
       4A    -11.274747     5A    -11.273747     6A    -11.244951
       7A    -11.241388     8A    -11.229637     9A    -11.211215
      10A    -11.201528    11A     -9.140568    12A     -6.824960
      13A     -6.824547    14A     -6.824355    15A     -1.425713
      16A     -1.316476    17A     -1.117864    18A     -1.096521
      19A     -1.016507    20A     -0.966911    21A     -0.949563
      22A     -0.851980    23A     -0.806921    24A     -0.780258
      25A     -0.689515    26A     -0.676224    27A     -0.663836
      28A     -0.647093    29A     -0.625103    30A     -0.615736
      31A     -0.591453    32A     -0.582342    33A     -0.568156
      34A     -0.560763    35A     -0.538358    36A     -0.528434
      37A     -0.509913    38A     -0.505489    39A     -0.495581
      40A     -0.489459    41A     -0.484015    42A     -0.475142
      43A     -0.469743    44A     -0.456244    45A     -0.417853

  @DF-RHF Final Energy:  -821.74965377540855

   => Energetics <=

    Nuclear Repulsion Energy =            708.3008611127994527
    One-Electron Energy =               -2533.1991153509698051
    Two-Electron Energy =                1003.1486004627619195
    Total Energy =                       -821.7496537754085466
  Basis Set: (AUG-CC-PVTZ AUX)
    Blend: AUG-CC-PVTZ-RI
    Molecular point group: c1

    Geometry (in Angstrom), charge = 0, multiplicity = 1:

       Center              X                  Y                   Z               Mass
    ------------   -----------------  -----------------  -----------------  -----------------
         S           -0.247057469579    -0.290168247953     0.122007808217    31.972071174400
         O           -0.275752469579    -1.480251247953    -0.748727191783    15.994914619570
         O           -0.181054469579    -0.439844247953     1.588039808217    15.994914619570
         C            1.118011530421     0.772621752047    -0.372601191783    12.000000000000
         C            2.459856530421     0.304515752047     0.196850808217    12.000000000000
         C           -1.701722469579     0.689189752047    -0.266610191783    12.000000000000
         C           -2.967064469579    -0.106851247953     0.039400808217    12.000000000000
         C            2.903905530421    -1.035027247953    -0.389173191783    12.000000000000
         C            3.508248530421     1.387076752047    -0.061353191783    12.000000000000
         C           -4.220231469579     0.706557752047    -0.272406191783    12.000000000000
         H            1.130412530421     0.793454752047    -1.468244191783     1.007825032230
         H            0.874067530421     1.773606752047     0.002012808217     1.007825032230
         H            2.330432530421     0.192059752047     1.279762808217     1.007825032230
         H           -1.641287469579     0.950910752047    -1.328648191783     1.007825032230
         H           -1.648056469579     1.602538752047     0.334815808217     1.007825032230
         H           -2.953874469579    -1.029440247953    -0.548223191783     1.007825032230
         H           -2.954201469579    -0.395558247953     1.094953808217     1.007825032230
         H            3.010217530421    -0.958618247953    -1.476997191783     1.007825032230
         H            2.191108530421    -1.834010247953    -0.178379191783     1.007825032230
         H            3.875547530421    -1.319232247953     0.026258808217     1.007825032230
         H            3.647482530421     1.543084752047    -1.136655191783     1.007825032230
         H            3.273484530421     2.167860352047     0.307002708217     1.007825032230
         H            4.472517530421     1.090092752047     0.361823808217     1.007825032230
         H           -4.255090469579     1.622636752047     0.324778808217     1.007825032230
         H           -4.254522469579     0.988598752047    -1.329025191783     1.007825032230
         H           -5.120233469579     0.126820752047    -0.050485191783     1.007825032230

  Basis Set: AUG-CC-PVTZ
    Blend: AUG-CC-PVTZ
  Basis Set: (AUG-CC-PVTZ AUX)
    Blend: AUG-CC-PVTZ-JKFIT
	 Reference Energy          =    -821.7496537754085466 [Eh]
	 Singles Energy            =      -0.0000000000000000 [Eh]
	 Same-Spin Energy          =      -0.5011663465771989 [Eh]
	 Opposite-Spin Energy      =      -1.6482883361907827 [Eh]
	 Correlation Energy        =      -2.1494546827679817 [Eh]
	 Total Energy              =    -823.8991084581765563 [Eh]

	 ================> DF-SCS-MP2 Energies <==================
	-----------------------------------------------------------
	 SCS Same-Spin Scale       =       0.3333333333333333 [-]
	 SCS Opposite-Spin Scale   =       1.2000000000000000 [-]
	 SCS Same-Spin Energy      =      -0.1670554488590663 [Eh]
	 SCS Opposite-Spin Energy  =      -1.9779460034289391 [Eh]
	 SCS Correlation Energy    =      -2.1450014522880054 [Eh]
	 SCS Total Energy          =    -823.8946552276966031 [Eh]
	-----------------------------------------------------------

  Dipole Moment: [D]
     X:    -0.2086      Y:     3.9016      Z:    -1.5450     Total:     4.2015

*** Psi4 exiting successfully. Buy a developer a beer!
