                               Psi4 1.4a3.dev225

  ==> Input File <==

--------------------------------------------------------------------------
#psi4
#
memory 32 gb

molecule  {
0 1
  S       -0.2573260    -0.3323280     0.1419150
  O       -0.2860210    -1.5224110    -0.7288200
  O       -0.1913230    -0.4820040     1.6079470
  C        1.1077430     0.7304620    -0.3526940
  C        2.4495880     0.2623560     0.2167580
  C       -1.7119910     0.6470300    -0.2467030
  C       -2.9773330    -0.1490110     0.0593080
  C        2.8936370    -1.0771870    -0.3692660
  C        3.4979800     1.3449170    -0.0414460
  C       -4.2305000     0.6643980    -0.2524990
  H        1.1201440     0.7512950    -1.4483370
  H        0.8637990     1.7314470     0.0219200
  H        2.3201640     0.1499000     1.2996700
  H       -1.6515560     0.9087510    -1.3087410
  H       -1.6583250     1.5603790     0.3547230
  H       -2.9641430    -1.0716000    -0.5283160
  H       -2.9644700    -0.4377180     1.1148610
  H        2.9999490    -1.0007780    -1.4570900
  H        2.1808400    -1.8761700    -0.1584720
  H        3.8652790    -1.3613920     0.0461660
  H        3.6372140     1.5009250    -1.1167480
  H        3.2107350     2.3002430     0.4092550
  H        4.4622490     1.0479330     0.3817310
  H       -4.2647218     1.5637311     0.3337695
  H       -4.2647910     0.9464390    -1.3091180
  H       -5.1305020     0.0846610    -0.0305780
units angstrom
no_reorient  #important for SAPT in psi4, default
symmetry c1  #important for SAPT in psi4, default
}

set PROPERTIES_ORIGIN ["COM"]
properties('MP2/aug-cc-pvtz', properties = ['dipole'])
--------------------------------------------------------------------------

    Molecular point group: c1
  Charge       = 0
  Multiplicity = 1
  Basis Set: AUG-CC-PVTZ
    Blend: AUG-CC-PVTZ
  Basis Set: (AUG-CC-PVTZ AUX)
    Blend: AUG-CC-PVTZ-JKFIT

    Orbital Energies [Eh]
    ---------------------

    Doubly Occupied:

       1A    -92.170120     2A    -20.535486     3A    -20.534717
       4A    -11.274749     5A    -11.273689     6A    -11.246582
       7A    -11.241184     8A    -11.227135     9A    -11.226815
      10A    -11.212890    11A     -9.140598    12A     -6.824987
      13A     -6.824578    14A     -6.824386    15A     -1.425802
      16A     -1.316569    17A     -1.115741    18A     -1.096225
      19A     -1.013746    20A     -0.961201    21A     -0.937733
      22A     -0.851497    23A     -0.805126    24A     -0.778724
      25A     -0.687806    26A     -0.675854    27A     -0.663701
      28A     -0.642707    29A     -0.619516    30A     -0.605150
      31A     -0.591854    32A     -0.581178    33A     -0.569544
      34A     -0.553810    35A     -0.539672    36A     -0.528480
      37A     -0.510509    38A     -0.503232    39A     -0.496276
      40A     -0.487263    41A     -0.482401    42A     -0.475316
      43A     -0.470401    44A     -0.456331    45A     -0.418207

  @DF-RHF Final Energy:  -821.78351344474663

   => Energetics <=

    Nuclear Repulsion Energy =            707.3999266771828616
    One-Electron Energy =               -2531.5279069120083477
    Two-Electron Energy =                1002.3444667900787408
    Total Energy =                       -821.7835134447466316
  Basis Set: (AUG-CC-PVTZ AUX)
    Blend: AUG-CC-PVTZ-RI
    Molecular point group: c1

    Geometry (in Angstrom), charge = 0, multiplicity = 1:

       Center              X                  Y                   Z               Mass
    ------------   -----------------  -----------------  -----------------  -----------------
         S           -0.246739044309    -0.291137436035     0.121569092860    31.972071174400
         O           -0.275434044309    -1.481220436035    -0.749165907140    15.994914619570
         O           -0.180736044309    -0.440813436035     1.587601092860    15.994914619570
         C            1.118329955691     0.771652563965    -0.373039907140    12.000000000000
         C            2.460174955691     0.303546563965     0.196412092860    12.000000000000
         C           -1.701404044309     0.688220563965    -0.267048907140    12.000000000000
         C           -2.966746044309    -0.107820436035     0.038962092860    12.000000000000
         C            2.904223955691    -1.035996436035    -0.389611907140    12.000000000000
         C            3.508566955691     1.386107563965    -0.061791907140    12.000000000000
         C           -4.219913044309     0.705588563965    -0.272844907140    12.000000000000
         H            1.130730955691     0.792485563965    -1.468682907140     1.007825032230
         H            0.874385955691     1.772637563965     0.001574092860     1.007825032230
         H            2.330750955691     0.191090563965     1.279324092860     1.007825032230
         H           -1.640969044309     0.949941563965    -1.329086907140     1.007825032230
         H           -1.647738044309     1.601569563965     0.334377092860     1.007825032230
         H           -2.953556044309    -1.030409436035    -0.548661907140     1.007825032230
         H           -2.953883044309    -0.396527436035     1.094515092860     1.007825032230
         H            3.010535955691    -0.959587436035    -1.477435907140     1.007825032230
         H            2.191426955691    -1.834979436035    -0.178817907140     1.007825032230
         H            3.875865955691    -1.320201436035     0.025820092860     1.007825032230
         H            3.647800955691     1.542115563965    -1.137093907140     1.007825032230
         H            3.221321955691     2.341433563965     0.388909092860     1.007825032230
         H            4.472835955691     1.089123563965     0.361385092860     1.007825032230
         H           -4.254134844309     1.604921663965     0.313423592860     1.007825032230
         H           -4.254204044309     0.987629563965    -1.329463907140     1.007825032230
         H           -5.119915044309     0.125851563965    -0.050923907140     1.007825032230

  Basis Set: AUG-CC-PVTZ
    Blend: AUG-CC-PVTZ
  Basis Set: (AUG-CC-PVTZ AUX)
    Blend: AUG-CC-PVTZ-JKFIT
	 Reference Energy          =    -821.7835134447466316 [Eh]
	 Singles Energy            =      -0.0000000000000000 [Eh]
	 Same-Spin Energy          =      -0.5010571914945450 [Eh]
	 Opposite-Spin Energy      =      -1.6487815617899209 [Eh]
	 Correlation Energy        =      -2.1498387532844658 [Eh]
	 Total Energy              =    -823.9333521980311161 [Eh]

	 ================> DF-SCS-MP2 Energies <==================
	-----------------------------------------------------------
	 SCS Same-Spin Scale       =       0.3333333333333333 [-]
	 SCS Opposite-Spin Scale   =       1.2000000000000000 [-]
	 SCS Same-Spin Energy      =      -0.1670190638315150 [Eh]
	 SCS Opposite-Spin Energy  =      -1.9785378741479049 [Eh]
	 SCS Correlation Energy    =      -2.1455569379794199 [Eh]
	 SCS Total Energy          =    -823.9290703827260813 [Eh]
	-----------------------------------------------------------

  Dipole Moment: [D]
     X:    -0.2067      Y:     3.8097      Z:    -1.5695     Total:     4.1255

*** Psi4 exiting successfully. Buy a developer a beer!
