                               Psi4 1.4a3.dev225

  ==> Input File <==

--------------------------------------------------------------------------
#psi4
#
memory 32 gb

molecule  {
0 1
  S       -0.2573260    -0.3323280     0.1419150
  O       -0.2860210    -1.5224110    -0.7288200
  O       -0.1913230    -0.4820040     1.6079470
  C        1.1077430     0.7304620    -0.3526940
  C        2.4495880     0.2623560     0.2167580
  C       -1.7119910     0.6470300    -0.2467030
  C       -2.9773330    -0.1490110     0.0593080
  C        2.8936370    -1.0771870    -0.3692660
  C        3.4979800     1.3449170    -0.0414460
  C       -4.2305000     0.6643980    -0.2524990
  H        1.1201440     0.7512950    -1.4483370
  H        0.8637990     1.7314470     0.0219200
  H        2.3201640     0.1499000     1.2996700
  H       -1.6515560     0.9087510    -1.3087410
  H       -1.6583250     1.5603790     0.3547230
  H       -2.9641430    -1.0716000    -0.5283160
  H       -2.9644700    -0.4377180     1.1148610
  H        2.9999490    -1.0007780    -1.4570900
  H        2.1808400    -1.8761700    -0.1584720
  H        3.8652790    -1.3613920     0.0461660
  H        3.6372140     1.5009250    -1.1167480
  H        3.2107350     2.3002430     0.4092550
  H        4.4622490     1.0479330     0.3817310
  H       -4.2669521     1.6223417     0.3719773
  H       -4.2647910     0.9464390    -1.3091180
  H       -5.1305020     0.0846610    -0.0305780
units angstrom
no_reorient  #important for SAPT in psi4, default
symmetry c1  #important for SAPT in psi4, default
}

set PROPERTIES_ORIGIN ["COM"]
properties('MP2/aug-cc-pvtz', properties = ['dipole'])
--------------------------------------------------------------------------

    Molecular point group: c1
  Charge       = 0
  Multiplicity = 1
  Basis Set: AUG-CC-PVTZ
    Blend: AUG-CC-PVTZ
  Basis Set: (AUG-CC-PVTZ AUX)
    Blend: AUG-CC-PVTZ-JKFIT

    Orbital Energies [Eh]
    ---------------------

    Doubly Occupied:

       1A    -92.170236     2A    -20.535599     3A    -20.534852
       4A    -11.274884     5A    -11.273770     6A    -11.246644
       7A    -11.242082     8A    -11.235823     9A    -11.226856
      10A    -11.212953    11A     -9.140717    12A     -6.825105
      13A     -6.824697    14A     -6.824505    15A     -1.425935
      16A     -1.316700    17A     -1.115790    18A     -1.095818
      19A     -1.012784    20A     -0.959081    21A     -0.937777
      22A     -0.848770    23A     -0.804514    24A     -0.778805
      25A     -0.687859    26A     -0.675638    27A     -0.663249
      28A     -0.642751    29A     -0.618749    30A     -0.605193
      31A     -0.590947    32A     -0.580912    33A     -0.564680
      34A     -0.553834    35A     -0.539746    36A     -0.528992
      37A     -0.509799    38A     -0.502596    39A     -0.493762
      40A     -0.486911    41A     -0.482455    42A     -0.475373
      43A     -0.470450    44A     -0.456455    45A     -0.418360

  @DF-RHF Final Energy:  -821.78150852609951

   => Energetics <=

    Nuclear Repulsion Energy =            707.1153598603888213
    One-Electron Energy =               -2530.9669334784439343
    Two-Electron Energy =                1002.0700650919557120
    Total Energy =                       -821.7815085260995147
  Basis Set: (AUG-CC-PVTZ AUX)
    Blend: AUG-CC-PVTZ-RI
    Molecular point group: c1

    Geometry (in Angstrom), charge = 0, multiplicity = 1:

       Center              X                  Y                   Z               Mass
    ------------   -----------------  -----------------  -----------------  -----------------
         S           -0.246725345778    -0.291497423076     0.121334420073    31.972071174400
         O           -0.275420345778    -1.481580423076    -0.749400579927    15.994914619570
         O           -0.180722345778    -0.441173423076     1.587366420073    15.994914619570
         C            1.118343654222     0.771292576924    -0.373274579927    12.000000000000
         C            2.460188654222     0.303186576924     0.196177420073    12.000000000000
         C           -1.701390345778     0.687860576924    -0.267283579927    12.000000000000
         C           -2.966732345778    -0.108180423076     0.038727420073    12.000000000000
         C            2.904237654222    -1.036356423076    -0.389846579927    12.000000000000
         C            3.508580654222     1.385747576924    -0.062026579927    12.000000000000
         C           -4.219899345778     0.705228576924    -0.273079579927    12.000000000000
         H            1.130744654222     0.792125576924    -1.468917579927     1.007825032230
         H            0.874399654222     1.772277576924     0.001339420073     1.007825032230
         H            2.330764654222     0.190730576924     1.279089420073     1.007825032230
         H           -1.640955345778     0.949581576924    -1.329321579927     1.007825032230
         H           -1.647724345778     1.601209576924     0.334142420073     1.007825032230
         H           -2.953542345778    -1.030769423076    -0.548896579927     1.007825032230
         H           -2.953869345778    -0.396887423076     1.094280420073     1.007825032230
         H            3.010549654222    -0.959947423076    -1.477670579927     1.007825032230
         H            2.191440654222    -1.835339423076    -0.179052579927     1.007825032230
         H            3.875879654222    -1.320561423076     0.025585420073     1.007825032230
         H            3.647814654222     1.541755576924    -1.137328579927     1.007825032230
         H            3.221335654222     2.341073576924     0.388674420073     1.007825032230
         H            4.472849654222     1.088763576924     0.361150420073     1.007825032230
         H           -4.256351445778     1.663172276924     0.351396720073     1.007825032230
         H           -4.254190345778     0.987269576924    -1.329698579927     1.007825032230
         H           -5.119901345778     0.125491576924    -0.051158579927     1.007825032230

  Basis Set: AUG-CC-PVTZ
    Blend: AUG-CC-PVTZ
  Basis Set: (AUG-CC-PVTZ AUX)
    Blend: AUG-CC-PVTZ-JKFIT
	 Reference Energy          =    -821.7815085260995147 [Eh]
	 Singles Energy            =      -0.0000000000000000 [Eh]
	 Same-Spin Energy          =      -0.5010138181943058 [Eh]
	 Opposite-Spin Energy      =      -1.6491809371216326 [Eh]
	 Correlation Energy        =      -2.1501947553159386 [Eh]
	 Total Energy              =    -823.9317032814154800 [Eh]

	 ================> DF-SCS-MP2 Energies <==================
	-----------------------------------------------------------
	 SCS Same-Spin Scale       =       0.3333333333333333 [-]
	 SCS Opposite-Spin Scale   =       1.2000000000000000 [-]
	 SCS Same-Spin Energy      =      -0.1670046060647686 [Eh]
	 SCS Opposite-Spin Energy  =      -1.9790171245459591 [Eh]
	 SCS Correlation Energy    =      -2.1460217306107277 [Eh]
	 SCS Total Energy          =    -823.9275302567102699 [Eh]
	-----------------------------------------------------------

  Dipole Moment: [D]
     X:    -0.1933      Y:     3.7702      Z:    -1.5886     Total:     4.0957

*** Psi4 exiting successfully. Buy a developer a beer!
