                               Psi4 1.4a3.dev225

  ==> Input File <==

--------------------------------------------------------------------------
#psi4
#
memory 32 gb

molecule  {
0 1
  S       -0.2573260    -0.3323280     0.1419150
  O       -0.2860210    -1.5224110    -0.7288200
  O       -0.1913230    -0.4820040     1.6079470
  C        1.1077430     0.7304620    -0.3526940
  C        2.4495880     0.2623560     0.2167580
  C       -1.7119910     0.6470300    -0.2467030
  C       -2.9773330    -0.1490110     0.0593080
  C        2.8936370    -1.0771870    -0.3692660
  C        3.4979800     1.3449170    -0.0414460
  C       -4.2305000     0.6643980    -0.2524990
  H        1.1201440     0.7512950    -1.4483370
  H        0.8637990     1.7314470     0.0219200
  H        2.3201640     0.1499000     1.2996700
  H       -1.6515560     0.9087510    -1.3087410
  H       -1.6583250     1.5603790     0.3547230
  H       -2.9641430    -1.0716000    -0.5283160
  H       -2.9644700    -0.4377180     1.1148610
  H        3.0497462    -0.9438961    -1.4455397
  H        2.1808400    -1.8761700    -0.1584720
  H        3.8652790    -1.3613920     0.0461660
  H        3.6372140     1.5009250    -1.1167480
  H        3.2107350     2.3002430     0.4092550
  H        4.4622490     1.0479330     0.3817310
  H       -4.2653590     1.5804770     0.3446860
  H       -4.2647910     0.9464390    -1.3091180
  H       -5.1305020     0.0846610    -0.0305780
units angstrom
no_reorient  #important for SAPT in psi4, default
symmetry c1  #important for SAPT in psi4, default
}

set PROPERTIES_ORIGIN ["COM"]
properties('MP2/aug-cc-pvtz', properties = ['dipole'])
--------------------------------------------------------------------------

    Molecular point group: c1
  Charge       = 0
  Multiplicity = 1
  Basis Set: AUG-CC-PVTZ
    Blend: AUG-CC-PVTZ
  Basis Set: (AUG-CC-PVTZ AUX)
    Blend: AUG-CC-PVTZ-JKFIT

    Orbital Energies [Eh]
    ---------------------

    Doubly Occupied:

       1A    -92.170122     2A    -20.535530     3A    -20.534719
       4A    -11.274754     5A    -11.273632     6A    -11.246113
       7A    -11.241403     8A    -11.229629     9A    -11.226971
      10A    -11.213212    11A     -9.140604    12A     -6.824993
      13A     -6.824584    14A     -6.824392    15A     -1.425831
      16A     -1.316591    17A     -1.115919    18A     -1.096100
      19A     -1.013574    20A     -0.960627    21A     -0.937620
      22A     -0.850643    23A     -0.804834    24A     -0.778326
      25A     -0.688042    26A     -0.675775    27A     -0.663630
      28A     -0.642502    29A     -0.619507    30A     -0.604609
      31A     -0.591561    32A     -0.582940    33A     -0.568172
      34A     -0.554249    35A     -0.538862    36A     -0.528333
      37A     -0.510233    38A     -0.503664    39A     -0.495888
      40A     -0.487760    41A     -0.480598    42A     -0.475084
      43A     -0.470900    44A     -0.456330    45A     -0.418197

  @DF-RHF Final Energy:  -821.78288413317318

   => Energetics <=

    Nuclear Repulsion Energy =            707.3201973397719939
    One-Electron Energy =               -2531.3710455808964070
    Two-Electron Energy =                1002.2679641079512294
    Total Energy =                       -821.7828841331731837
  Basis Set: (AUG-CC-PVTZ AUX)
    Blend: AUG-CC-PVTZ-RI
    Molecular point group: c1

    Geometry (in Angstrom), charge = 0, multiplicity = 1:

       Center              X                  Y                   Z               Mass
    ------------   -----------------  -----------------  -----------------  -----------------
         S           -0.247040985645    -0.291589658907     0.121431101493    31.972071174400
         O           -0.275735985645    -1.481672658907    -0.749303898507    15.994914619570
         O           -0.181037985645    -0.441265658907     1.587463101493    15.994914619570
         C            1.118028014355     0.771200341093    -0.373177898507    12.000000000000
         C            2.459873014355     0.303094341093     0.196274101493    12.000000000000
         C           -1.701705985645     0.687768341093    -0.267186898507    12.000000000000
         C           -2.967047985645    -0.108272658907     0.038824101493    12.000000000000
         C            2.903922014355    -1.036448658907    -0.389749898507    12.000000000000
         C            3.508265014355     1.385655341093    -0.061929898507    12.000000000000
         C           -4.220214985645     0.705136341093    -0.272982898507    12.000000000000
         H            1.130429014355     0.792033341093    -1.468820898507     1.007825032230
         H            0.874084014355     1.772185341093     0.001436101493     1.007825032230
         H            2.330449014355     0.190638341093     1.279186101493     1.007825032230
         H           -1.641270985645     0.949489341093    -1.329224898507     1.007825032230
         H           -1.648039985645     1.601117341093     0.334239101493     1.007825032230
         H           -2.953857985645    -1.030861658907    -0.548799898507     1.007825032230
         H           -2.954184985645    -0.396979658907     1.094377101493     1.007825032230
         H            3.060031214355    -0.903157758907    -1.466023598507     1.007825032230
         H            2.191125014355    -1.835431658907    -0.178955898507     1.007825032230
         H            3.875564014355    -1.320653658907     0.025682101493     1.007825032230
         H            3.647499014355     1.541663341093    -1.137231898507     1.007825032230
         H            3.221020014355     2.340981341093     0.388771101493     1.007825032230
         H            4.472534014355     1.088671341093     0.361247101493     1.007825032230
         H           -4.255073985645     1.621215341093     0.324202101493     1.007825032230
         H           -4.254505985645     0.987177341093    -1.329601898507     1.007825032230
         H           -5.120216985645     0.125399341093    -0.051061898507     1.007825032230

  Basis Set: AUG-CC-PVTZ
    Blend: AUG-CC-PVTZ
  Basis Set: (AUG-CC-PVTZ AUX)
    Blend: AUG-CC-PVTZ-JKFIT
	 Reference Energy          =    -821.7828841331731837 [Eh]
	 Singles Energy            =      -0.0000000000000000 [Eh]
	 Same-Spin Energy          =      -0.5011072067903032 [Eh]
	 Opposite-Spin Energy      =      -1.6489873645812145 [Eh]
	 Correlation Energy        =      -2.1500945713715178 [Eh]
	 Total Energy              =    -823.9329787045446665 [Eh]

	 ================> DF-SCS-MP2 Energies <==================
	-----------------------------------------------------------
	 SCS Same-Spin Scale       =       0.3333333333333333 [-]
	 SCS Opposite-Spin Scale   =       1.2000000000000000 [-]
	 SCS Same-Spin Energy      =      -0.1670357355967677 [Eh]
	 SCS Opposite-Spin Energy  =      -1.9787848374974573 [Eh]
	 SCS Correlation Energy    =      -2.1458205730942250 [Eh]
	 SCS Total Energy          =    -823.9287047062673537 [Eh]
	-----------------------------------------------------------

  Dipole Moment: [D]
     X:    -0.1871      Y:     3.8106      Z:    -1.5641     Total:     4.1234

*** Psi4 exiting successfully. Buy a developer a beer!
