                               Psi4 1.4a3.dev225

  ==> Input File <==

--------------------------------------------------------------------------
#psi4
#
memory 32 gb

molecule  {
0 1
  S       -0.2573260    -0.3323280     0.1419150
  O       -0.2860210    -1.5224110    -0.7288200
  O       -0.1913230    -0.4820040     1.6079470
  C        1.1077430     0.7304620    -0.3526940
  C        2.4561787     0.4026202     0.2939804
  C       -1.7119910     0.6470300    -0.2467030
  C       -2.9773330    -0.1490110     0.0593080
  C        2.8936370    -1.0771870    -0.3692660
  C        3.4979800     1.3449170    -0.0414460
  C       -4.2305000     0.6643980    -0.2524990
  H        1.1201440     0.7512950    -1.4483370
  H        0.8637990     1.7314470     0.0219200
  H        2.3201640     0.1499000     1.2996700
  H       -1.6515560     0.9087510    -1.3087410
  H       -1.6583250     1.5603790     0.3547230
  H       -2.9641430    -1.0716000    -0.5283160
  H       -2.9644700    -0.4377180     1.1148610
  H        2.9999490    -1.0007780    -1.4570900
  H        2.1808400    -1.8761700    -0.1584720
  H        3.8652790    -1.3613920     0.0461660
  H        3.6372140     1.5009250    -1.1167480
  H        3.2107350     2.3002430     0.4092550
  H        4.4622490     1.0479330     0.3817310
  H       -4.2653590     1.5804770     0.3446860
  H       -4.2647910     0.9464390    -1.3091180
  H       -5.1305020     0.0846610    -0.0305780
units angstrom
no_reorient  #important for SAPT in psi4, default
symmetry c1  #important for SAPT in psi4, default
}

set PROPERTIES_ORIGIN ["COM"]
properties('MP2/aug-cc-pvtz', properties = ['dipole'])
--------------------------------------------------------------------------

    Molecular point group: c1
  Charge       = 0
  Multiplicity = 1
  Basis Set: AUG-CC-PVTZ
    Blend: AUG-CC-PVTZ
  Basis Set: (AUG-CC-PVTZ AUX)
    Blend: AUG-CC-PVTZ-JKFIT

    Orbital Energies [Eh]
    ---------------------

    Doubly Occupied:

       1A    -92.172122     2A    -20.536135     3A    -20.535151
       4A    -11.275807     5A    -11.273851     6A    -11.246553
       7A    -11.242011     8A    -11.230108     9A    -11.224951
      10A    -11.214828    11A     -9.142348    12A     -6.826716
      13A     -6.826398    14A     -6.826145    15A     -1.426361
      16A     -1.317146    17A     -1.116786    18A     -1.096843
      19A     -1.015521    20A     -0.963453    21A     -0.925361
      22A     -0.852314    23A     -0.808720    24A     -0.784511
      25A     -0.689340    26A     -0.675261    27A     -0.663131
      28A     -0.643130    29A     -0.618547    30A     -0.603086
      31A     -0.592474    32A     -0.581183    33A     -0.570137
      34A     -0.568149    35A     -0.536310    36A     -0.528190
      37A     -0.516591    38A     -0.508588    39A     -0.497576
      40A     -0.494836    41A     -0.479570    42A     -0.476414
      43A     -0.457225    44A     -0.429711    45A     -0.421553

  @DF-RHF Final Energy:  -821.76146454394745

   => Energetics <=

    Nuclear Repulsion Energy =            706.4509424983210693
    One-Electron Energy =               -2529.5625364957850252
    Two-Electron Energy =                1001.3501294535163879
    Total Energy =                       -821.7614645439474543
  Basis Set: (AUG-CC-PVTZ AUX)
    Blend: AUG-CC-PVTZ-RI
    Molecular point group: c1

    Geometry (in Angstrom), charge = 0, multiplicity = 1:

       Center              X                  Y                   Z               Mass
    ------------   -----------------  -----------------  -----------------  -----------------
         S           -0.247217120973    -0.301498075766     0.115854623431    31.972071174400
         O           -0.275912120973    -1.491581075766    -0.754880376569    15.994914619570
         O           -0.181214120973    -0.451174075766     1.581886623431    15.994914619570
         C            1.117851879027     0.761291924234    -0.378754376569    12.000000000000
         C            2.466287579027     0.433450124234     0.267920023431    12.000000000000
         C           -1.701882120973     0.677859924234    -0.272763376569    12.000000000000
         C           -2.967224120973    -0.118181075766     0.033247623431    12.000000000000
         C            2.903745879027    -1.046357075766    -0.395326376569    12.000000000000
         C            3.508088879027     1.375746924234    -0.067506376569    12.000000000000
         C           -4.220391120973     0.695227924234    -0.278559376569    12.000000000000
         H            1.130252879027     0.782124924234    -1.474397376569     1.007825032230
         H            0.873907879027     1.762276924234    -0.004140376569     1.007825032230
         H            2.330272879027     0.180729924234     1.273609623431     1.007825032230
         H           -1.641447120973     0.939580924234    -1.334801376569     1.007825032230
         H           -1.648216120973     1.591208924234     0.328662623431     1.007825032230
         H           -2.954034120973    -1.040770075766    -0.554376376569     1.007825032230
         H           -2.954361120973    -0.406888075766     1.088800623431     1.007825032230
         H            3.010057879027    -0.969948075766    -1.483150376569     1.007825032230
         H            2.190948879027    -1.845340075766    -0.184532376569     1.007825032230
         H            3.875387879027    -1.330562075766     0.020105623431     1.007825032230
         H            3.647322879027     1.531754924234    -1.142808376569     1.007825032230
         H            3.220843879027     2.331072924234     0.383194623431     1.007825032230
         H            4.472357879027     1.078762924234     0.355670623431     1.007825032230
         H           -4.255250120973     1.611306924234     0.318625623431     1.007825032230
         H           -4.254682120973     0.977268924234    -1.335178376569     1.007825032230
         H           -5.120393120973     0.115490924234    -0.056638376569     1.007825032230

  Basis Set: AUG-CC-PVTZ
    Blend: AUG-CC-PVTZ
  Basis Set: (AUG-CC-PVTZ AUX)
    Blend: AUG-CC-PVTZ-JKFIT
	 Reference Energy          =    -821.7614645439474543 [Eh]
	 Singles Energy            =      -0.0000000000000000 [Eh]
	 Same-Spin Energy          =      -0.5015062931594670 [Eh]
	 Opposite-Spin Energy      =      -1.6502167127547320 [Eh]
	 Correlation Energy        =      -2.1517230059141990 [Eh]
	 Total Energy              =    -823.9131875498616182 [Eh]

	 ================> DF-SCS-MP2 Energies <==================
	-----------------------------------------------------------
	 SCS Same-Spin Scale       =       0.3333333333333333 [-]
	 SCS Opposite-Spin Scale   =       1.2000000000000000 [-]
	 SCS Same-Spin Energy      =      -0.1671687643864890 [Eh]
	 SCS Opposite-Spin Energy  =      -1.9802600553056784 [Eh]
	 SCS Correlation Energy    =      -2.1474288196921676 [Eh]
	 SCS Total Energy          =    -823.9088933636396632 [Eh]
	-----------------------------------------------------------

  Dipole Moment: [D]
     X:    -0.2527      Y:     3.8829      Z:    -1.5546     Total:     4.1901

*** Psi4 exiting successfully. Buy a developer a beer!
