                               Psi4 1.4a3.dev225

  ==> Input File <==

--------------------------------------------------------------------------
#psi4
#
memory 32 gb

molecule  {
0 1
  S       -0.2573260    -0.3323280     0.1419150
  O       -0.2860210    -1.5224110    -0.7288200
  O       -0.1913230    -0.4820040     1.6079470
  C        1.1077430     0.7304620    -0.3526940
  C        2.4282958     0.1272205     0.1332966
  C       -1.7119910     0.6470300    -0.2467030
  C       -2.9773330    -0.1490110     0.0593080
  C        2.8936370    -1.0771870    -0.3692660
  C        3.4979800     1.3449170    -0.0414460
  C       -4.2305000     0.6643980    -0.2524990
  H        1.1201440     0.7512950    -1.4483370
  H        0.8637990     1.7314470     0.0219200
  H        2.3201640     0.1499000     1.2996700
  H       -1.6515560     0.9087510    -1.3087410
  H       -1.6583250     1.5603790     0.3547230
  H       -2.9641430    -1.0716000    -0.5283160
  H       -2.9644700    -0.4377180     1.1148610
  H        2.9999490    -1.0007780    -1.4570900
  H        2.1808400    -1.8761700    -0.1584720
  H        3.8652790    -1.3613920     0.0461660
  H        3.6372140     1.5009250    -1.1167480
  H        3.2107350     2.3002430     0.4092550
  H        4.4622490     1.0479330     0.3817310
  H       -4.2653590     1.5804770     0.3446860
  H       -4.2647910     0.9464390    -1.3091180
  H       -5.1305020     0.0846610    -0.0305780
units angstrom
no_reorient  #important for SAPT in psi4, default
symmetry c1  #important for SAPT in psi4, default
}

set PROPERTIES_ORIGIN ["COM"]
properties('MP2/aug-cc-pvtz', properties = ['dipole'])
--------------------------------------------------------------------------

    Molecular point group: c1
  Charge       = 0
  Multiplicity = 1
  Basis Set: AUG-CC-PVTZ
    Blend: AUG-CC-PVTZ
  Basis Set: (AUG-CC-PVTZ AUX)
    Blend: AUG-CC-PVTZ-JKFIT

    Orbital Energies [Eh]
    ---------------------

    Doubly Occupied:

       1A    -92.168587     2A    -20.535171     3A    -20.534964
       4A    -11.276731     5A    -11.273931     6A    -11.252468
       7A    -11.240967     8A    -11.229646     9A    -11.229288
      10A    -11.208844    11A     -9.139318    12A     -6.823737
      13A     -6.823220    14A     -6.823083    15A     -1.425745
      16A     -1.316449    17A     -1.123066    18A     -1.096805
      19A     -1.018477    20A     -0.964796    21A     -0.940932
      22A     -0.849674    23A     -0.802010    24A     -0.771235
      25A     -0.688200    26A     -0.677498    27A     -0.664785
      28A     -0.643817    29A     -0.620662    30A     -0.611141
      31A     -0.590895    32A     -0.583401    33A     -0.567835
      34A     -0.554387    35A     -0.542716    36A     -0.538303
      37A     -0.521346    38A     -0.506063    39A     -0.498471
      40A     -0.489418    41A     -0.478691    42A     -0.472455
      43A     -0.456188    44A     -0.442064    45A     -0.408316

  @DF-RHF Final Energy:  -821.75436941483770

   => Energetics <=

    Nuclear Repulsion Energy =            708.3658379509760152
    One-Electron Energy =               -2533.3888213702462053
    Two-Electron Energy =                1003.2686140044323793
    Total Energy =                       -821.7543694148376971
  Basis Set: (AUG-CC-PVTZ AUX)
    Blend: AUG-CC-PVTZ-RI
    Molecular point group: c1

    Geometry (in Angstrom), charge = 0, multiplicity = 1:

       Center              X                  Y                   Z               Mass
    ------------   -----------------  -----------------  -----------------  -----------------
         S           -0.245177991766    -0.281357574890     0.127605733598    31.972071174400
         O           -0.273872991766    -1.471440574890    -0.743129266402    15.994914619570
         O           -0.179174991766    -0.431033574890     1.593637733598    15.994914619570
         C            1.119891008234     0.781432425110    -0.367003266402    12.000000000000
         C            2.440443808234     0.178190925110     0.118987333598    12.000000000000
         C           -1.699842991766     0.698000425110    -0.261012266402    12.000000000000
         C           -2.965184991766    -0.098040574890     0.044998733598    12.000000000000
         C            2.905785008234    -1.026216574890    -0.383575266402    12.000000000000
         C            3.510128008234     1.395887425110    -0.055755266402    12.000000000000
         C           -4.218351991766     0.715368425110    -0.266808266402    12.000000000000
         H            1.132292008234     0.802265425110    -1.462646266402     1.007825032230
         H            0.875947008234     1.782417425110     0.007610733598     1.007825032230
         H            2.332312008234     0.200870425110     1.285360733598     1.007825032230
         H           -1.639407991766     0.959721425110    -1.323050266402     1.007825032230
         H           -1.646176991766     1.611349425110     0.340413733598     1.007825032230
         H           -2.951994991766    -1.020629574890    -0.542625266402     1.007825032230
         H           -2.952321991766    -0.386747574890     1.100551733598     1.007825032230
         H            3.012097008234    -0.949807574890    -1.471399266402     1.007825032230
         H            2.192988008234    -1.825199574890    -0.172781266402     1.007825032230
         H            3.877427008234    -1.310421574890     0.031856733598     1.007825032230
         H            3.649362008234     1.551895425110    -1.131057266402     1.007825032230
         H            3.222883008234     2.351213425110     0.394945733598     1.007825032230
         H            4.474397008234     1.098903425110     0.367421733598     1.007825032230
         H           -4.253210991766     1.631447425110     0.330376733598     1.007825032230
         H           -4.252642991766     0.997409425110    -1.323427266402     1.007825032230
         H           -5.118353991766     0.135631425110    -0.044887266402     1.007825032230

  Basis Set: AUG-CC-PVTZ
    Blend: AUG-CC-PVTZ
  Basis Set: (AUG-CC-PVTZ AUX)
    Blend: AUG-CC-PVTZ-JKFIT
	 Reference Energy          =    -821.7543694148376971 [Eh]
	 Singles Energy            =      -0.0000000000000000 [Eh]
	 Same-Spin Energy          =      -0.5027651627223033 [Eh]
	 Opposite-Spin Energy      =      -1.6515579056108884 [Eh]
	 Correlation Energy        =      -2.1543230683331918 [Eh]
	 Total Energy              =    -823.9086924831708529 [Eh]

	 ================> DF-SCS-MP2 Energies <==================
	-----------------------------------------------------------
	 SCS Same-Spin Scale       =       0.3333333333333333 [-]
	 SCS Opposite-Spin Scale   =       1.2000000000000000 [-]
	 SCS Same-Spin Energy      =      -0.1675883875741011 [Eh]
	 SCS Opposite-Spin Energy  =      -1.9818694867330660 [Eh]
	 SCS Correlation Energy    =      -2.1494578743071671 [Eh]
	 SCS Total Energy          =    -823.9038272891448287 [Eh]
	-----------------------------------------------------------

  Dipole Moment: [D]
     X:    -0.1660      Y:     3.7007      Z:    -1.6059     Total:     4.0375

*** Psi4 exiting successfully. Buy a developer a beer!
