                               Psi4 1.4a3.dev225

  ==> Input File <==

--------------------------------------------------------------------------
#psi4
#
memory 32 gb

molecule  {
0 1
  S       -0.2573260    -0.3323280     0.1419150
  O       -0.2860210    -1.5224110    -0.7288200
  O       -0.1913230    -0.4820040     1.6079470
  C        1.1077430     0.7304620    -0.3526940
  C        2.5372333     0.2317807     0.2539529
  C       -1.7119910     0.6470300    -0.2467030
  C       -2.9773330    -0.1490110     0.0593080
  C        2.8936370    -1.0771870    -0.3692660
  C        3.4979800     1.3449170    -0.0414460
  C       -4.2305000     0.6643980    -0.2524990
  H        1.1201440     0.7512950    -1.4483370
  H        0.8637990     1.7314470     0.0219200
  H        2.3201640     0.1499000     1.2996700
  H       -1.6515560     0.9087510    -1.3087410
  H       -1.6583250     1.5603790     0.3547230
  H       -2.9641430    -1.0716000    -0.5283160
  H       -2.9644700    -0.4377180     1.1148610
  H        2.9999490    -1.0007780    -1.4570900
  H        2.1808400    -1.8761700    -0.1584720
  H        3.8652790    -1.3613920     0.0461660
  H        3.6372140     1.5009250    -1.1167480
  H        3.2107350     2.3002430     0.4092550
  H        4.4622490     1.0479330     0.3817310
  H       -4.2653590     1.5804770     0.3446860
  H       -4.2647910     0.9464390    -1.3091180
  H       -5.1305020     0.0846610    -0.0305780
units angstrom
no_reorient  #important for SAPT in psi4, default
symmetry c1  #important for SAPT in psi4, default
}

set PROPERTIES_ORIGIN ["COM"]
properties('MP2/aug-cc-pvtz', properties = ['dipole'])
--------------------------------------------------------------------------

    Molecular point group: c1
  Charge       = 0
  Multiplicity = 1
  Basis Set: AUG-CC-PVTZ
    Blend: AUG-CC-PVTZ
  Basis Set: (AUG-CC-PVTZ AUX)
    Blend: AUG-CC-PVTZ-JKFIT

    Orbital Energies [Eh]
    ---------------------

    Doubly Occupied:

       1A    -92.168249     2A    -20.533905     3A    -20.533068
       4A    -11.273052     5A    -11.272278     6A    -11.250438
       7A    -11.240187     8A    -11.228738     9A    -11.227210
      10A    -11.213119    11A     -9.138618    12A     -6.822996
      13A     -6.822607    14A     -6.822443    15A     -1.424017
      16A     -1.315056    17A     -1.111128    18A     -1.095194
      19A     -1.014558    20A     -0.957801    21A     -0.944734
      22A     -0.846120    23A     -0.802870    24A     -0.781501
      25A     -0.684133    26A     -0.673265    27A     -0.660218
      28A     -0.640650    29A     -0.619723    30A     -0.608782
      31A     -0.590249    32A     -0.581653    33A     -0.566987
      34A     -0.559001    35A     -0.540591    36A     -0.527869
      37A     -0.508198    38A     -0.506962    39A     -0.496275
      40A     -0.495078    41A     -0.476229    42A     -0.472641
      43A     -0.466020    44A     -0.454648    45A     -0.413819

  @DF-RHF Final Energy:  -821.77561987160493

   => Energetics <=

    Nuclear Repulsion Energy =            706.1131288001622579
    One-Electron Energy =               -2529.0117437871276707
    Two-Electron Energy =                1001.1229951153604816
    Total Energy =                       -821.7756198716049312
  Basis Set: (AUG-CC-PVTZ AUX)
    Blend: AUG-CC-PVTZ-RI
    Molecular point group: c1

    Geometry (in Angstrom), charge = 0, multiplicity = 1:

       Center              X                  Y                   Z               Mass
    ------------   -----------------  -----------------  -----------------  -----------------
         S           -0.253144797156    -0.289004260053     0.118781910203    31.972071174400
         O           -0.281839797156    -1.479087260053    -0.751953089797    15.994914619570
         O           -0.187141797156    -0.438680260053     1.584813910203    15.994914619570
         C            1.111924202844     0.773785739947    -0.375827089797    12.000000000000
         C            2.541414502844     0.275104439947     0.230819810203    12.000000000000
         C           -1.707809797156     0.690353739947    -0.269836089797    12.000000000000
         C           -2.973151797156    -0.105687260053     0.036174910203    12.000000000000
         C            2.897818202844    -1.033863260053    -0.392399089797    12.000000000000
         C            3.502161202844     1.388240739947    -0.064579089797    12.000000000000
         C           -4.226318797156     0.707721739947    -0.275632089797    12.000000000000
         H            1.124325202844     0.794618739947    -1.471470089797     1.007825032230
         H            0.867980202844     1.774770739947    -0.001213089797     1.007825032230
         H            2.324345202844     0.193223739947     1.276536910203     1.007825032230
         H           -1.647374797156     0.952074739947    -1.331874089797     1.007825032230
         H           -1.654143797156     1.603702739947     0.331589910203     1.007825032230
         H           -2.959961797156    -1.028276260053    -0.551449089797     1.007825032230
         H           -2.960288797156    -0.394394260053     1.091727910203     1.007825032230
         H            3.004130202844    -0.957454260053    -1.480223089797     1.007825032230
         H            2.185021202844    -1.832846260053    -0.181605089797     1.007825032230
         H            3.869460202844    -1.318068260053     0.023032910203     1.007825032230
         H            3.641395202844     1.544248739947    -1.139881089797     1.007825032230
         H            3.214916202844     2.343566739947     0.386121910203     1.007825032230
         H            4.466430202844     1.091256739947     0.358597910203     1.007825032230
         H           -4.261177797156     1.623800739947     0.321552910203     1.007825032230
         H           -4.260609797156     0.989762739947    -1.332251089797     1.007825032230
         H           -5.126320797156     0.127984739947    -0.053711089797     1.007825032230

  Basis Set: AUG-CC-PVTZ
    Blend: AUG-CC-PVTZ
  Basis Set: (AUG-CC-PVTZ AUX)
    Blend: AUG-CC-PVTZ-JKFIT
	 Reference Energy          =    -821.7756198716049312 [Eh]
	 Singles Energy            =      -0.0000000000000000 [Eh]
	 Same-Spin Energy          =      -0.5011087905044901 [Eh]
	 Opposite-Spin Energy      =      -1.6490616727458385 [Eh]
	 Correlation Energy        =      -2.1501704632503285 [Eh]
	 Total Energy              =    -823.9257903348552645 [Eh]

	 ================> DF-SCS-MP2 Energies <==================
	-----------------------------------------------------------
	 SCS Same-Spin Scale       =       0.3333333333333333 [-]
	 SCS Opposite-Spin Scale   =       1.2000000000000000 [-]
	 SCS Same-Spin Energy      =      -0.1670362635014967 [Eh]
	 SCS Opposite-Spin Energy  =      -1.9788740072950062 [Eh]
	 SCS Correlation Energy    =      -2.1459102707965028 [Eh]
	 SCS Total Energy          =    -823.9215301424014797 [Eh]
	-----------------------------------------------------------

  Dipole Moment: [D]
     X:    -0.0371      Y:     3.8001      Z:    -1.5743     Total:     4.1134

*** Psi4 exiting successfully. Buy a developer a beer!
