                               Psi4 1.4a3.dev225

  ==> Input File <==

--------------------------------------------------------------------------
#psi4
#
memory 32 gb

molecule  {
0 1
  S       -0.2573260    -0.3323280     0.1419150
  O       -0.2856319    -1.5062731    -0.7170125
  O       -0.1913230    -0.4820040     1.6079470
  C        1.1077430     0.7304620    -0.3526940
  C        2.4495880     0.2623560     0.2167580
  C       -1.7119910     0.6470300    -0.2467030
  C       -2.9773330    -0.1490110     0.0593080
  C        2.8936370    -1.0771870    -0.3692660
  C        3.4979800     1.3449170    -0.0414460
  C       -4.2305000     0.6643980    -0.2524990
  H        1.1201440     0.7512950    -1.4483370
  H        0.8637990     1.7314470     0.0219200
  H        2.3201640     0.1499000     1.2996700
  H       -1.6515560     0.9087510    -1.3087410
  H       -1.6583250     1.5603790     0.3547230
  H       -2.9641430    -1.0716000    -0.5283160
  H       -2.9644700    -0.4377180     1.1148610
  H        2.9999490    -1.0007780    -1.4570900
  H        2.1808400    -1.8761700    -0.1584720
  H        3.8652790    -1.3613920     0.0461660
  H        3.6372140     1.5009250    -1.1167480
  H        3.2107350     2.3002430     0.4092550
  H        4.4622490     1.0479330     0.3817310
  H       -4.2653590     1.5804770     0.3446860
  H       -4.2647910     0.9464390    -1.3091180
  H       -5.1305020     0.0846610    -0.0305780
units angstrom
no_reorient  #important for SAPT in psi4, default
symmetry c1  #important for SAPT in psi4, default
}

set PROPERTIES_ORIGIN ["COM"]
properties('MP2/aug-cc-pvtz', properties = ['dipole'])
--------------------------------------------------------------------------

    Molecular point group: c1
  Charge       = 0
  Multiplicity = 1
  Basis Set: AUG-CC-PVTZ
    Blend: AUG-CC-PVTZ
  Basis Set: (AUG-CC-PVTZ AUX)
    Blend: AUG-CC-PVTZ-JKFIT

    Orbital Energies [Eh]
    ---------------------

    Doubly Occupied:

       1A    -92.168660     2A    -20.535204     3A    -20.533998
       4A    -11.273452     5A    -11.272418     6A    -11.246189
       7A    -11.241125     8A    -11.229377     9A    -11.226490
      10A    -11.212993    11A     -9.139378    12A     -6.823747
      13A     -6.823425    14A     -6.823246    15A     -1.432610
      16A     -1.321174    17A     -1.115167    18A     -1.095524
      19A     -1.012566    20A     -0.960073    21A     -0.937625
      22A     -0.849987    23A     -0.804114    24A     -0.778155
      25A     -0.689118    26A     -0.675410    27A     -0.664156
      28A     -0.643703    29A     -0.620781    30A     -0.605064
      31A     -0.591521    32A     -0.581389    33A     -0.568337
      34A     -0.553857    35A     -0.539605    36A     -0.528818
      37A     -0.510276    38A     -0.504054    39A     -0.495481
      40A     -0.486941    41A     -0.482717    42A     -0.475970
      43A     -0.471053    44A     -0.457933    45A     -0.417804

  @DF-RHF Final Energy:  -821.78520098675654

   => Energetics <=

    Nuclear Repulsion Energy =            708.2772991540608700
    One-Electron Energy =               -2533.2836266582917233
    Two-Electron Energy =                1003.2211265174742039
    Total Energy =                       -821.7852009867565357
  Basis Set: (AUG-CC-PVTZ AUX)
    Blend: AUG-CC-PVTZ-RI
    Molecular point group: c1

    Geometry (in Angstrom), charge = 0, multiplicity = 1:

       Center              X                  Y                   Z               Mass
    ------------   -----------------  -----------------  -----------------  -----------------
         S           -0.246773059385    -0.292813382946     0.120351069779    31.972071174400
         O           -0.275078959385    -1.466758482946    -0.738576430221    15.994914619570
         O           -0.180770059385    -0.442489382946     1.586383069779    15.994914619570
         C            1.118295940615     0.769976617054    -0.374257930221    12.000000000000
         C            2.460140940615     0.301870617054     0.195194069779    12.000000000000
         C           -1.701438059385     0.686544617054    -0.268266930221    12.000000000000
         C           -2.966780059385    -0.109496382946     0.037744069779    12.000000000000
         C            2.904189940615    -1.037672382946    -0.390829930221    12.000000000000
         C            3.508532940615     1.384431617054    -0.063009930221    12.000000000000
         C           -4.219947059385     0.703912617054    -0.274062930221    12.000000000000
         H            1.130696940615     0.790809617054    -1.469900930221     1.007825032230
         H            0.874351940615     1.770961617054     0.000356069779     1.007825032230
         H            2.330716940615     0.189414617054     1.278106069779     1.007825032230
         H           -1.641003059385     0.948265617054    -1.330304930221     1.007825032230
         H           -1.647772059385     1.599893617054     0.333159069779     1.007825032230
         H           -2.953590059385    -1.032085382946    -0.549879930221     1.007825032230
         H           -2.953917059385    -0.398203382946     1.093297069779     1.007825032230
         H            3.010501940615    -0.961263382946    -1.478653930221     1.007825032230
         H            2.191392940615    -1.836655382946    -0.180035930221     1.007825032230
         H            3.875831940615    -1.321877382946     0.024602069779     1.007825032230
         H            3.647766940615     1.540439617054    -1.138311930221     1.007825032230
         H            3.221287940615     2.339757617054     0.387691069779     1.007825032230
         H            4.472801940615     1.087447617054     0.360167069779     1.007825032230
         H           -4.254806059385     1.619991617054     0.323122069779     1.007825032230
         H           -4.254238059385     0.985953617054    -1.330681930221     1.007825032230
         H           -5.119949059385     0.124175617054    -0.052141930221     1.007825032230

  Basis Set: AUG-CC-PVTZ
    Blend: AUG-CC-PVTZ
  Basis Set: (AUG-CC-PVTZ AUX)
    Blend: AUG-CC-PVTZ-JKFIT
	 Reference Energy          =    -821.7852009867565357 [Eh]
	 Singles Energy            =      -0.0000000000000000 [Eh]
	 Same-Spin Energy          =      -0.5006509132321406 [Eh]
	 Opposite-Spin Energy      =      -1.6478975987402866 [Eh]
	 Correlation Energy        =      -2.1485485119724270 [Eh]
	 Total Energy              =    -823.9337494987289574 [Eh]

	 ================> DF-SCS-MP2 Energies <==================
	-----------------------------------------------------------
	 SCS Same-Spin Scale       =       0.3333333333333333 [-]
	 SCS Opposite-Spin Scale   =       1.2000000000000000 [-]
	 SCS Same-Spin Energy      =      -0.1668836377440469 [Eh]
	 SCS Opposite-Spin Energy  =      -1.9774771184883440 [Eh]
	 SCS Correlation Energy    =      -2.1443607562323908 [Eh]
	 SCS Total Energy          =    -823.9295617429888807 [Eh]
	-----------------------------------------------------------

  Dipole Moment: [D]
     X:    -0.2042      Y:     3.7090      Z:    -1.6295     Total:     4.0563

*** Psi4 exiting successfully. Buy a developer a beer!
