                               Psi4 1.4a3.dev225

  ==> Input File <==

--------------------------------------------------------------------------
#psi4
#
memory 32 gb

molecule  {
0 1
  S       -0.2573260    -0.3323280     0.1419150
  O       -0.2860210    -1.5224110    -0.7288200
  O       -0.1913230    -0.4820040     1.6079470
  C        1.1077430     0.7304620    -0.3526940
  C        2.4495880     0.2623560     0.2167580
  C       -1.7119910     0.6470300    -0.2467030
  C       -2.9773330    -0.1490110     0.0593080
  C        2.8878251    -1.0596544    -0.3615958
  C        3.4979800     1.3449170    -0.0414460
  C       -4.2305000     0.6643980    -0.2524990
  H        1.1201440     0.7512950    -1.4483370
  H        0.8637990     1.7314470     0.0219200
  H        2.3201640     0.1499000     1.2996700
  H       -1.6515560     0.9087510    -1.3087410
  H       -1.6583250     1.5603790     0.3547230
  H       -2.9641430    -1.0716000    -0.5283160
  H       -2.9644700    -0.4377180     1.1148610
  H        2.9999490    -1.0007780    -1.4570900
  H        2.1808400    -1.8761700    -0.1584720
  H        3.8652790    -1.3613920     0.0461660
  H        3.6372140     1.5009250    -1.1167480
  H        3.2107350     2.3002430     0.4092550
  H        4.4622490     1.0479330     0.3817310
  H       -4.2653590     1.5804770     0.3446860
  H       -4.2647910     0.9464390    -1.3091180
  H       -5.1305020     0.0846610    -0.0305780
units angstrom
no_reorient  #important for SAPT in psi4, default
symmetry c1  #important for SAPT in psi4, default
}

set PROPERTIES_ORIGIN ["COM"]
properties('MP2/aug-cc-pvtz', properties = ['dipole'])
--------------------------------------------------------------------------

    Molecular point group: c1
  Charge       = 0
  Multiplicity = 1
  Basis Set: AUG-CC-PVTZ
    Blend: AUG-CC-PVTZ
  Basis Set: (AUG-CC-PVTZ AUX)
    Blend: AUG-CC-PVTZ-JKFIT

    Orbital Energies [Eh]
    ---------------------

    Doubly Occupied:

       1A    -92.170197     2A    -20.535542     3A    -20.534696
       4A    -11.274816     5A    -11.273771     6A    -11.245851
       7A    -11.241444     8A    -11.229663     9A    -11.226845
      10A    -11.213710    11A     -9.140672    12A     -6.825061
      13A     -6.824652    14A     -6.824459    15A     -1.425843
      16A     -1.316597    17A     -1.117554    18A     -1.096428
      19A     -1.013984    20A     -0.960710    21A     -0.937741
      22A     -0.850548    23A     -0.804870    24A     -0.778882
      25A     -0.687992    26A     -0.675958    27A     -0.663885
      28A     -0.643197    29A     -0.619514    30A     -0.605468
      31A     -0.591520    32A     -0.580894    33A     -0.568207
      34A     -0.553919    35A     -0.538273    36A     -0.528141
      37A     -0.509924    38A     -0.502021    39A     -0.495256
      40A     -0.489021    41A     -0.483295    42A     -0.475489
      43A     -0.469738    44A     -0.456374    45A     -0.418032

  @DF-RHF Final Energy:  -821.78286785206410

   => Energetics <=

    Nuclear Repulsion Energy =            707.6620549638777220
    One-Electron Energy =               -2532.0485333119754614
    Two-Electron Energy =                1002.6036104960335251
    Total Energy =                       -821.7828678520641006
  Basis Set: (AUG-CC-PVTZ AUX)
    Blend: AUG-CC-PVTZ-RI
    Molecular point group: c1

    Geometry (in Angstrom), charge = 0, multiplicity = 1:

       Center              X                  Y                   Z               Mass
    ------------   -----------------  -----------------  -----------------  -----------------
         S           -0.246310095380    -0.292522481758     0.120941107349    31.972071174400
         O           -0.275005095380    -1.482605481758    -0.749793892651    15.994914619570
         O           -0.180307095380    -0.442198481758     1.586973107349    15.994914619570
         C            1.118758904620     0.770267518242    -0.373667892651    12.000000000000
         C            2.460603904620     0.302161518242     0.195784107349    12.000000000000
         C           -1.700975095380     0.686835518242    -0.267676892651    12.000000000000
         C           -2.966317095380    -0.109205481758     0.038334107349    12.000000000000
         C            2.898841004620    -1.019848881758    -0.382569692651    12.000000000000
         C            3.508995904620     1.384722518242    -0.062419892651    12.000000000000
         C           -4.219484095380     0.704203518242    -0.273472892651    12.000000000000
         H            1.131159904620     0.791100518242    -1.469310892651     1.007825032230
         H            0.874814904620     1.771252518242     0.000946107349     1.007825032230
         H            2.331179904620     0.189705518242     1.278696107349     1.007825032230
         H           -1.640540095380     0.948556518242    -1.329714892651     1.007825032230
         H           -1.647309095380     1.600184518242     0.333749107349     1.007825032230
         H           -2.953127095380    -1.031794481758    -0.549289892651     1.007825032230
         H           -2.953454095380    -0.397912481758     1.093887107349     1.007825032230
         H            3.010964904620    -0.960972481758    -1.478063892651     1.007825032230
         H            2.191855904620    -1.836364481758    -0.179445892651     1.007825032230
         H            3.876294904620    -1.321586481758     0.025192107349     1.007825032230
         H            3.648229904620     1.540730518242    -1.137721892651     1.007825032230
         H            3.221750904620     2.340048518242     0.388281107349     1.007825032230
         H            4.473264904620     1.087738518242     0.360757107349     1.007825032230
         H           -4.254343095380     1.620282518242     0.323712107349     1.007825032230
         H           -4.253775095380     0.986244518242    -1.330091892651     1.007825032230
         H           -5.119486095380     0.124466518242    -0.051551892651     1.007825032230

  Basis Set: AUG-CC-PVTZ
    Blend: AUG-CC-PVTZ
  Basis Set: (AUG-CC-PVTZ AUX)
    Blend: AUG-CC-PVTZ-JKFIT
	 Reference Energy          =    -821.7828678520641006 [Eh]
	 Singles Energy            =      -0.0000000000000000 [Eh]
	 Same-Spin Energy          =      -0.5012165491578865 [Eh]
	 Opposite-Spin Energy      =      -1.6490522101402809 [Eh]
	 Correlation Energy        =      -2.1502687592981675 [Eh]
	 Total Energy              =    -823.9331366113622153 [Eh]

	 ================> DF-SCS-MP2 Energies <==================
	-----------------------------------------------------------
	 SCS Same-Spin Scale       =       0.3333333333333333 [-]
	 SCS Opposite-Spin Scale   =       1.2000000000000000 [-]
	 SCS Same-Spin Energy      =      -0.1670721830526288 [Eh]
	 SCS Opposite-Spin Energy  =      -1.9788626521683370 [Eh]
	 SCS Correlation Energy    =      -2.1459348352209657 [Eh]
	 SCS Total Energy          =    -823.9288026872850423 [Eh]
	-----------------------------------------------------------

  Dipole Moment: [D]
     X:    -0.2063      Y:     3.7951      Z:    -1.5737     Total:     4.1137

*** Psi4 exiting successfully. Buy a developer a beer!
