                               Psi4 1.4a3.dev225

  ==> Input File <==

--------------------------------------------------------------------------
#psi4
#
memory 32 gb

molecule  {
0 1
  S       -0.2573260    -0.3323280     0.1419150
  O       -0.2860210    -1.5224110    -0.7288200
  O       -0.1913230    -0.4820040     1.6079470
  C        0.9560119     0.6123300    -0.2977169
  C        2.4495880     0.2623560     0.2167580
  C       -1.7119910     0.6470300    -0.2467030
  C       -2.9773330    -0.1490110     0.0593080
  C        2.8936370    -1.0771870    -0.3692660
  C        3.4979800     1.3449170    -0.0414460
  C       -4.2305000     0.6643980    -0.2524990
  H        1.1201440     0.7512950    -1.4483370
  H        0.8637990     1.7314470     0.0219200
  H        2.3201640     0.1499000     1.2996700
  H       -1.6515560     0.9087510    -1.3087410
  H       -1.6583250     1.5603790     0.3547230
  H       -2.9641430    -1.0716000    -0.5283160
  H       -2.9644700    -0.4377180     1.1148610
  H        2.9999490    -1.0007780    -1.4570900
  H        2.1808400    -1.8761700    -0.1584720
  H        3.8652790    -1.3613920     0.0461660
  H        3.6372140     1.5009250    -1.1167480
  H        3.2107350     2.3002430     0.4092550
  H        4.4622490     1.0479330     0.3817310
  H       -4.2653590     1.5804770     0.3446860
  H       -4.2647910     0.9464390    -1.3091180
  H       -5.1305020     0.0846610    -0.0305780
units angstrom
no_reorient  #important for SAPT in psi4, default
symmetry c1  #important for SAPT in psi4, default
}

set PROPERTIES_ORIGIN ["COM"]
properties('MP2/aug-cc-pvtz', properties = ['dipole'])
--------------------------------------------------------------------------

    Molecular point group: c1
  Charge       = 0
  Multiplicity = 1
  Basis Set: AUG-CC-PVTZ
    Blend: AUG-CC-PVTZ
  Basis Set: (AUG-CC-PVTZ AUX)
    Blend: AUG-CC-PVTZ-JKFIT

    Orbital Energies [Eh]
    ---------------------

    Doubly Occupied:

       1A    -92.168513     2A    -20.532845     3A    -20.532124
       4A    -11.274585     5A    -11.271783     6A    -11.258846
       7A    -11.239369     8A    -11.232817     9A    -11.228287
      10A    -11.213139    11A     -9.141664    12A     -6.826719
      13A     -6.825582    14A     -6.825228    15A     -1.432062
      16A     -1.316511    17A     -1.119262    18A     -1.093053
      19A     -1.036105    20A     -0.963409    21A     -0.938687
      22A     -0.847976    23A     -0.810445    24A     -0.769704
      25A     -0.701816    26A     -0.674329    27A     -0.662527
      28A     -0.641004    29A     -0.618234    30A     -0.599581
      31A     -0.590466    32A     -0.572881    33A     -0.566657
      34A     -0.552741    35A     -0.538899    36A     -0.529282
      37A     -0.509440    38A     -0.501160    39A     -0.493908
      40A     -0.487997    41A     -0.477817    42A     -0.473921
      43A     -0.463705    44A     -0.450354    45A     -0.430490

  @DF-RHF Final Energy:  -821.74467786938885

   => Energetics <=

    Nuclear Repulsion Energy =            711.1962048670634431
    One-Electron Energy =               -2539.0099182666617708
    Two-Electron Energy =                1006.0690355302094758
    Total Energy =                       -821.7446778693888518
  Basis Set: (AUG-CC-PVTZ AUX)
    Blend: AUG-CC-PVTZ-RI
    Molecular point group: c1

    Geometry (in Angstrom), charge = 0, multiplicity = 1:

       Center              X                  Y                   Z               Mass
    ------------   -----------------  -----------------  -----------------  -----------------
         S           -0.235638748333    -0.282601073001     0.117481464289    31.972071174400
         O           -0.264333748333    -1.472684073001    -0.753253535711    15.994914619570
         O           -0.169635748333    -0.432277073001     1.583513464289    15.994914619570
         C            0.977699151667     0.662056926999    -0.322150435711    12.000000000000
         C            2.471275251667     0.312082926999     0.192324464289    12.000000000000
         C           -1.690303748333     0.696756926999    -0.271136535711    12.000000000000
         C           -2.955645748333    -0.099284073001     0.034874464289    12.000000000000
         C            2.915324251667    -1.027460073001    -0.393699535711    12.000000000000
         C            3.519667251667     1.394643926999    -0.065879535711    12.000000000000
         C           -4.208812748333     0.714124926999    -0.276932535711    12.000000000000
         H            1.141831251667     0.801021926999    -1.472770535711     1.007825032230
         H            0.885486251667     1.781173926999    -0.002513535711     1.007825032230
         H            2.341851251667     0.199626926999     1.275236464289     1.007825032230
         H           -1.629868748333     0.958477926999    -1.333174535711     1.007825032230
         H           -1.636637748333     1.610105926999     0.330289464289     1.007825032230
         H           -2.942455748333    -1.021873073001    -0.552749535711     1.007825032230
         H           -2.942782748333    -0.387991073001     1.090427464289     1.007825032230
         H            3.021636251667    -0.951051073001    -1.481523535711     1.007825032230
         H            2.202527251667    -1.826443073001    -0.182905535711     1.007825032230
         H            3.886966251667    -1.311665073001     0.021732464289     1.007825032230
         H            3.658901251667     1.550651926999    -1.141181535711     1.007825032230
         H            3.232422251667     2.349969926999     0.384821464289     1.007825032230
         H            4.483936251667     1.097659926999     0.357297464289     1.007825032230
         H           -4.243671748333     1.630203926999     0.320252464289     1.007825032230
         H           -4.243103748333     0.996165926999    -1.333551535711     1.007825032230
         H           -5.108814748333     0.134387926999    -0.055011535711     1.007825032230

  Basis Set: AUG-CC-PVTZ
    Blend: AUG-CC-PVTZ
  Basis Set: (AUG-CC-PVTZ AUX)
    Blend: AUG-CC-PVTZ-JKFIT
	 Reference Energy          =    -821.7446778693888518 [Eh]
	 Singles Energy            =      -0.0000000000000000 [Eh]
	 Same-Spin Energy          =      -0.5029021451827346 [Eh]
	 Opposite-Spin Energy      =      -1.6511294870274775 [Eh]
	 Correlation Energy        =      -2.1540316322102120 [Eh]
	 Total Energy              =    -823.8987095015991144 [Eh]

	 ================> DF-SCS-MP2 Energies <==================
	-----------------------------------------------------------
	 SCS Same-Spin Scale       =       0.3333333333333333 [-]
	 SCS Opposite-Spin Scale   =       1.2000000000000000 [-]
	 SCS Same-Spin Energy      =      -0.1676340483942448 [Eh]
	 SCS Opposite-Spin Energy  =      -1.9813553844329730 [Eh]
	 SCS Correlation Energy    =      -2.1489894328272179 [Eh]
	 SCS Total Energy          =    -823.8936673022160448 [Eh]
	-----------------------------------------------------------

  Dipole Moment: [D]
     X:     0.2388      Y:     3.9803      Z:    -1.6186     Total:     4.3035

*** Psi4 exiting successfully. Buy a developer a beer!
