                               Psi4 1.4a3.dev225

  ==> Input File <==

--------------------------------------------------------------------------
#psi4
#
memory 32 gb

molecule  {
0 1
  S       -0.2573260    -0.3323280     0.1419150
  O       -0.2860210    -1.5224110    -0.7288200
  O       -0.1913230    -0.4820040     1.6079470
  C        1.1077430     0.7304620    -0.3526940
  C        2.4495880     0.2623560     0.2167580
  C       -1.7119910     0.6470300    -0.2467030
  C       -2.9773330    -0.1490110     0.0593080
  C        2.8936370    -1.0771870    -0.3692660
  C        3.4979800     1.3449170    -0.0414460
  C       -4.2305000     0.6643980    -0.2524990
  H        1.1201440     0.7512950    -1.4483370
  H        0.8637990     1.7314470     0.0219200
  H        2.3142618     0.1447716     1.3490548
  H       -1.6515560     0.9087510    -1.3087410
  H       -1.6583250     1.5603790     0.3547230
  H       -2.9641430    -1.0716000    -0.5283160
  H       -2.9644700    -0.4377180     1.1148610
  H        2.9999490    -1.0007780    -1.4570900
  H        2.1808400    -1.8761700    -0.1584720
  H        3.8652790    -1.3613920     0.0461660
  H        3.6372140     1.5009250    -1.1167480
  H        3.2107350     2.3002430     0.4092550
  H        4.4622490     1.0479330     0.3817310
  H       -4.2653590     1.5804770     0.3446860
  H       -4.2647910     0.9464390    -1.3091180
  H       -5.1305020     0.0846610    -0.0305780
units angstrom
no_reorient  #important for SAPT in psi4, default
symmetry c1  #important for SAPT in psi4, default
}

set PROPERTIES_ORIGIN ["COM"]
properties('MP2/aug-cc-pvtz', properties = ['dipole'])
--------------------------------------------------------------------------

    Molecular point group: c1
  Charge       = 0
  Multiplicity = 1
  Basis Set: AUG-CC-PVTZ
    Blend: AUG-CC-PVTZ
  Basis Set: (AUG-CC-PVTZ AUX)
    Blend: AUG-CC-PVTZ-JKFIT

    Orbital Energies [Eh]
    ---------------------

    Doubly Occupied:

       1A    -92.170164     2A    -20.535376     3A    -20.534784
       4A    -11.274821     5A    -11.274103     6A    -11.252223
       7A    -11.241439     8A    -11.229659     9A    -11.227136
      10A    -11.213290    11A     -9.140640    12A     -6.825030
      13A     -6.824620    14A     -6.824426    15A     -1.425793
      16A     -1.316553    17A     -1.114605    18A     -1.095837
      19A     -1.013271    20A     -0.960619    21A     -0.937978
      22A     -0.850405    23A     -0.803830    24A     -0.774006
      25A     -0.687682    26A     -0.675629    27A     -0.662448
      28A     -0.642778    29A     -0.618601    30A     -0.605331
      31A     -0.591477    32A     -0.580692    33A     -0.568199
      34A     -0.553917    35A     -0.539763    36A     -0.528659
      37A     -0.510325    38A     -0.503156    39A     -0.495737
      40A     -0.487045    41A     -0.480977    42A     -0.473620
      43A     -0.467486    44A     -0.456300    45A     -0.418355

  @DF-RHF Final Energy:  -821.78127786065886

   => Energetics <=

    Nuclear Repulsion Energy =            707.0790804262423990
    One-Electron Energy =               -2530.9031453680204322
    Two-Electron Energy =                1002.0427870811191724
    Total Energy =                       -821.7812778606588608
  Basis Set: (AUG-CC-PVTZ AUX)
    Blend: AUG-CC-PVTZ-RI
    Molecular point group: c1

    Geometry (in Angstrom), charge = 0, multiplicity = 1:

       Center              X                  Y                   Z               Mass
    ------------   -----------------  -----------------  -----------------  -----------------
         S           -0.246698879232    -0.291208790866     0.121198721519    31.972071174400
         O           -0.275393879232    -1.481291790866    -0.749536278481    15.994914619570
         O           -0.180695879232    -0.440884790866     1.587230721519    15.994914619570
         C            1.118370120768     0.771581209134    -0.373410278481    12.000000000000
         C            2.460215120768     0.303475209134     0.196041721519    12.000000000000
         C           -1.701363879232     0.688149209134    -0.267419278481    12.000000000000
         C           -2.966705879232    -0.107891790866     0.038591721519    12.000000000000
         C            2.904264120768    -1.036067790866    -0.389982278481    12.000000000000
         C            3.508607120768     1.386036209134    -0.062162278481    12.000000000000
         C           -4.219872879232     0.705517209134    -0.273215278481    12.000000000000
         H            1.130771120768     0.792414209134    -1.469053278481     1.007825032230
         H            0.874426120768     1.772566209134     0.001203721519     1.007825032230
         H            2.324888920768     0.185890809134     1.328338521519     1.007825032230
         H           -1.640928879232     0.949870209134    -1.329457278481     1.007825032230
         H           -1.647697879232     1.601498209134     0.334006721519     1.007825032230
         H           -2.953515879232    -1.030480790866    -0.549032278481     1.007825032230
         H           -2.953842879232    -0.396598790866     1.094144721519     1.007825032230
         H            3.010576120768    -0.959658790866    -1.477806278481     1.007825032230
         H            2.191467120768    -1.835050790866    -0.179188278481     1.007825032230
         H            3.875906120768    -1.320272790866     0.025449721519     1.007825032230
         H            3.647841120768     1.542044209134    -1.137464278481     1.007825032230
         H            3.221362120768     2.341362209134     0.388538721519     1.007825032230
         H            4.472876120768     1.089052209134     0.361014721519     1.007825032230
         H           -4.254731879232     1.621596209134     0.323969721519     1.007825032230
         H           -4.254163879232     0.987558209134    -1.329834278481     1.007825032230
         H           -5.119874879232     0.125780209134    -0.051294278481     1.007825032230

  Basis Set: AUG-CC-PVTZ
    Blend: AUG-CC-PVTZ
  Basis Set: (AUG-CC-PVTZ AUX)
    Blend: AUG-CC-PVTZ-JKFIT
	 Reference Energy          =    -821.7812778606588608 [Eh]
	 Singles Energy            =      -0.0000000000000000 [Eh]
	 Same-Spin Energy          =      -0.5011438841890758 [Eh]
	 Opposite-Spin Energy      =      -1.6493285733145302 [Eh]
	 Correlation Energy        =      -2.1504724575036063 [Eh]
	 Total Energy              =    -823.9317503181624716 [Eh]

	 ================> DF-SCS-MP2 Energies <==================
	-----------------------------------------------------------
	 SCS Same-Spin Scale       =       0.3333333333333333 [-]
	 SCS Opposite-Spin Scale   =       1.2000000000000000 [-]
	 SCS Same-Spin Energy      =      -0.1670479613963586 [Eh]
	 SCS Opposite-Spin Energy  =      -1.9791942879774362 [Eh]
	 SCS Correlation Energy    =      -2.1462422493737949 [Eh]
	 SCS Total Energy          =    -823.9275201100326740 [Eh]
	-----------------------------------------------------------

  Dipole Moment: [D]
     X:    -0.2056      Y:     3.7970      Z:    -1.5905     Total:     4.1218

*** Psi4 exiting successfully. Buy a developer a beer!
