                               Psi4 1.4a3.dev225

  ==> Input File <==

--------------------------------------------------------------------------
#psi4
#
memory 32 gb

molecule  {
0 1
  S       -0.2573260    -0.3323280     0.1419150
  O       -0.2860210    -1.5224110    -0.7288200
  O       -0.1913230    -0.4820040     1.6079470
  C        1.1077430     0.7304620    -0.3526940
  C        2.5836553     0.3241722     0.1552174
  C       -1.7119910     0.6470300    -0.2467030
  C       -2.9773330    -0.1490110     0.0593080
  C        2.8936370    -1.0771870    -0.3692660
  C        3.4979800     1.3449170    -0.0414460
  C       -4.2305000     0.6643980    -0.2524990
  H        1.1201440     0.7512950    -1.4483370
  H        0.8637990     1.7314470     0.0219200
  H        2.3201640     0.1499000     1.2996700
  H       -1.6515560     0.9087510    -1.3087410
  H       -1.6583250     1.5603790     0.3547230
  H       -2.9641430    -1.0716000    -0.5283160
  H       -2.9644700    -0.4377180     1.1148610
  H        2.9999490    -1.0007780    -1.4570900
  H        2.1808400    -1.8761700    -0.1584720
  H        3.8652790    -1.3613920     0.0461660
  H        3.6372140     1.5009250    -1.1167480
  H        3.2107350     2.3002430     0.4092550
  H        4.4622490     1.0479330     0.3817310
  H       -4.2653590     1.5804770     0.3446860
  H       -4.2647910     0.9464390    -1.3091180
  H       -5.1305020     0.0846610    -0.0305780
units angstrom
no_reorient  #important for SAPT in psi4, default
symmetry c1  #important for SAPT in psi4, default
}

set PROPERTIES_ORIGIN ["COM"]
properties('MP2/aug-cc-pvtz', properties = ['dipole'])
--------------------------------------------------------------------------

    Molecular point group: c1
  Charge       = 0
  Multiplicity = 1
  Basis Set: AUG-CC-PVTZ
    Blend: AUG-CC-PVTZ
  Basis Set: (AUG-CC-PVTZ AUX)
    Blend: AUG-CC-PVTZ-JKFIT

    Orbital Energies [Eh]
    ---------------------

    Doubly Occupied:

       1A    -92.171292     2A    -20.534274     3A    -20.534144
       4A    -11.275186     5A    -11.272320     6A    -11.253851
       7A    -11.241570     8A    -11.229733     9A    -11.222873
      10A    -11.215199    11A     -9.141353    12A     -6.825702
      13A     -6.825445    14A     -6.825170    15A     -1.424855
      16A     -1.315752    17A     -1.122101    18A     -1.097842
      19A     -1.019402    20A     -0.963459    21A     -0.947362
      22A     -0.847645    23A     -0.801398    24A     -0.767625
      25A     -0.686773    26A     -0.674786    27A     -0.661319
      28A     -0.645279    29A     -0.622162    30A     -0.613030
      31A     -0.593031    32A     -0.585344    33A     -0.568247
      34A     -0.564384    35A     -0.541165    36A     -0.531508
      37A     -0.525749    38A     -0.507943    39A     -0.496790
      40A     -0.481186    41A     -0.475291    42A     -0.463830
      43A     -0.455956    44A     -0.442252    45A     -0.419995

  @DF-RHF Final Energy:  -821.75435354550007

   => Energetics <=

    Nuclear Repulsion Energy =            706.0734747833525944
    One-Electron Energy =               -2528.7925110567143747
    Two-Electron Energy =                1000.9646827278617138
    Total Energy =                       -821.7543535455000665
  Basis Set: (AUG-CC-PVTZ AUX)
    Blend: AUG-CC-PVTZ-RI
    Molecular point group: c1

    Geometry (in Angstrom), charge = 0, multiplicity = 1:

       Center              X                  Y                   Z               Mass
    ------------   -----------------  -----------------  -----------------  -----------------
         S           -0.256539725805    -0.295761025171     0.126002624039    31.972071174400
         O           -0.285234725805    -1.485844025171    -0.744732375961    15.994914619570
         O           -0.190536725805    -0.445437025171     1.592034624039    15.994914619570
         C            1.108529274195     0.767028974829    -0.368606375961    12.000000000000
         C            2.584441574195     0.360739174829     0.139305024039    12.000000000000
         C           -1.711204725805     0.683596974829    -0.262615375961    12.000000000000
         C           -2.976546725805    -0.112444025171     0.043395624039    12.000000000000
         C            2.894423274195    -1.040620025171    -0.385178375961    12.000000000000
         C            3.498766274195     1.381483974829    -0.057358375961    12.000000000000
         C           -4.229713725805     0.700964974829    -0.268411375961    12.000000000000
         H            1.120930274195     0.787861974829    -1.464249375961     1.007825032230
         H            0.864585274195     1.768013974829     0.006007624039     1.007825032230
         H            2.320950274195     0.186466974829     1.283757624039     1.007825032230
         H           -1.650769725805     0.945317974829    -1.324653375961     1.007825032230
         H           -1.657538725805     1.596945974829     0.338810624039     1.007825032230
         H           -2.963356725805    -1.035033025171    -0.544228375961     1.007825032230
         H           -2.963683725805    -0.401151025171     1.098948624039     1.007825032230
         H            3.000735274195    -0.964211025171    -1.473002375961     1.007825032230
         H            2.181626274195    -1.839603025171    -0.174384375961     1.007825032230
         H            3.866065274195    -1.324825025171     0.030253624039     1.007825032230
         H            3.638000274195     1.537491974829    -1.132660375961     1.007825032230
         H            3.211521274195     2.336809974829     0.393342624039     1.007825032230
         H            4.463035274195     1.084499974829     0.365818624039     1.007825032230
         H           -4.264572725805     1.617043974829     0.328773624039     1.007825032230
         H           -4.264004725805     0.983005974829    -1.325030375961     1.007825032230
         H           -5.129715725805     0.121227974829    -0.046490375961     1.007825032230

  Basis Set: AUG-CC-PVTZ
    Blend: AUG-CC-PVTZ
  Basis Set: (AUG-CC-PVTZ AUX)
    Blend: AUG-CC-PVTZ-JKFIT
	 Reference Energy          =    -821.7543535455000665 [Eh]
	 Singles Energy            =      -0.0000000000000000 [Eh]
	 Same-Spin Energy          =      -0.5023974753765577 [Eh]
	 Opposite-Spin Energy      =      -1.6510189462220015 [Eh]
	 Correlation Energy        =      -2.1534164215985592 [Eh]
	 Total Energy              =    -823.9077699670986021 [Eh]

	 ================> DF-SCS-MP2 Energies <==================
	-----------------------------------------------------------
	 SCS Same-Spin Scale       =       0.3333333333333333 [-]
	 SCS Opposite-Spin Scale   =       1.2000000000000000 [-]
	 SCS Same-Spin Energy      =      -0.1674658251255192 [Eh]
	 SCS Opposite-Spin Energy  =      -1.9812227354664018 [Eh]
	 SCS Correlation Energy    =      -2.1486885605919208 [Eh]
	 SCS Total Energy          =    -823.9030421060920162 [Eh]
	-----------------------------------------------------------

  Dipole Moment: [D]
     X:    -0.1269      Y:     3.8395      Z:    -1.5818     Total:     4.1545

*** Psi4 exiting successfully. Buy a developer a beer!
