                               Psi4 1.4a3.dev225

  ==> Input File <==

--------------------------------------------------------------------------
#psi4
#
memory 32 gb

molecule  {
0 1
  S       -0.2573260    -0.3323280     0.1419150
  O       -0.2860210    -1.5224110    -0.7288200
  O       -0.1913230    -0.4820040     1.6079470
  C        1.1077430     0.7304620    -0.3526940
  C        2.4495880     0.2623560     0.2167580
  C       -1.7119910     0.6470300    -0.2467030
  C       -2.9773330    -0.1490110     0.0593080
  C        2.8936370    -1.0771870    -0.3692660
  C        3.4979800     1.3449170    -0.0414460
  C       -4.2305000     0.6643980    -0.2524990
  H        1.1201440     0.7512950    -1.4483370
  H        0.8637990     1.7314470     0.0219200
  H        2.3201640     0.1499000     1.2996700
  H       -1.6515560     0.9087510    -1.3087410
  H       -1.6632265     1.4769603     0.2997931
  H       -2.9641430    -1.0716000    -0.5283160
  H       -2.9644700    -0.4377180     1.1148610
  H        2.9999490    -1.0007780    -1.4570900
  H        2.1808400    -1.8761700    -0.1584720
  H        3.8652790    -1.3613920     0.0461660
  H        3.6372140     1.5009250    -1.1167480
  H        3.2107350     2.3002430     0.4092550
  H        4.4622490     1.0479330     0.3817310
  H       -4.2653590     1.5804770     0.3446860
  H       -4.2647910     0.9464390    -1.3091180
  H       -5.1305020     0.0846610    -0.0305780
units angstrom
no_reorient  #important for SAPT in psi4, default
symmetry c1  #important for SAPT in psi4, default
}

set PROPERTIES_ORIGIN ["COM"]
properties('MP2/aug-cc-pvtz', properties = ['dipole'])
--------------------------------------------------------------------------

    Molecular point group: c1
  Charge       = 0
  Multiplicity = 1
  Basis Set: AUG-CC-PVTZ
    Blend: AUG-CC-PVTZ
  Basis Set: (AUG-CC-PVTZ AUX)
    Blend: AUG-CC-PVTZ-JKFIT

    Orbital Energies [Eh]
    ---------------------

    Doubly Occupied:

       1A    -92.169748     2A    -20.535723     3A    -20.534130
       4A    -11.273916     5A    -11.263335     6A    -11.246700
       7A    -11.240764     8A    -11.229641     9A    -11.226900
      10A    -11.212935    11A     -9.140282    12A     -6.824661
      13A     -6.824262    14A     -6.824070    15A     -1.425709
      16A     -1.316442    17A     -1.116611    18A     -1.099928
      19A     -1.014170    20A     -0.963978    21A     -0.937812
      22A     -0.850568    23A     -0.811507    24A     -0.779660
      25A     -0.690568    26A     -0.679688    27A     -0.666081
      28A     -0.642868    29A     -0.619178    30A     -0.605303
      31A     -0.594396    32A     -0.581626    33A     -0.573033
      34A     -0.553855    35A     -0.539709    36A     -0.528372
      37A     -0.510053    38A     -0.504433    39A     -0.496094
      40A     -0.487375    41A     -0.482679    42A     -0.475370
      43A     -0.470274    44A     -0.456611    45A     -0.418103

  @DF-RHF Final Energy:  -821.77779660917224

   => Energetics <=

    Nuclear Repulsion Energy =            707.8815055250760224
    One-Electron Energy =               -2532.4403716187903228
    Two-Electron Energy =                1002.7810694845419448
    Total Energy =                       -821.7777966091722419
  Basis Set: (AUG-CC-PVTZ AUX)
    Blend: AUG-CC-PVTZ-RI
    Molecular point group: c1

    Geometry (in Angstrom), charge = 0, multiplicity = 1:

       Center              X                  Y                   Z               Mass
    ------------   -----------------  -----------------  -----------------  -----------------
         S           -0.246705025544    -0.290727930861     0.121839423715    31.972071174400
         O           -0.275400025544    -1.480810930861    -0.748895576285    15.994914619570
         O           -0.180702025544    -0.440403930861     1.587871423715    15.994914619570
         C            1.118363974456     0.772062069139    -0.372769576285    12.000000000000
         C            2.460208974456     0.303956069139     0.196682423715    12.000000000000
         C           -1.701370025544     0.688630069139    -0.266778576285    12.000000000000
         C           -2.966712025544    -0.107410930861     0.039232423715    12.000000000000
         C            2.904257974456    -1.035586930861    -0.389341576285    12.000000000000
         C            3.508600974456     1.386517069139    -0.061521576285    12.000000000000
         C           -4.219879025544     0.705998069139    -0.272574576285    12.000000000000
         H            1.130764974456     0.792895069139    -1.468412576285     1.007825032230
         H            0.874419974456     1.773047069139     0.001844423715     1.007825032230
         H            2.330784974456     0.191500069139     1.279594423715     1.007825032230
         H           -1.640935025544     0.950351069139    -1.328816576285     1.007825032230
         H           -1.652605525544     1.518560369139     0.279717523715     1.007825032230
         H           -2.953522025544    -1.029999930861    -0.548391576285     1.007825032230
         H           -2.953849025544    -0.396117930861     1.094785423715     1.007825032230
         H            3.010569974456    -0.959177930861    -1.477165576285     1.007825032230
         H            2.191460974456    -1.834569930861    -0.178547576285     1.007825032230
         H            3.875899974456    -1.319791930861     0.026090423715     1.007825032230
         H            3.647834974456     1.542525069139    -1.136823576285     1.007825032230
         H            3.221355974456     2.341843069139     0.389179423715     1.007825032230
         H            4.472869974456     1.089533069139     0.361655423715     1.007825032230
         H           -4.254738025544     1.622077069139     0.324610423715     1.007825032230
         H           -4.254170025544     0.988039069139    -1.329193576285     1.007825032230
         H           -5.119881025544     0.126261069139    -0.050653576285     1.007825032230

  Basis Set: AUG-CC-PVTZ
    Blend: AUG-CC-PVTZ
  Basis Set: (AUG-CC-PVTZ AUX)
    Blend: AUG-CC-PVTZ-JKFIT
	 Reference Energy          =    -821.7777966091722419 [Eh]
	 Singles Energy            =      -0.0000000000000000 [Eh]
	 Same-Spin Energy          =      -0.5009042259058378 [Eh]
	 Opposite-Spin Energy      =      -1.6482956145840897 [Eh]
	 Correlation Energy        =      -2.1491998404899277 [Eh]
	 Total Energy              =    -823.9269964496621697 [Eh]

	 ================> DF-SCS-MP2 Energies <==================
	-----------------------------------------------------------
	 SCS Same-Spin Scale       =       0.3333333333333333 [-]
	 SCS Opposite-Spin Scale   =       1.2000000000000000 [-]
	 SCS Same-Spin Energy      =      -0.1669680753019459 [Eh]
	 SCS Opposite-Spin Energy  =      -1.9779547375009074 [Eh]
	 SCS Correlation Energy    =      -2.1449228128028532 [Eh]
	 SCS Total Energy          =    -823.9227194219751027 [Eh]
	-----------------------------------------------------------

  Dipole Moment: [D]
     X:    -0.1912      Y:     3.8215      Z:    -1.5727     Total:     4.1368

*** Psi4 exiting successfully. Buy a developer a beer!
