                               Psi4 1.4a3.dev225

  ==> Input File <==

--------------------------------------------------------------------------
#psi4
#
memory 32 gb

molecule  {
0 1
  S       -0.2573260    -0.3323280     0.1419150
  O       -0.2860210    -1.5224110    -0.7288200
  O       -0.1913230    -0.4820040     1.6079470
  C        1.1077430     0.7304620    -0.3526940
  C        2.4495880     0.2623560     0.2167580
  C       -1.7119910     0.6470300    -0.2467030
  C       -2.9773330    -0.1490110     0.0593080
  C        2.8936370    -1.0771870    -0.3692660
  C        3.4979800     1.3449170    -0.0414460
  C       -4.2305000     0.6643980    -0.2524990
  H        1.1201440     0.7512950    -1.4483370
  H        0.8637990     1.7314470     0.0219200
  H        2.3201640     0.1499000     1.2996700
  H       -1.6515560     0.9087510    -1.3087410
  H       -1.6583250     1.5603790     0.3547230
  H       -2.9641430    -1.0716000    -0.5283160
  H       -2.9644700    -0.4377180     1.1148610
  H        2.9999490    -1.0007780    -1.4570900
  H        2.1808400    -1.8761700    -0.1584720
  H        3.8652790    -1.3613920     0.0461660
  H        3.6372140     1.5009250    -1.1167480
  H        3.2107350     2.3002430     0.4092550
  H        4.4622490     1.0479330     0.3817310
  H       -4.2820656     1.5748554     0.3520290
  H       -4.2647910     0.9464390    -1.3091180
  H       -5.1305020     0.0846610    -0.0305780
units angstrom
no_reorient  #important for SAPT in psi4, default
symmetry c1  #important for SAPT in psi4, default
}

set PROPERTIES_ORIGIN ["COM"]
properties('MP2/aug-cc-pvtz', properties = ['dipole'])
--------------------------------------------------------------------------

    Molecular point group: c1
  Charge       = 0
  Multiplicity = 1
  Basis Set: AUG-CC-PVTZ
    Blend: AUG-CC-PVTZ
  Basis Set: (AUG-CC-PVTZ AUX)
    Blend: AUG-CC-PVTZ-JKFIT

    Orbital Energies [Eh]
    ---------------------

    Doubly Occupied:

       1A    -92.170133     2A    -20.535508     3A    -20.534753
       4A    -11.274757     5A    -11.273698     6A    -11.246590
       7A    -11.241557     8A    -11.229595     9A    -11.226818
      10A    -11.212902    11A     -9.140614    12A     -6.825002
      13A     -6.824593    14A     -6.824402    15A     -1.425834
      16A     -1.316601    17A     -1.115738    18A     -1.096012
      19A     -1.013393    20A     -0.960548    21A     -0.937738
      22A     -0.850795    23A     -0.804921    24A     -0.778735
      25A     -0.687848    26A     -0.675805    27A     -0.663451
      28A     -0.642772    29A     -0.619213    30A     -0.605193
      31A     -0.590829    32A     -0.580936    33A     -0.568643
      34A     -0.553854    35A     -0.539731    36A     -0.528825
      37A     -0.509825    38A     -0.502814    39A     -0.496111
      40A     -0.487153    41A     -0.482423    42A     -0.475321
      43A     -0.470464    44A     -0.456360    45A     -0.418219

  @DF-RHF Final Energy:  -821.78349315990999

   => Energetics <=

    Nuclear Repulsion Energy =            707.2890720514071745
    One-Electron Energy =               -2531.3110820150013751
    Two-Electron Energy =                1002.2385168036842060
    Total Energy =                       -821.7834931599099946
  Basis Set: (AUG-CC-PVTZ AUX)
    Blend: AUG-CC-PVTZ-RI
    Molecular point group: c1

    Geometry (in Angstrom), charge = 0, multiplicity = 1:

       Center              X                  Y                   Z               Mass
    ------------   -----------------  -----------------  -----------------  -----------------
         S           -0.246632518472    -0.291205761626     0.121456942782    31.972071174400
         O           -0.275327518472    -1.481288761626    -0.749278057218    15.994914619570
         O           -0.180629518472    -0.440881761626     1.587488942782    15.994914619570
         C            1.118436481528     0.771584238374    -0.373152057218    12.000000000000
         C            2.460281481528     0.303478238374     0.196299942782    12.000000000000
         C           -1.701297518472     0.688152238374    -0.267161057218    12.000000000000
         C           -2.966639518472    -0.107888761626     0.038849942782    12.000000000000
         C            2.904330481528    -1.036064761626    -0.389724057218    12.000000000000
         C            3.508673481528     1.386039238374    -0.061904057218    12.000000000000
         C           -4.219806518472     0.705520238374    -0.272957057218    12.000000000000
         H            1.130837481528     0.792417238374    -1.468795057218     1.007825032230
         H            0.874492481528     1.772569238374     0.001461942782     1.007825032230
         H            2.330857481528     0.191022238374     1.279211942782     1.007825032230
         H           -1.640862518472     0.949873238374    -1.329199057218     1.007825032230
         H           -1.647631518472     1.601501238374     0.334264942782     1.007825032230
         H           -2.953449518472    -1.030477761626    -0.548774057218     1.007825032230
         H           -2.953776518472    -0.396595761626     1.094402942782     1.007825032230
         H            3.010642481528    -0.959655761626    -1.477548057218     1.007825032230
         H            2.191533481528    -1.835047761626    -0.178930057218     1.007825032230
         H            3.875972481528    -1.320269761626     0.025707942782     1.007825032230
         H            3.647907481528     1.542047238374    -1.137206057218     1.007825032230
         H            3.221428481528     2.341365238374     0.388796942782     1.007825032230
         H            4.472942481528     1.089055238374     0.361272942782     1.007825032230
         H           -4.271372118472     1.615977638374     0.331570942782     1.007825032230
         H           -4.254097518472     0.987561238374    -1.329576057218     1.007825032230
         H           -5.119808518472     0.125783238374    -0.051036057218     1.007825032230

  Basis Set: AUG-CC-PVTZ
    Blend: AUG-CC-PVTZ
  Basis Set: (AUG-CC-PVTZ AUX)
    Blend: AUG-CC-PVTZ-JKFIT
	 Reference Energy          =    -821.7834931599099946 [Eh]
	 Singles Energy            =      -0.0000000000000000 [Eh]
	 Same-Spin Energy          =      -0.5010391547318451 [Eh]
	 Opposite-Spin Energy      =      -1.6488714605403565 [Eh]
	 Correlation Energy        =      -2.1499106152722014 [Eh]
	 Total Energy              =    -823.9334037751822279 [Eh]

	 ================> DF-SCS-MP2 Energies <==================
	-----------------------------------------------------------
	 SCS Same-Spin Scale       =       0.3333333333333333 [-]
	 SCS Opposite-Spin Scale   =       1.2000000000000000 [-]
	 SCS Same-Spin Energy      =      -0.1670130515772817 [Eh]
	 SCS Opposite-Spin Energy  =      -1.9786457526484278 [Eh]
	 SCS Correlation Energy    =      -2.1456588042257096 [Eh]
	 SCS Total Energy          =    -823.9291519641357127 [Eh]
	-----------------------------------------------------------

  Dipole Moment: [D]
     X:    -0.2074      Y:     3.7992      Z:    -1.5706     Total:     4.1163

*** Psi4 exiting successfully. Buy a developer a beer!
