                               Psi4 1.4a3.dev225

  ==> Input File <==

--------------------------------------------------------------------------
#psi4
#
memory 32 gb

molecule  {
0 1
  S       -0.2573260    -0.3323280     0.1419150
  O       -0.2860210    -1.5224110    -0.7288200
  O       -0.1913230    -0.4820040     1.6079470
  C        1.1077430     0.7304620    -0.3526940
  C        2.4495880     0.2623560     0.2167580
  C       -1.7119910     0.6470300    -0.2467030
  C       -2.9773330    -0.1490110     0.0593080
  C        2.9161014    -1.0656967    -0.3779019
  C        3.4979800     1.3449170    -0.0414460
  C       -4.2305000     0.6643980    -0.2524990
  H        1.1201440     0.7512950    -1.4483370
  H        0.8637990     1.7314470     0.0219200
  H        2.3201640     0.1499000     1.2996700
  H       -1.6515560     0.9087510    -1.3087410
  H       -1.6583250     1.5603790     0.3547230
  H       -2.9641430    -1.0716000    -0.5283160
  H       -2.9644700    -0.4377180     1.1148610
  H        2.9999490    -1.0007780    -1.4570900
  H        2.1808400    -1.8761700    -0.1584720
  H        3.8652790    -1.3613920     0.0461660
  H        3.6372140     1.5009250    -1.1167480
  H        3.2107350     2.3002430     0.4092550
  H        4.4622490     1.0479330     0.3817310
  H       -4.2653590     1.5804770     0.3446860
  H       -4.2647910     0.9464390    -1.3091180
  H       -5.1305020     0.0846610    -0.0305780
units angstrom
no_reorient  #important for SAPT in psi4, default
symmetry c1  #important for SAPT in psi4, default
}

set PROPERTIES_ORIGIN ["COM"]
properties('MP2/aug-cc-pvtz', properties = ['dipole'])
--------------------------------------------------------------------------

    Molecular point group: c1
  Charge       = 0
  Multiplicity = 1
  Basis Set: AUG-CC-PVTZ
    Blend: AUG-CC-PVTZ
  Basis Set: (AUG-CC-PVTZ AUX)
    Blend: AUG-CC-PVTZ-JKFIT

    Orbital Energies [Eh]
    ---------------------

    Doubly Occupied:

       1A    -92.170151     2A    -20.535491     3A    -20.534682
       4A    -11.274790     5A    -11.274028     6A    -11.246537
       7A    -11.241424     8A    -11.229648     9A    -11.226291
      10A    -11.212729    11A     -9.140623    12A     -6.825013
      13A     -6.824603    14A     -6.824410    15A     -1.425779
      16A     -1.316545    17A     -1.115778    18A     -1.096085
      19A     -1.013688    20A     -0.960780    21A     -0.936924
      22A     -0.850768    23A     -0.805028    24A     -0.778948
      25A     -0.687659    26A     -0.675843    27A     -0.663894
      28A     -0.642585    29A     -0.619707    30A     -0.604099
      31A     -0.591458    32A     -0.580384    33A     -0.568188
      34A     -0.553446    35A     -0.542590    36A     -0.528823
      37A     -0.510529    38A     -0.501476    39A     -0.495599
      40A     -0.487913    41A     -0.481975    42A     -0.475656
      43A     -0.469146    44A     -0.456319    45A     -0.417823

  @DF-RHF Final Energy:  -821.78276682043315

   => Energetics <=

    Nuclear Repulsion Energy =            707.1207351557731045
    One-Electron Energy =               -2530.9752941336723779
    Two-Electron Energy =                1002.0717921574660068
    Total Energy =                       -821.7827668204331530
  Basis Set: (AUG-CC-PVTZ AUX)
    Blend: AUG-CC-PVTZ-RI
    Molecular point group: c1

    Geometry (in Angstrom), charge = 0, multiplicity = 1:

       Center              X                  Y                   Z               Mass
    ------------   -----------------  -----------------  -----------------  -----------------
         S           -0.248377994673    -0.292080596932     0.122133603279    31.972071174400
         O           -0.277072994673    -1.482163596932    -0.748601396721    15.994914619570
         O           -0.182374994673    -0.441756596932     1.588165603279    15.994914619570
         C            1.116691005327     0.770709403068    -0.372475396721    12.000000000000
         C            2.458536005327     0.302603403068     0.196976603279    12.000000000000
         C           -1.703042994673     0.687277403068    -0.266484396721    12.000000000000
         C           -2.968384994673    -0.108763596932     0.039526603279    12.000000000000
         C            2.925049405327    -1.025449296932    -0.397683296721    12.000000000000
         C            3.506928005327     1.385164403068    -0.061227396721    12.000000000000
         C           -4.221551994673     0.704645403068    -0.272280396721    12.000000000000
         H            1.129092005327     0.791542403068    -1.468118396721     1.007825032230
         H            0.872747005327     1.771694403068     0.002138603279     1.007825032230
         H            2.329112005327     0.190147403068     1.279888603279     1.007825032230
         H           -1.642607994673     0.948998403068    -1.328522396721     1.007825032230
         H           -1.649376994673     1.600626403068     0.334941603279     1.007825032230
         H           -2.955194994673    -1.031352596932    -0.548097396721     1.007825032230
         H           -2.955521994673    -0.397470596932     1.095079603279     1.007825032230
         H            3.008897005327    -0.960530596932    -1.476871396721     1.007825032230
         H            2.189788005327    -1.835922596932    -0.178253396721     1.007825032230
         H            3.874227005327    -1.321144596932     0.026384603279     1.007825032230
         H            3.646162005327     1.541172403068    -1.136529396721     1.007825032230
         H            3.219683005327     2.340490403068     0.389473603279     1.007825032230
         H            4.471197005327     1.088180403068     0.361949603279     1.007825032230
         H           -4.256410994673     1.620724403068     0.324904603279     1.007825032230
         H           -4.255842994673     0.986686403068    -1.328899396721     1.007825032230
         H           -5.121553994673     0.124908403068    -0.050359396721     1.007825032230

  Basis Set: AUG-CC-PVTZ
    Blend: AUG-CC-PVTZ
  Basis Set: (AUG-CC-PVTZ AUX)
    Blend: AUG-CC-PVTZ-JKFIT
	 Reference Energy          =    -821.7827668204331530 [Eh]
	 Singles Energy            =      -0.0000000000000000 [Eh]
	 Same-Spin Energy          =      -0.5010648451927556 [Eh]
	 Opposite-Spin Energy      =      -1.6489259443035607 [Eh]
	 Correlation Energy        =      -2.1499907894963162 [Eh]
	 Total Energy              =    -823.9327576099294674 [Eh]

	 ================> DF-SCS-MP2 Energies <==================
	-----------------------------------------------------------
	 SCS Same-Spin Scale       =       0.3333333333333333 [-]
	 SCS Opposite-Spin Scale   =       1.2000000000000000 [-]
	 SCS Same-Spin Energy      =      -0.1670216150642519 [Eh]
	 SCS Opposite-Spin Energy  =      -1.9787111331642726 [Eh]
	 SCS Correlation Energy    =      -2.1457327482285247 [Eh]
	 SCS Total Energy          =    -823.9284995686616639 [Eh]
	-----------------------------------------------------------

  Dipole Moment: [D]
     X:    -0.2048      Y:     3.7934      Z:    -1.5796     Total:     4.1143

*** Psi4 exiting successfully. Buy a developer a beer!
