                               Psi4 1.4a3.dev225

  ==> Input File <==

--------------------------------------------------------------------------
#psi4
#
memory 32 gb

molecule  {
0 1
  S       -0.2573260    -0.3323280     0.1419150
  O       -0.2860210    -1.5224110    -0.7288200
  O       -0.1913230    -0.4820040     1.6079470
  C        1.1077430     0.7304620    -0.3526940
  C        2.4495880     0.2623560     0.2167580
  C       -1.7119910     0.6470300    -0.2467030
  C       -2.9773330    -0.1490110     0.0593080
  C        2.8936370    -1.0771870    -0.3692660
  C        3.4979800     1.3449170    -0.0414460
  C       -4.2305000     0.6643980    -0.2524990
  H        1.1201440     0.7512950    -1.4483370
  H        0.8637990     1.7314470     0.0219200
  H        2.3201640     0.1499000     1.2996700
  H       -1.6462582     0.9820493    -1.2876239
  H       -1.6583250     1.5603790     0.3547230
  H       -2.9641430    -1.0716000    -0.5283160
  H       -2.9644700    -0.4377180     1.1148610
  H        2.9999490    -1.0007780    -1.4570900
  H        2.1808400    -1.8761700    -0.1584720
  H        3.8652790    -1.3613920     0.0461660
  H        3.6372140     1.5009250    -1.1167480
  H        3.2107350     2.3002430     0.4092550
  H        4.4622490     1.0479330     0.3817310
  H       -4.2653590     1.5804770     0.3446860
  H       -4.2647910     0.9464390    -1.3091180
  H       -5.1305020     0.0846610    -0.0305780
units angstrom
no_reorient  #important for SAPT in psi4, default
symmetry c1  #important for SAPT in psi4, default
}

set PROPERTIES_ORIGIN ["COM"]
properties('MP2/aug-cc-pvtz', properties = ['dipole'])
--------------------------------------------------------------------------

    Molecular point group: c1
  Charge       = 0
  Multiplicity = 1
  Basis Set: AUG-CC-PVTZ
    Blend: AUG-CC-PVTZ
  Basis Set: (AUG-CC-PVTZ AUX)
    Blend: AUG-CC-PVTZ-JKFIT

    Orbital Energies [Eh]
    ---------------------

    Doubly Occupied:

       1A    -92.170670     2A    -20.535934     3A    -20.534725
       4A    -11.274483     5A    -11.273747     6A    -11.246622
       7A    -11.241760     8A    -11.229612     9A    -11.226853
      10A    -11.212920    11A     -9.141069    12A     -6.825491
      13A     -6.825046    14A     -6.824857    15A     -1.425964
      16A     -1.316726    17A     -1.115749    18A     -1.095679
      19A     -1.013469    20A     -0.960480    21A     -0.937765
      22A     -0.850741    23A     -0.806490    24A     -0.779159
      25A     -0.688806    26A     -0.673386    27A     -0.662458
      28A     -0.642502    29A     -0.619295    30A     -0.605269
      31A     -0.593704    32A     -0.581098    33A     -0.565044
      34A     -0.553868    35A     -0.539713    36A     -0.528801
      37A     -0.511047    38A     -0.502838    39A     -0.495331
      40A     -0.487516    41A     -0.482424    42A     -0.475569
      43A     -0.470668    44A     -0.456281    45A     -0.418591

  @DF-RHF Final Energy:  -821.78288684730774

   => Energetics <=

    Nuclear Repulsion Energy =            707.2349290036044067
    One-Electron Energy =               -2531.1951950373331783
    Two-Electron Energy =                1002.1773791864209215
    Total Energy =                       -821.7828868473077364
  Basis Set: (AUG-CC-PVTZ AUX)
    Blend: AUG-CC-PVTZ-RI
    Molecular point group: c1

    Geometry (in Angstrom), charge = 0, multiplicity = 1:

       Center              X                  Y                   Z               Mass
    ------------   -----------------  -----------------  -----------------  -----------------
         S           -0.246767669772    -0.291690488641     0.121372342087    31.972071174400
         O           -0.275462669772    -1.481773488641    -0.749362657913    15.994914619570
         O           -0.180764669772    -0.441366488641     1.587404342087    15.994914619570
         C            1.118301330228     0.771099511359    -0.373236657913    12.000000000000
         C            2.460146330228     0.302993511359     0.196215342087    12.000000000000
         C           -1.701432669772     0.687667511359    -0.267245657913    12.000000000000
         C           -2.966774669772    -0.108373488641     0.038765342087    12.000000000000
         C            2.904195330228    -1.036549488641    -0.389808657913    12.000000000000
         C            3.508538330228     1.385554511359    -0.061988657913    12.000000000000
         C           -4.219941669772     0.705035511359    -0.273041657913    12.000000000000
         H            1.130702330228     0.791932511359    -1.468879657913     1.007825032230
         H            0.874357330228     1.772084511359     0.001377342087     1.007825032230
         H            2.330722330228     0.190537511359     1.279127342087     1.007825032230
         H           -1.635699869772     1.022686811359    -1.308166557913     1.007825032230
         H           -1.647766669772     1.601016511359     0.334180342087     1.007825032230
         H           -2.953584669772    -1.030962488641    -0.548858657913     1.007825032230
         H           -2.953911669772    -0.397080488641     1.094318342087     1.007825032230
         H            3.010507330228    -0.960140488641    -1.477632657913     1.007825032230
         H            2.191398330228    -1.835532488641    -0.179014657913     1.007825032230
         H            3.875837330228    -1.320754488641     0.025623342087     1.007825032230
         H            3.647772330228     1.541562511359    -1.137290657913     1.007825032230
         H            3.221293330228     2.340880511359     0.388712342087     1.007825032230
         H            4.472807330228     1.088570511359     0.361188342087     1.007825032230
         H           -4.254800669772     1.621114511359     0.324143342087     1.007825032230
         H           -4.254232669772     0.987076511359    -1.329660657913     1.007825032230
         H           -5.119943669772     0.125298511359    -0.051120657913     1.007825032230

  Basis Set: AUG-CC-PVTZ
    Blend: AUG-CC-PVTZ
  Basis Set: (AUG-CC-PVTZ AUX)
    Blend: AUG-CC-PVTZ-JKFIT
	 Reference Energy          =    -821.7828868473077364 [Eh]
	 Singles Energy            =      -0.0000000000000000 [Eh]
	 Same-Spin Energy          =      -0.5010357054795354 [Eh]
	 Opposite-Spin Energy      =      -1.6488811444638680 [Eh]
	 Correlation Energy        =      -2.1499168499434034 [Eh]
	 Total Energy              =    -823.9328036972511882 [Eh]

	 ================> DF-SCS-MP2 Energies <==================
	-----------------------------------------------------------
	 SCS Same-Spin Scale       =       0.3333333333333333 [-]
	 SCS Opposite-Spin Scale   =       1.2000000000000000 [-]
	 SCS Same-Spin Energy      =      -0.1670119018265118 [Eh]
	 SCS Opposite-Spin Energy  =      -1.9786573733566415 [Eh]
	 SCS Correlation Energy    =      -2.1456692751831534 [Eh]
	 SCS Total Energy          =    -823.9285561224909316 [Eh]
	-----------------------------------------------------------

  Dipole Moment: [D]
     X:    -0.1965      Y:     3.8174      Z:    -1.5652     Total:     4.1305

*** Psi4 exiting successfully. Buy a developer a beer!
