                               Psi4 1.4a3.dev225

  ==> Input File <==

--------------------------------------------------------------------------
#psi4
#
memory 32 gb

molecule  {
0 1
  S       -0.2573260    -0.3323280     0.1419150
  O       -0.2860210    -1.5224110    -0.7288200
  O       -0.1913230    -0.4820040     1.6079470
  C        1.1077430     0.7304620    -0.3526940
  C        2.4495880     0.2623560     0.2167580
  C       -1.7119910     0.6470300    -0.2467030
  C       -2.9773330    -0.1490110     0.0593080
  C        2.9517562    -1.2525125    -0.4459675
  C        3.4979800     1.3449170    -0.0414460
  C       -4.2305000     0.6643980    -0.2524990
  H        1.1201440     0.7512950    -1.4483370
  H        0.8637990     1.7314470     0.0219200
  H        2.3201640     0.1499000     1.2996700
  H       -1.6515560     0.9087510    -1.3087410
  H       -1.6583250     1.5603790     0.3547230
  H       -2.9641430    -1.0716000    -0.5283160
  H       -2.9644700    -0.4377180     1.1148610
  H        2.9999490    -1.0007780    -1.4570900
  H        2.1808400    -1.8761700    -0.1584720
  H        3.8652790    -1.3613920     0.0461660
  H        3.6372140     1.5009250    -1.1167480
  H        3.2107350     2.3002430     0.4092550
  H        4.4622490     1.0479330     0.3817310
  H       -4.2653590     1.5804770     0.3446860
  H       -4.2647910     0.9464390    -1.3091180
  H       -5.1305020     0.0846610    -0.0305780
units angstrom
no_reorient  #important for SAPT in psi4, default
symmetry c1  #important for SAPT in psi4, default
}

set PROPERTIES_ORIGIN ["COM"]
properties('MP2/aug-cc-pvtz', properties = ['dipole'])
--------------------------------------------------------------------------

    Molecular point group: c1
  Charge       = 0
  Multiplicity = 1
  Basis Set: AUG-CC-PVTZ
    Blend: AUG-CC-PVTZ
  Basis Set: (AUG-CC-PVTZ AUX)
    Blend: AUG-CC-PVTZ-JKFIT

    Orbital Energies [Eh]
    ---------------------

    Doubly Occupied:

       1A    -92.169879     2A    -20.535394     3A    -20.535322
       4A    -11.274584     5A    -11.273627     6A    -11.252116
       7A    -11.241320     8A    -11.229561     9A    -11.227174
      10A    -11.211849    11A     -9.140385    12A     -6.824765
      13A     -6.824357    14A     -6.824178    15A     -1.425881
      16A     -1.316743    17A     -1.106074    18A     -1.091353
      19A     -1.009192    20A     -0.959260    21A     -0.940249
      22A     -0.851322    23A     -0.805185    24A     -0.777102
      25A     -0.686803    26A     -0.674719    27A     -0.661278
      28A     -0.639643    29A     -0.618312    30A     -0.607323
      31A     -0.591471    32A     -0.586600    33A     -0.568142
      34A     -0.561885    35A     -0.552902    36A     -0.536659
      37A     -0.515160    38A     -0.506312    39A     -0.496783
      40A     -0.492872    41A     -0.479762    42A     -0.472660
      43A     -0.456756    44A     -0.426774    45A     -0.417638

  @DF-RHF Final Energy:  -821.75725594023402

   => Energetics <=

    Nuclear Repulsion Energy =            703.9966630126798464
    One-Electron Energy =               -2524.7131812077504947
    Two-Electron Energy =                 998.9592622548366307
    Total Energy =                       -821.7572559402340175
  Basis Set: (AUG-CC-PVTZ AUX)
    Blend: AUG-CC-PVTZ-RI
    Molecular point group: c1

    Geometry (in Angstrom), charge = 0, multiplicity = 1:

       Center              X                  Y                   Z               Mass
    ------------   -----------------  -----------------  -----------------  -----------------
         S           -0.250985497625    -0.278418404186     0.127111369327    31.972071174400
         O           -0.279680497625    -1.468501404186    -0.743623630673    15.994914619570
         O           -0.184982497625    -0.428094404186     1.593143369327    15.994914619570
         C            1.114083502375     0.784371595814    -0.367497630673    12.000000000000
         C            2.455928502375     0.316265595814     0.201954369327    12.000000000000
         C           -1.705650497625     0.700939595814    -0.261506630673    12.000000000000
         C           -2.970992497625    -0.095101404186     0.044504369327    12.000000000000
         C            2.958096702375    -1.198602904186    -0.460771130673    12.000000000000
         C            3.504320502375     1.398826595814    -0.056249630673    12.000000000000
         C           -4.224159497625     0.718307595814    -0.267302630673    12.000000000000
         H            1.126484502375     0.805204595814    -1.463140630673     1.007825032230
         H            0.870139502375     1.785356595814     0.007116369327     1.007825032230
         H            2.326504502375     0.203809595814     1.284866369327     1.007825032230
         H           -1.645215497625     0.962660595814    -1.323544630673     1.007825032230
         H           -1.651984497625     1.614288595814     0.339919369327     1.007825032230
         H           -2.957802497625    -1.017690404186    -0.543119630673     1.007825032230
         H           -2.958129497625    -0.383808404186     1.100057369327     1.007825032230
         H            3.006289502375    -0.946868404186    -1.471893630673     1.007825032230
         H            2.187180502375    -1.822260404186    -0.173275630673     1.007825032230
         H            3.871619502375    -1.307482404186     0.031362369327     1.007825032230
         H            3.643554502375     1.554834595814    -1.131551630673     1.007825032230
         H            3.217075502375     2.354152595814     0.394451369327     1.007825032230
         H            4.468589502375     1.101842595814     0.366927369327     1.007825032230
         H           -4.259018497625     1.634386595814     0.329882369327     1.007825032230
         H           -4.258450497625     1.000348595814    -1.323921630673     1.007825032230
         H           -5.124161497625     0.138570595814    -0.045381630673     1.007825032230

  Basis Set: AUG-CC-PVTZ
    Blend: AUG-CC-PVTZ
  Basis Set: (AUG-CC-PVTZ AUX)
    Blend: AUG-CC-PVTZ-JKFIT
	 Reference Energy          =    -821.7572559402340175 [Eh]
	 Singles Energy            =      -0.0000000000000000 [Eh]
	 Same-Spin Energy          =      -0.5008349887416461 [Eh]
	 Opposite-Spin Energy      =      -1.6499743636953834 [Eh]
	 Correlation Energy        =      -2.1508093524370295 [Eh]
	 Total Energy              =    -823.9080652926710400 [Eh]

	 ================> DF-SCS-MP2 Energies <==================
	-----------------------------------------------------------
	 SCS Same-Spin Scale       =       0.3333333333333333 [-]
	 SCS Opposite-Spin Scale   =       1.2000000000000000 [-]
	 SCS Same-Spin Energy      =      -0.1669449962472154 [Eh]
	 SCS Opposite-Spin Energy  =      -1.9799692364344601 [Eh]
	 SCS Correlation Energy    =      -2.1469142326816755 [Eh]
	 SCS Total Energy          =    -823.9041701729156557 [Eh]
	-----------------------------------------------------------

  Dipole Moment: [D]
     X:    -0.2028      Y:     3.8777      Z:    -1.5625     Total:     4.1856

*** Psi4 exiting successfully. Buy a developer a beer!
