                               Psi4 1.4a3.dev225

  ==> Input File <==

--------------------------------------------------------------------------
#psi4
#
memory 32 gb

molecule  {
0 1
  S       -0.2573260    -0.3323280     0.1419150
  O       -0.2860210    -1.5224110    -0.7288200
  O       -0.1913230    -0.4820040     1.6079470
  C        1.1077430     0.7304620    -0.3526940
  C        2.4495880     0.2623560     0.2167580
  C       -1.7119910     0.6470300    -0.2467030
  C       -2.9773330    -0.1490110     0.0593080
  C        2.8936370    -1.0771870    -0.3692660
  C        3.4979800     1.3449170    -0.0414460
  C       -4.2305000     0.6643980    -0.2524990
  H        1.1201440     0.7512950    -1.4483370
  H        0.8637990     1.7314470     0.0219200
  H        2.3201640     0.1499000     1.2996700
  H       -1.6515560     0.9087510    -1.3087410
  H       -1.6583250     1.5603790     0.3547230
  H       -2.9641430    -1.0716000    -0.5283160
  H       -2.9644700    -0.4377180     1.1148610
  H        2.9999490    -1.0007780    -1.4570900
  H        2.1808400    -1.8761700    -0.1584720
  H        3.8652790    -1.3613920     0.0461660
  H        3.6372140     1.5009250    -1.1167480
  H        3.2107350     2.3002430     0.4092550
  H        4.4622490     1.0479330     0.3817310
  H       -4.2486418     1.5858195     0.3371611
  H       -4.2647910     0.9464390    -1.3091180
  H       -5.1305020     0.0846610    -0.0305780
units angstrom
no_reorient  #important for SAPT in psi4, default
symmetry c1  #important for SAPT in psi4, default
}

set PROPERTIES_ORIGIN ["COM"]
properties('MP2/aug-cc-pvtz', properties = ['dipole'])
--------------------------------------------------------------------------

    Molecular point group: c1
  Charge       = 0
  Multiplicity = 1
  Basis Set: AUG-CC-PVTZ
    Blend: AUG-CC-PVTZ
  Basis Set: (AUG-CC-PVTZ AUX)
    Blend: AUG-CC-PVTZ-JKFIT

    Orbital Energies [Eh]
    ---------------------

    Doubly Occupied:

       1A    -92.170168     2A    -20.535523     3A    -20.534751
       4A    -11.274810     5A    -11.273722     6A    -11.246607
       7A    -11.241294     8A    -11.229702     9A    -11.226833
      10A    -11.212912    11A     -9.140645    12A     -6.825033
      13A     -6.824624    14A     -6.824432    15A     -1.425841
      16A     -1.316606    17A     -1.115765    18A     -1.096145
      19A     -1.013456    20A     -0.960512    21A     -0.937750
      22A     -0.850498    23A     -0.804962    24A     -0.778755
      25A     -0.687781    26A     -0.675746    27A     -0.663667
      28A     -0.642650    29A     -0.619306    30A     -0.605120
      31A     -0.592189    32A     -0.581198    33A     -0.567725
      34A     -0.553785    35A     -0.539653    36A     -0.528405
      37A     -0.510671    38A     -0.503206    39A     -0.495277
      40A     -0.487248    41A     -0.482411    42A     -0.475348
      43A     -0.470369    44A     -0.456367    45A     -0.418277

  @DF-RHF Final Energy:  -821.78347243858229

   => Energetics <=

    Nuclear Repulsion Energy =            707.3437260360346954
    One-Electron Energy =               -2531.4189048535295115
    Two-Electron Energy =                1002.2917063789125223
    Total Energy =                       -821.7834724385822938
  Basis Set: (AUG-CC-PVTZ AUX)
    Blend: AUG-CC-PVTZ-RI
    Molecular point group: c1

    Geometry (in Angstrom), charge = 0, multiplicity = 1:

       Center              X                  Y                   Z               Mass
    ------------   -----------------  -----------------  -----------------  -----------------
         S           -0.246837807870    -0.291273103265     0.121548261611    31.972071174400
         O           -0.275532807870    -1.481356103265    -0.749186738389    15.994914619570
         O           -0.180834807870    -0.440949103265     1.587580261611    15.994914619570
         C            1.118231192130     0.771516896735    -0.373060738389    12.000000000000
         C            2.460076192130     0.303410896735     0.196391261611    12.000000000000
         C           -1.701502807870     0.688084896735    -0.267069738389    12.000000000000
         C           -2.966844807870    -0.107956103265     0.038941261611    12.000000000000
         C            2.904125192130    -1.036132103265    -0.389632738389    12.000000000000
         C            3.508468192130     1.385971896735    -0.061812738389    12.000000000000
         C           -4.220011807870     0.705452896735    -0.272865738389    12.000000000000
         H            1.130632192130     0.792349896735    -1.468703738389     1.007825032230
         H            0.874287192130     1.772501896735     0.001553261611     1.007825032230
         H            2.330652192130     0.190954896735     1.279303261611     1.007825032230
         H           -1.641067807870     0.949805896735    -1.329107738389     1.007825032230
         H           -1.647836807870     1.601433896735     0.334356261611     1.007825032230
         H           -2.953654807870    -1.030545103265    -0.548682738389     1.007825032230
         H           -2.953981807870    -0.396663103265     1.094494261611     1.007825032230
         H            3.010437192130    -0.959723103265    -1.477456738389     1.007825032230
         H            2.191328192130    -1.835115103265    -0.178838738389     1.007825032230
         H            3.875767192130    -1.320337103265     0.025799261611     1.007825032230
         H            3.647702192130     1.541979896735    -1.137114738389     1.007825032230
         H            3.221223192130     2.341297896735     0.388888261611     1.007825032230
         H            4.472737192130     1.088987896735     0.361364261611     1.007825032230
         H           -4.238153607870     1.626874396735     0.316794361611     1.007825032230
         H           -4.254302807870     0.987493896735    -1.329484738389     1.007825032230
         H           -5.120013807870     0.125715896735    -0.050944738389     1.007825032230

  Basis Set: AUG-CC-PVTZ
    Blend: AUG-CC-PVTZ
  Basis Set: (AUG-CC-PVTZ AUX)
    Blend: AUG-CC-PVTZ-JKFIT
	 Reference Energy          =    -821.7834724385822938 [Eh]
	 Singles Energy            =      -0.0000000000000000 [Eh]
	 Same-Spin Energy          =      -0.5010523248612362 [Eh]
	 Opposite-Spin Energy      =      -1.6489033205253272 [Eh]
	 Correlation Energy        =      -2.1499556453865631 [Eh]
	 Total Energy              =    -823.9334280839688063 [Eh]

	 ================> DF-SCS-MP2 Energies <==================
	-----------------------------------------------------------
	 SCS Same-Spin Scale       =       0.3333333333333333 [-]
	 SCS Opposite-Spin Scale   =       1.2000000000000000 [-]
	 SCS Same-Spin Energy      =      -0.1670174416204120 [Eh]
	 SCS Opposite-Spin Energy  =      -1.9786839846303925 [Eh]
	 SCS Correlation Energy    =      -2.1457014262508047 [Eh]
	 SCS Total Energy          =    -823.9291738648330465 [Eh]
	-----------------------------------------------------------

  Dipole Moment: [D]
     X:    -0.1989      Y:     3.7986      Z:    -1.5786     Total:     4.1184

*** Psi4 exiting successfully. Buy a developer a beer!
