                               Psi4 1.4a3.dev225

  ==> Input File <==

--------------------------------------------------------------------------
#psi4
#
memory 32 gb

molecule  {
0 1
  S       -0.2573260    -0.3323280     0.1419150
  O       -0.2860210    -1.5224110    -0.7288200
  O       -0.1913230    -0.4820040     1.6079470
  C        1.1077430     0.7304620    -0.3526940
  C        2.4495880     0.2623560     0.2167580
  C       -1.7119910     0.6470300    -0.2467030
  C       -2.9773330    -0.1490110     0.0593080
  C        2.8936370    -1.0771870    -0.3692660
  C        3.4979800     1.3449170    -0.0414460
  C       -4.2305000     0.6643980    -0.2524990
  H        1.1195782     0.7503445    -1.3983492
  H        0.8637990     1.7314470     0.0219200
  H        2.3201640     0.1499000     1.2996700
  H       -1.6515560     0.9087510    -1.3087410
  H       -1.6583250     1.5603790     0.3547230
  H       -2.9641430    -1.0716000    -0.5283160
  H       -2.9644700    -0.4377180     1.1148610
  H        2.9999490    -1.0007780    -1.4570900
  H        2.1808400    -1.8761700    -0.1584720
  H        3.8652790    -1.3613920     0.0461660
  H        3.6372140     1.5009250    -1.1167480
  H        3.2107350     2.3002430     0.4092550
  H        4.4622490     1.0479330     0.3817310
  H       -4.2653590     1.5804770     0.3446860
  H       -4.2647910     0.9464390    -1.3091180
  H       -5.1305020     0.0846610    -0.0305780
units angstrom
no_reorient  #important for SAPT in psi4, default
symmetry c1  #important for SAPT in psi4, default
}

set PROPERTIES_ORIGIN ["COM"]
properties('MP2/aug-cc-pvtz', properties = ['dipole'])
--------------------------------------------------------------------------

    Molecular point group: c1
  Charge       = 0
  Multiplicity = 1
  Basis Set: AUG-CC-PVTZ
    Blend: AUG-CC-PVTZ
  Basis Set: (AUG-CC-PVTZ AUX)
    Blend: AUG-CC-PVTZ-JKFIT

    Orbital Energies [Eh]
    ---------------------

    Doubly Occupied:

       1A    -92.169929     2A    -20.535201     3A    -20.534883
       4A    -11.274823     5A    -11.268129     6A    -11.246242
       7A    -11.241440     8A    -11.229662     9A    -11.226821
      10A    -11.212900    11A     -9.140438    12A     -6.824822
      13A     -6.824416    14A     -6.824226    15A     -1.425775
      16A     -1.316530    17A     -1.117188    18A     -1.096143
      19A     -1.014515    20A     -0.962101    21A     -0.937762
      22A     -0.851009    23A     -0.804886    24A     -0.782075
      25A     -0.688955    26A     -0.676608    27A     -0.664149
      28A     -0.643140    29A     -0.619560    30A     -0.606006
      31A     -0.591682    32A     -0.584940    33A     -0.568232
      34A     -0.554211    35A     -0.539989    36A     -0.528634
      37A     -0.510231    38A     -0.503043    39A     -0.495772
      40A     -0.487144    41A     -0.482954    42A     -0.475270
      43A     -0.470287    44A     -0.456554    45A     -0.418163

  @DF-RHF Final Energy:  -821.78272516869026

   => Energetics <=

    Nuclear Repulsion Energy =            707.5997378119855057
    One-Electron Energy =               -2531.9100420031331851
    Two-Electron Energy =                1002.5275790224574166
    Total Energy =                       -821.7827251686902628
  Basis Set: (AUG-CC-PVTZ AUX)
    Blend: AUG-CC-PVTZ-RI
    Molecular point group: c1

    Geometry (in Angstrom), charge = 0, multiplicity = 1:

       Center              X                  Y                   Z               Mass
    ------------   -----------------  -----------------  -----------------  -----------------
         S           -0.246731655468    -0.291234451580     0.121195017886    31.972071174400
         O           -0.275426655468    -1.481317451580    -0.749539982114    15.994914619570
         O           -0.180728655468    -0.440910451580     1.587227017886    15.994914619570
         C            1.118337344532     0.771555548420    -0.373413982114    12.000000000000
         C            2.460182344532     0.303449548420     0.196038017886    12.000000000000
         C           -1.701396655468     0.688123548420    -0.267422982114    12.000000000000
         C           -2.966738655468    -0.107917451580     0.038588017886    12.000000000000
         C            2.904231344532    -1.036093451580    -0.389985982114    12.000000000000
         C            3.508574344532     1.386010548420    -0.062165982114    12.000000000000
         C           -4.219905655468     0.705491548420    -0.273218982114    12.000000000000
         H            1.130172544532     0.791438048420    -1.419069182114     1.007825032230
         H            0.874393344532     1.772540548420     0.001200017886     1.007825032230
         H            2.330758344532     0.190993548420     1.278950017886     1.007825032230
         H           -1.640961655468     0.949844548420    -1.329460982114     1.007825032230
         H           -1.647730655468     1.601472548420     0.334003017886     1.007825032230
         H           -2.953548655468    -1.030506451580    -0.549035982114     1.007825032230
         H           -2.953875655468    -0.396624451580     1.094141017886     1.007825032230
         H            3.010543344532    -0.959684451580    -1.477809982114     1.007825032230
         H            2.191434344532    -1.835076451580    -0.179191982114     1.007825032230
         H            3.875873344532    -1.320298451580     0.025446017886     1.007825032230
         H            3.647808344532     1.542018548420    -1.137467982114     1.007825032230
         H            3.221329344532     2.341336548420     0.388535017886     1.007825032230
         H            4.472843344532     1.089026548420     0.361011017886     1.007825032230
         H           -4.254764655468     1.621570548420     0.323966017886     1.007825032230
         H           -4.254196655468     0.987532548420    -1.329837982114     1.007825032230
         H           -5.119907655468     0.125754548420    -0.051297982114     1.007825032230

  Basis Set: AUG-CC-PVTZ
    Blend: AUG-CC-PVTZ
  Basis Set: (AUG-CC-PVTZ AUX)
    Blend: AUG-CC-PVTZ-JKFIT
	 Reference Energy          =    -821.7827251686902628 [Eh]
	 Singles Energy            =      -0.0000000000000000 [Eh]
	 Same-Spin Energy          =      -0.5009485153497921 [Eh]
	 Opposite-Spin Energy      =      -1.6485261649629184 [Eh]
	 Correlation Energy        =      -2.1494746803127107 [Eh]
	 Total Energy              =    -823.9321998490029273 [Eh]

	 ================> DF-SCS-MP2 Energies <==================
	-----------------------------------------------------------
	 SCS Same-Spin Scale       =       0.3333333333333333 [-]
	 SCS Opposite-Spin Scale   =       1.2000000000000000 [-]
	 SCS Same-Spin Energy      =      -0.1669828384499307 [Eh]
	 SCS Opposite-Spin Energy  =      -1.9782313979555020 [Eh]
	 SCS Correlation Energy    =      -2.1452142364054327 [Eh]
	 SCS Total Energy          =    -823.9279394050956853 [Eh]
	-----------------------------------------------------------

  Dipole Moment: [D]
     X:    -0.2071      Y:     3.8046      Z:    -1.5847     Total:     4.1267

*** Psi4 exiting successfully. Buy a developer a beer!
