                               Psi4 1.4a3.dev225

  ==> Input File <==

--------------------------------------------------------------------------
#psi4
#
memory 32 gb

molecule  {
0 1
  S       -0.2573260    -0.3323280     0.1419150
  O       -0.2860210    -1.5224110    -0.7288200
  O       -0.1913230    -0.4820040     1.6079470
  C        1.1077430     0.7304620    -0.3526940
  C        2.4370156     0.1716031     0.1617551
  C       -1.7119910     0.6470300    -0.2467030
  C       -2.9773330    -0.1490110     0.0593080
  C        2.8936370    -1.0771870    -0.3692660
  C        3.4979800     1.3449170    -0.0414460
  C       -4.2305000     0.6643980    -0.2524990
  H        1.1201440     0.7512950    -1.4483370
  H        0.8637990     1.7314470     0.0219200
  H        2.3201640     0.1499000     1.2996700
  H       -1.6515560     0.9087510    -1.3087410
  H       -1.6583250     1.5603790     0.3547230
  H       -2.9641430    -1.0716000    -0.5283160
  H       -2.9644700    -0.4377180     1.1148610
  H        2.9999490    -1.0007780    -1.4570900
  H        2.1808400    -1.8761700    -0.1584720
  H        3.8652790    -1.3613920     0.0461660
  H        3.6372140     1.5009250    -1.1167480
  H        3.2107350     2.3002430     0.4092550
  H        4.4622490     1.0479330     0.3817310
  H       -4.2653590     1.5804770     0.3446860
  H       -4.2647910     0.9464390    -1.3091180
  H       -5.1305020     0.0846610    -0.0305780
units angstrom
no_reorient  #important for SAPT in psi4, default
symmetry c1  #important for SAPT in psi4, default
}

set PROPERTIES_ORIGIN ["COM"]
properties('MP2/aug-cc-pvtz', properties = ['dipole'])
--------------------------------------------------------------------------

    Molecular point group: c1
  Charge       = 0
  Multiplicity = 1
  Basis Set: AUG-CC-PVTZ
    Blend: AUG-CC-PVTZ
  Basis Set: (AUG-CC-PVTZ AUX)
    Blend: AUG-CC-PVTZ-JKFIT

    Orbital Energies [Eh]
    ---------------------

    Doubly Occupied:

       1A    -92.169058     2A    -20.535255     3A    -20.534814
       4A    -11.275358     5A    -11.274195     6A    -11.249972
       7A    -11.241104     8A    -11.229396     9A    -11.228742
      10A    -11.210287    11A     -9.139705    12A     -6.824113
      13A     -6.823633    14A     -6.823480    15A     -1.425721
      16A     -1.316451    17A     -1.119389    18A     -1.096450
      19A     -1.015784    20A     -0.962441    21A     -0.941397
      22A     -0.849923    23A     -0.802854    24A     -0.773857
      25A     -0.687844    26A     -0.676765    27A     -0.664288
      28A     -0.643289    29A     -0.620053    30A     -0.608786
      31A     -0.591051    32A     -0.582042    33A     -0.567930
      34A     -0.551648    35A     -0.541583    36A     -0.533376
      37A     -0.515729    38A     -0.505095    39A     -0.499186
      40A     -0.491814    41A     -0.479805    42A     -0.474415
      43A     -0.456459    44A     -0.452935    45A     -0.412854

  @DF-RHF Final Energy:  -821.77064720441876

   => Energetics <=

    Nuclear Repulsion Energy =            707.9905202864662215
    One-Electron Energy =               -2532.6816831955816269
    Two-Electron Energy =                1002.9205157046967543
    Total Energy =                       -821.7706472044187649
  Basis Set: (AUG-CC-PVTZ AUX)
    Blend: AUG-CC-PVTZ-RI
    Molecular point group: c1

    Geometry (in Angstrom), charge = 0, multiplicity = 1:

       Center              X                  Y                   Z               Mass
    ------------   -----------------  -----------------  -----------------  -----------------
         S           -0.245815687230    -0.284603358361     0.125524509675    31.972071174400
         O           -0.274510687230    -1.474686358361    -0.745210490325    15.994914619570
         O           -0.179812687230    -0.434279358361     1.591556509675    15.994914619570
         C            1.119253312770     0.778186641639    -0.369084490325    12.000000000000
         C            2.448525912770     0.219327741639     0.145364609675    12.000000000000
         C           -1.700480687230     0.694754641639    -0.263093490325    12.000000000000
         C           -2.965822687230    -0.101286358361     0.042917509675    12.000000000000
         C            2.905147312770    -1.029462358361    -0.385656490325    12.000000000000
         C            3.509490312770     1.392641641639    -0.057836490325    12.000000000000
         C           -4.218989687230     0.712122641639    -0.268889490325    12.000000000000
         H            1.131654312770     0.799019641639    -1.464727490325     1.007825032230
         H            0.875309312770     1.779171641639     0.005529509675     1.007825032230
         H            2.331674312770     0.197624641639     1.283279509675     1.007825032230
         H           -1.640045687230     0.956475641639    -1.325131490325     1.007825032230
         H           -1.646814687230     1.608103641639     0.338332509675     1.007825032230
         H           -2.952632687230    -1.023875358361    -0.544706490325     1.007825032230
         H           -2.952959687230    -0.389993358361     1.098470509675     1.007825032230
         H            3.011459312770    -0.953053358361    -1.473480490325     1.007825032230
         H            2.192350312770    -1.828445358361    -0.174862490325     1.007825032230
         H            3.876789312770    -1.313667358361     0.029775509675     1.007825032230
         H            3.648724312770     1.548649641639    -1.133138490325     1.007825032230
         H            3.222245312770     2.347967641639     0.392864509675     1.007825032230
         H            4.473759312770     1.095657641639     0.365340509675     1.007825032230
         H           -4.253848687230     1.628201641639     0.328295509675     1.007825032230
         H           -4.253280687230     0.994163641639    -1.325508490325     1.007825032230
         H           -5.118991687230     0.132385641639    -0.046968490325     1.007825032230

  Basis Set: AUG-CC-PVTZ
    Blend: AUG-CC-PVTZ
  Basis Set: (AUG-CC-PVTZ AUX)
    Blend: AUG-CC-PVTZ-JKFIT
	 Reference Energy          =    -821.7706472044187649 [Eh]
	 Singles Energy            =      -0.0000000000000000 [Eh]
	 Same-Spin Energy          =      -0.5019355334747013 [Eh]
	 Opposite-Spin Energy      =      -1.6502035385221863 [Eh]
	 Correlation Energy        =      -2.1521390719968876 [Eh]
	 Total Energy              =    -823.9227862764156498 [Eh]

	 ================> DF-SCS-MP2 Energies <==================
	-----------------------------------------------------------
	 SCS Same-Spin Scale       =       0.3333333333333333 [-]
	 SCS Opposite-Spin Scale   =       1.2000000000000000 [-]
	 SCS Same-Spin Energy      =      -0.1673118444915671 [Eh]
	 SCS Opposite-Spin Energy  =      -1.9802442462266234 [Eh]
	 SCS Correlation Energy    =      -2.1475560907181905 [Eh]
	 SCS Total Energy          =    -823.9182032951370047 [Eh]
	-----------------------------------------------------------

  Dipole Moment: [D]
     X:    -0.1764      Y:     3.7378      Z:    -1.5928     Total:     4.0668

*** Psi4 exiting successfully. Buy a developer a beer!
