                               Psi4 1.4a3.dev225

  ==> Input File <==

--------------------------------------------------------------------------
#psi4
#
memory 32 gb

molecule  {
0 1
  S       -0.2573260    -0.3323280     0.1419150
  O       -0.2860210    -1.5224110    -0.7288200
  O       -0.1913230    -0.4820040     1.6079470
  C        1.1077430     0.7304620    -0.3526940
  C        2.4495880     0.2623560     0.2167580
  C       -1.7119910     0.6470300    -0.2467030
  C       -2.9773330    -0.1490110     0.0593080
  C        2.8936370    -1.0771870    -0.3692660
  C        3.4979800     1.3449170    -0.0414460
  C       -4.2305000     0.6643980    -0.2524990
  H        1.1201440     0.7512950    -1.4483370
  H        0.8637990     1.7314470     0.0219200
  H        2.3201640     0.1499000     1.2996700
  H       -1.6515560     0.9087510    -1.3087410
  H       -1.6583250     1.5603790     0.3547230
  H       -2.9641430    -1.0716000    -0.5283160
  H       -2.9644700    -0.4377180     1.1148610
  H        2.9999490    -1.0007780    -1.4570900
  H        2.1808400    -1.8761700    -0.1584720
  H        3.8652790    -1.3613920     0.0461660
  H        3.6372140     1.5009250    -1.1167480
  H        3.2107350     2.3002430     0.4092550
  H        4.4622490     1.0479330     0.3817310
  H       -4.2685451     1.6642063     0.3992685
  H       -4.2647910     0.9464390    -1.3091180
  H       -5.1305020     0.0846610    -0.0305780
units angstrom
no_reorient  #important for SAPT in psi4, default
symmetry c1  #important for SAPT in psi4, default
}

set PROPERTIES_ORIGIN ["COM"]
properties('MP2/aug-cc-pvtz', properties = ['dipole'])
--------------------------------------------------------------------------

    Molecular point group: c1
  Charge       = 0
  Multiplicity = 1
  Basis Set: AUG-CC-PVTZ
    Blend: AUG-CC-PVTZ
  Basis Set: (AUG-CC-PVTZ AUX)
    Blend: AUG-CC-PVTZ-JKFIT

    Orbital Energies [Eh]
    ---------------------

    Doubly Occupied:

       1A    -92.170339     2A    -20.535697     3A    -20.534970
       4A    -11.275008     5A    -11.273842     6A    -11.246698
       7A    -11.242882     8A    -11.241758     9A    -11.226892
      10A    -11.213007    11A     -9.140822    12A     -6.825210
      13A     -6.824802    14A     -6.824610    15A     -1.426050
      16A     -1.316814    17A     -1.115846    18A     -1.095704
      19A     -1.012347    20A     -0.957951    21A     -0.937818
      22A     -0.847250    23A     -0.804157    24A     -0.778876
      25A     -0.687948    26A     -0.675574    27A     -0.663011
      28A     -0.642838    29A     -0.618402    30A     -0.605264
      31A     -0.590816    32A     -0.580865    33A     -0.561354
      34A     -0.553794    35A     -0.539811    36A     -0.529444
      37A     -0.509645    38A     -0.502355    39A     -0.491388
      40A     -0.486057    41A     -0.482455    42A     -0.475376
      43A     -0.470441    44A     -0.456561    45A     -0.418489

  @DF-RHF Final Energy:  -821.77719715804335

   => Energetics <=

    Nuclear Repulsion Energy =            706.9257167781261160
    One-Electron Energy =               -2530.5833514408905103
    Two-Electron Energy =                1001.8804375047210442
    Total Energy =                       -821.7771971580433501
  Basis Set: (AUG-CC-PVTZ AUX)
    Blend: AUG-CC-PVTZ-RI
    Molecular point group: c1

    Geometry (in Angstrom), charge = 0, multiplicity = 1:

       Center              X                  Y                   Z               Mass
    ------------   -----------------  -----------------  -----------------  -----------------
         S           -0.246715561552    -0.291754555974     0.121166797181    31.972071174400
         O           -0.275410561552    -1.481837555974    -0.749568202819    15.994914619570
         O           -0.180712561552    -0.441430555974     1.587198797181    15.994914619570
         C            1.118353438448     0.771035444026    -0.373442202819    12.000000000000
         C            2.460198438448     0.302929444026     0.196009797181    12.000000000000
         C           -1.701380561552     0.687603444026    -0.267451202819    12.000000000000
         C           -2.966722561552    -0.108437555974     0.038559797181    12.000000000000
         C            2.904247438448    -1.036613555974    -0.390014202819    12.000000000000
         C            3.508590438448     1.385490444026    -0.062194202819    12.000000000000
         C           -4.219889561552     0.704971444026    -0.273247202819    12.000000000000
         H            1.130754438448     0.791868444026    -1.469085202819     1.007825032230
         H            0.874409438448     1.772020444026     0.001171797181     1.007825032230
         H            2.330774438448     0.190473444026     1.278921797181     1.007825032230
         H           -1.640945561552     0.949324444026    -1.329489202819     1.007825032230
         H           -1.647714561552     1.600952444026     0.333974797181     1.007825032230
         H           -2.953532561552    -1.031026555974    -0.549064202819     1.007825032230
         H           -2.953859561552    -0.397144555974     1.094112797181     1.007825032230
         H            3.010559438448    -0.960204555974    -1.477838202819     1.007825032230
         H            2.191450438448    -1.835596555974    -0.179220202819     1.007825032230
         H            3.875889438448    -1.320818555974     0.025417797181     1.007825032230
         H            3.647824438448     1.541498444026    -1.137496202819     1.007825032230
         H            3.221345438448     2.340816444026     0.388506797181     1.007825032230
         H            4.472859438448     1.088506444026     0.360982797181     1.007825032230
         H           -4.257934661552     1.704779744026     0.378520297181     1.007825032230
         H           -4.254180561552     0.987012444026    -1.329866202819     1.007825032230
         H           -5.119891561552     0.125234444026    -0.051326202819     1.007825032230

  Basis Set: AUG-CC-PVTZ
    Blend: AUG-CC-PVTZ
  Basis Set: (AUG-CC-PVTZ AUX)
    Blend: AUG-CC-PVTZ-JKFIT
	 Reference Energy          =    -821.7771971580433501 [Eh]
	 Singles Energy            =      -0.0000000000000000 [Eh]
	 Same-Spin Energy          =      -0.5009841905065373 [Eh]
	 Opposite-Spin Energy      =      -1.6495198406946634 [Eh]
	 Correlation Energy        =      -2.1505040312012005 [Eh]
	 Total Energy              =    -823.9277011892445444 [Eh]

	 ================> DF-SCS-MP2 Energies <==================
	-----------------------------------------------------------
	 SCS Same-Spin Scale       =       0.3333333333333333 [-]
	 SCS Opposite-Spin Scale   =       1.2000000000000000 [-]
	 SCS Same-Spin Energy      =      -0.1669947301688458 [Eh]
	 SCS Opposite-Spin Energy  =      -1.9794238088335960 [Eh]
	 SCS Correlation Energy    =      -2.1464185390024419 [Eh]
	 SCS Total Energy          =    -823.9236156970457614 [Eh]
	-----------------------------------------------------------

  Dipole Moment: [D]
     X:    -0.1822      Y:     3.7380      Z:    -1.6043     Total:     4.0718

*** Psi4 exiting successfully. Buy a developer a beer!
