                               Psi4 1.4a3.dev225

  ==> Input File <==

--------------------------------------------------------------------------
#psi4
#
memory 32 gb

molecule  {
0 1
  S       -0.2573260    -0.3323280     0.1419150
  O       -0.2860210    -1.5224110    -0.7288200
  O       -0.1913230    -0.4820040     1.6079470
  C        1.1077430     0.7304620    -0.3526940
  C        2.4495880     0.2623560     0.2167580
  C       -1.7119910     0.6470300    -0.2467030
  C       -2.9773330    -0.1490110     0.0593080
  C        2.8936370    -1.0771870    -0.3692660
  C        3.4979800     1.3449170    -0.0414460
  C       -4.2305000     0.6643980    -0.2524990
  H        1.1201440     0.7512950    -1.4483370
  H        0.8860511     1.6401390    -0.0122516
  H        2.3201640     0.1499000     1.2996700
  H       -1.6515560     0.9087510    -1.3087410
  H       -1.6583250     1.5603790     0.3547230
  H       -2.9641430    -1.0716000    -0.5283160
  H       -2.9644700    -0.4377180     1.1148610
  H        2.9999490    -1.0007780    -1.4570900
  H        2.1808400    -1.8761700    -0.1584720
  H        3.8652790    -1.3613920     0.0461660
  H        3.6372140     1.5009250    -1.1167480
  H        3.2107350     2.3002430     0.4092550
  H        4.4622490     1.0479330     0.3817310
  H       -4.2653590     1.5804770     0.3446860
  H       -4.2647910     0.9464390    -1.3091180
  H       -5.1305020     0.0846610    -0.0305780
units angstrom
no_reorient  #important for SAPT in psi4, default
symmetry c1  #important for SAPT in psi4, default
}

set PROPERTIES_ORIGIN ["COM"]
properties('MP2/aug-cc-pvtz', properties = ['dipole'])
--------------------------------------------------------------------------

    Molecular point group: c1
  Charge       = 0
  Multiplicity = 1
  Basis Set: AUG-CC-PVTZ
    Blend: AUG-CC-PVTZ
  Basis Set: (AUG-CC-PVTZ AUX)
    Blend: AUG-CC-PVTZ-JKFIT

    Orbital Energies [Eh]
    ---------------------

    Doubly Occupied:

       1A    -92.169758     2A    -20.535598     3A    -20.534181
       4A    -11.275068     5A    -11.262214     6A    -11.246034
       7A    -11.241640     8A    -11.229776     9A    -11.226905
      10A    -11.212223    11A     -9.140296    12A     -6.824676
      13A     -6.824278    14A     -6.824083    15A     -1.425693
      16A     -1.316418    17A     -1.119033    18A     -1.096312
      19A     -1.016292    20A     -0.963965    21A     -0.937812
      22A     -0.851703    23A     -0.805000    24A     -0.782758
      25A     -0.689895    26A     -0.679841    27A     -0.665854
      28A     -0.647213    29A     -0.620274    30A     -0.605953
      31A     -0.591759    32A     -0.582224    33A     -0.568348
      34A     -0.555694    35A     -0.539840    36A     -0.528933
      37A     -0.510299    38A     -0.503661    39A     -0.495782
      40A     -0.487423    41A     -0.482542    42A     -0.475464
      43A     -0.470671    44A     -0.456432    45A     -0.418101

  @DF-RHF Final Energy:  -821.77798222320030

   => Energetics <=

    Nuclear Repulsion Energy =            707.8937352665507206
    One-Electron Energy =               -2532.4676056803891697
    Two-Electron Energy =                1002.7958881906381521
    Total Energy =                       -821.7779822232002971
  Basis Set: (AUG-CC-PVTZ AUX)
    Blend: AUG-CC-PVTZ-RI
    Molecular point group: c1

    Geometry (in Angstrom), charge = 0, multiplicity = 1:

       Center              X                  Y                   Z               Mass
    ------------   -----------------  -----------------  -----------------  -----------------
         S           -0.246871803296    -0.290679474682     0.121711925976    31.972071174400
         O           -0.275566803296    -1.480762474682    -0.749023074024    15.994914619570
         O           -0.180868803296    -0.440355474682     1.587743925976    15.994914619570
         C            1.118197196704     0.772110525318    -0.372897074024    12.000000000000
         C            2.460042196704     0.304004525318     0.196554925976    12.000000000000
         C           -1.701536803296     0.688678525318    -0.266906074024    12.000000000000
         C           -2.966878803296    -0.107362474682     0.039104925976    12.000000000000
         C            2.904091196704    -1.035538474682    -0.389469074024    12.000000000000
         C            3.508434196704     1.386565525318    -0.061649074024    12.000000000000
         C           -4.220045803296     0.706046525318    -0.272702074024    12.000000000000
         H            1.130598196704     0.792943525318    -1.468540074024     1.007825032230
         H            0.896505296704     1.681787525318    -0.032454674024     1.007825032230
         H            2.330618196704     0.191548525318     1.279466925976     1.007825032230
         H           -1.641101803296     0.950399525318    -1.328944074024     1.007825032230
         H           -1.647870803296     1.602027525318     0.334519925976     1.007825032230
         H           -2.953688803296    -1.029951474682    -0.548519074024     1.007825032230
         H           -2.954015803296    -0.396069474682     1.094657925976     1.007825032230
         H            3.010403196704    -0.959129474682    -1.477293074024     1.007825032230
         H            2.191294196704    -1.834521474682    -0.178675074024     1.007825032230
         H            3.875733196704    -1.319743474682     0.025962925976     1.007825032230
         H            3.647668196704     1.542573525318    -1.136951074024     1.007825032230
         H            3.221189196704     2.341891525318     0.389051925976     1.007825032230
         H            4.472703196704     1.089581525318     0.361527925976     1.007825032230
         H           -4.254904803296     1.622125525318     0.324482925976     1.007825032230
         H           -4.254336803296     0.988087525318    -1.329321074024     1.007825032230
         H           -5.120047803296     0.126309525318    -0.050781074024     1.007825032230

  Basis Set: AUG-CC-PVTZ
    Blend: AUG-CC-PVTZ
  Basis Set: (AUG-CC-PVTZ AUX)
    Blend: AUG-CC-PVTZ-JKFIT
	 Reference Energy          =    -821.7779822232002971 [Eh]
	 Singles Energy            =      -0.0000000000000000 [Eh]
	 Same-Spin Energy          =      -0.5008671923410581 [Eh]
	 Opposite-Spin Energy      =      -1.6482269847764250 [Eh]
	 Correlation Energy        =      -2.1490941771174832 [Eh]
	 Total Energy              =    -823.9270764003177874 [Eh]

	 ================> DF-SCS-MP2 Energies <==================
	-----------------------------------------------------------
	 SCS Same-Spin Scale       =       0.3333333333333333 [-]
	 SCS Opposite-Spin Scale   =       1.2000000000000000 [-]
	 SCS Same-Spin Energy      =      -0.1669557307803527 [Eh]
	 SCS Opposite-Spin Energy  =      -1.9778723817317099 [Eh]
	 SCS Correlation Energy    =      -2.1448281125120627 [Eh]
	 SCS Total Energy          =    -823.9228103357123700 [Eh]
	-----------------------------------------------------------

  Dipole Moment: [D]
     X:    -0.2264      Y:     3.8262      Z:    -1.5734     Total:     4.1433

*** Psi4 exiting successfully. Buy a developer a beer!
