                               Psi4 1.4a3.dev225

  ==> Input File <==

--------------------------------------------------------------------------
#psi4
#
memory 32 gb

molecule  {
0 1
  S       -0.2573260    -0.3323280     0.1419150
  O       -0.2860210    -1.5224110    -0.7288200
  O       -0.1913230    -0.4820040     1.6079470
  C        1.1077430     0.7304620    -0.3526940
  C        2.4495880     0.2623560     0.2167580
  C       -1.7119910     0.6470300    -0.2467030
  C       -2.9773330    -0.1490110     0.0593080
  C        2.8936370    -1.0771870    -0.3692660
  C        3.4979800     1.3449170    -0.0414460
  C       -4.2305000     0.6643980    -0.2524990
  H        1.1201440     0.7512950    -1.4483370
  H        0.8637990     1.7314470     0.0219200
  H        2.3201640     0.1499000     1.2996700
  H       -1.6515560     0.9087510    -1.3087410
  H       -1.6583250     1.5603790     0.3547230
  H       -2.9641430    -1.0716000    -0.5283160
  H       -2.9644700    -0.4377180     1.1148610
  H        3.0743747    -0.9156815    -1.4377937
  H        2.1808400    -1.8761700    -0.1584720
  H        3.8652790    -1.3613920     0.0461660
  H        3.6372140     1.5009250    -1.1167480
  H        3.2107350     2.3002430     0.4092550
  H        4.4622490     1.0479330     0.3817310
  H       -4.2653590     1.5804770     0.3446860
  H       -4.2647910     0.9464390    -1.3091180
  H       -5.1305020     0.0846610    -0.0305780
units angstrom
no_reorient  #important for SAPT in psi4, default
symmetry c1  #important for SAPT in psi4, default
}

set PROPERTIES_ORIGIN ["COM"]
properties('MP2/aug-cc-pvtz', properties = ['dipole'])
--------------------------------------------------------------------------

    Molecular point group: c1
  Charge       = 0
  Multiplicity = 1
  Basis Set: AUG-CC-PVTZ
    Blend: AUG-CC-PVTZ
  Basis Set: (AUG-CC-PVTZ AUX)
    Blend: AUG-CC-PVTZ-JKFIT

    Orbital Energies [Eh]
    ---------------------

    Doubly Occupied:

       1A    -92.170115     2A    -20.535542     3A    -20.534714
       4A    -11.274744     5A    -11.273597     6A    -11.245886
       7A    -11.241397     8A    -11.229623     9A    -11.227055
      10A    -11.213364    11A     -9.140599    12A     -6.824988
      13A     -6.824579    14A     -6.824386    15A     -1.425835
      16A     -1.316594    17A     -1.116025    18A     -1.096120
      19A     -1.013667    20A     -0.960689    21A     -0.937596
      22A     -0.850652    23A     -0.804794    24A     -0.778129
      25A     -0.688175    26A     -0.675783    27A     -0.663674
      28A     -0.642425    29A     -0.619675    30A     -0.604606
      31A     -0.591612    32A     -0.583810    33A     -0.568166
      34A     -0.554408    35A     -0.538479    36A     -0.528095
      37A     -0.510234    38A     -0.503997    39A     -0.495977
      40A     -0.487990    41A     -0.479828    42A     -0.474607
      43A     -0.471069    44A     -0.456319    45A     -0.418171

  @DF-RHF Final Energy:  -821.78214326328339

   => Energetics <=

    Nuclear Repulsion Energy =            707.3253505840025355
    One-Electron Energy =               -2531.3794081316796110
    Two-Electron Energy =                1002.2719142843936879
    Total Energy =                       -821.7821432632833876
  Basis Set: (AUG-CC-PVTZ AUX)
    Blend: AUG-CC-PVTZ-RI
    Molecular point group: c1

    Geometry (in Angstrom), charge = 0, multiplicity = 1:

       Center              X                  Y                   Z               Mass
    ------------   -----------------  -----------------  -----------------  -----------------
         S           -0.247192254201    -0.291762953334     0.121383525464    31.972071174400
         O           -0.275887254201    -1.481845953334    -0.749351474536    15.994914619570
         O           -0.181189254201    -0.441438953334     1.587415525464    15.994914619570
         C            1.117876745799     0.771027046666    -0.373225474536    12.000000000000
         C            2.459721745799     0.302921046666     0.196226525464    12.000000000000
         C           -1.701857254201     0.687595046666    -0.267234474536    12.000000000000
         C           -2.967199254201    -0.108445953334     0.038776525464    12.000000000000
         C            2.903770745799    -1.036621953334    -0.389797474536    12.000000000000
         C            3.508113745799     1.385482046666    -0.061977474536    12.000000000000
         C           -4.220366254201     0.704963046666    -0.273030474536    12.000000000000
         H            1.130277745799     0.791860046666    -1.468868474536     1.007825032230
         H            0.873932745799     1.772012046666     0.001388525464     1.007825032230
         H            2.330297745799     0.190465046666     1.279138525464     1.007825032230
         H           -1.641422254201     0.949316046666    -1.329272474536     1.007825032230
         H           -1.648191254201     1.600944046666     0.334191525464     1.007825032230
         H           -2.954009254201    -1.031034953334    -0.548847474536     1.007825032230
         H           -2.954336254201    -0.397152953334     1.094329525464     1.007825032230
         H            3.084508445799    -0.875116453334    -1.458325174536     1.007825032230
         H            2.190973745799    -1.835604953334    -0.179003474536     1.007825032230
         H            3.875412745799    -1.320826953334     0.025634525464     1.007825032230
         H            3.647347745799     1.541490046666    -1.137279474536     1.007825032230
         H            3.220868745799     2.340808046666     0.388723525464     1.007825032230
         H            4.472382745799     1.088498046666     0.361199525464     1.007825032230
         H           -4.255225254201     1.621042046666     0.324154525464     1.007825032230
         H           -4.254657254201     0.987004046666    -1.329649474536     1.007825032230
         H           -5.120368254201     0.125226046666    -0.051109474536     1.007825032230

  Basis Set: AUG-CC-PVTZ
    Blend: AUG-CC-PVTZ
  Basis Set: (AUG-CC-PVTZ AUX)
    Blend: AUG-CC-PVTZ-JKFIT
	 Reference Energy          =    -821.7821432632833876 [Eh]
	 Singles Energy            =      -0.0000000000000000 [Eh]
	 Same-Spin Energy          =      -0.5011607961254748 [Eh]
	 Opposite-Spin Energy      =      -1.6490681780183292 [Eh]
	 Correlation Energy        =      -2.1502289741438041 [Eh]
	 Total Energy              =    -823.9323722374272165 [Eh]

	 ================> DF-SCS-MP2 Energies <==================
	-----------------------------------------------------------
	 SCS Same-Spin Scale       =       0.3333333333333333 [-]
	 SCS Opposite-Spin Scale   =       1.2000000000000000 [-]
	 SCS Same-Spin Energy      =      -0.1670535987084916 [Eh]
	 SCS Opposite-Spin Energy  =      -1.9788818136219950 [Eh]
	 SCS Correlation Energy    =      -2.1459354123304868 [Eh]
	 SCS Total Energy          =    -823.9280786756138468 [Eh]
	-----------------------------------------------------------

  Dipole Moment: [D]
     X:    -0.1801      Y:     3.8162      Z:    -1.5579     Total:     4.1259

*** Psi4 exiting successfully. Buy a developer a beer!
