                               Psi4 1.4a3.dev225

  ==> Input File <==

--------------------------------------------------------------------------
#psi4
#
memory 32 gb

molecule  {
0 1
  S       -0.2573260    -0.3323280     0.1419150
  O       -0.2860210    -1.5224110    -0.7288200
  O       -0.1913230    -0.4820040     1.6079470
  C        1.1077430     0.7304620    -0.3526940
  C        2.4495880     0.2623560     0.2167580
  C       -1.7119910     0.6470300    -0.2467030
  C       -2.9773330    -0.1490110     0.0593080
  C        2.8936370    -1.0771870    -0.3692660
  C        3.4979800     1.3449170    -0.0414460
  C       -4.2305000     0.6643980    -0.2524990
  H        1.1201440     0.7512950    -1.4483370
  H        0.8637990     1.7314470     0.0219200
  H        2.3260662     0.1550284     1.2502852
  H       -1.6515560     0.9087510    -1.3087410
  H       -1.6583250     1.5603790     0.3547230
  H       -2.9641430    -1.0716000    -0.5283160
  H       -2.9644700    -0.4377180     1.1148610
  H        2.9999490    -1.0007780    -1.4570900
  H        2.1808400    -1.8761700    -0.1584720
  H        3.8652790    -1.3613920     0.0461660
  H        3.6372140     1.5009250    -1.1167480
  H        3.2107350     2.3002430     0.4092550
  H        4.4622490     1.0479330     0.3817310
  H       -4.2653590     1.5804770     0.3446860
  H       -4.2647910     0.9464390    -1.3091180
  H       -5.1305020     0.0846610    -0.0305780
units angstrom
no_reorient  #important for SAPT in psi4, default
symmetry c1  #important for SAPT in psi4, default
}

set PROPERTIES_ORIGIN ["COM"]
properties('MP2/aug-cc-pvtz', properties = ['dipole'])
--------------------------------------------------------------------------

    Molecular point group: c1
  Charge       = 0
  Multiplicity = 1
  Basis Set: AUG-CC-PVTZ
    Blend: AUG-CC-PVTZ
  Basis Set: (AUG-CC-PVTZ AUX)
    Blend: AUG-CC-PVTZ-JKFIT

    Orbital Energies [Eh]
    ---------------------

    Doubly Occupied:

       1A    -92.170147     2A    -20.535643     3A    -20.534729
       4A    -11.274753     5A    -11.273365     6A    -11.241414
       7A    -11.240784     8A    -11.229640     9A    -11.226562
      10A    -11.212574    11A     -9.140628    12A     -6.825014
      13A     -6.824606    14A     -6.824417    15A     -1.425881
      16A     -1.316651    17A     -1.117246    18A     -1.096343
      19A     -1.013642    20A     -0.960460    21A     -0.937555
      22A     -0.851017    23A     -0.806815    24A     -0.783601
      25A     -0.687951    26A     -0.675953    27A     -0.664646
      28A     -0.642657    29A     -0.619916    30A     -0.605017
      31A     -0.591503    32A     -0.581487    33A     -0.568185
      34A     -0.553760    35A     -0.539661    36A     -0.528580
      37A     -0.510182    38A     -0.502943    39A     -0.495730
      40A     -0.488739    41A     -0.484296    42A     -0.476981
      43A     -0.471248    44A     -0.456408    45A     -0.418153

  @DF-RHF Final Energy:  -821.78273810508267

   => Energetics <=

    Nuclear Repulsion Energy =            707.5654016789505931
    One-Electron Energy =               -2531.8413141764690408
    Two-Electron Energy =                1002.4931743924357761
    Total Energy =                       -821.7827381050826716
  Basis Set: (AUG-CC-PVTZ AUX)
    Blend: AUG-CC-PVTZ-RI
    Molecular point group: c1

    Geometry (in Angstrom), charge = 0, multiplicity = 1:

       Center              X                  Y                   Z               Mass
    ------------   -----------------  -----------------  -----------------  -----------------
         S           -0.246771382005    -0.291271788260     0.121805365641    31.972071174400
         O           -0.275466382005    -1.481354788260    -0.748929634359    15.994914619570
         O           -0.180768382005    -0.440947788260     1.587837365641    15.994914619570
         C            1.118297617995     0.771518211740    -0.372803634359    12.000000000000
         C            2.460142617995     0.303412211740     0.196648365641    12.000000000000
         C           -1.701436382005     0.688086211740    -0.266812634359    12.000000000000
         C           -2.966778382005    -0.107954788260     0.039198365641    12.000000000000
         C            2.904191617995    -1.036130788260    -0.389375634359    12.000000000000
         C            3.508534617995     1.385973211740    -0.061555634359    12.000000000000
         C           -4.219945382005     0.705454211740    -0.272608634359    12.000000000000
         H            1.130698617995     0.792351211740    -1.468446634359     1.007825032230
         H            0.874353617995     1.772503211740     0.001810365641     1.007825032230
         H            2.336620817995     0.196084611740     1.230175565641     1.007825032230
         H           -1.641001382005     0.949807211740    -1.328850634359     1.007825032230
         H           -1.647770382005     1.601435211740     0.334613365641     1.007825032230
         H           -2.953588382005    -1.030543788260    -0.548425634359     1.007825032230
         H           -2.953915382005    -0.396661788260     1.094751365641     1.007825032230
         H            3.010503617995    -0.959721788260    -1.477199634359     1.007825032230
         H            2.191394617995    -1.835113788260    -0.178581634359     1.007825032230
         H            3.875833617995    -1.320335788260     0.026056365641     1.007825032230
         H            3.647768617995     1.541981211740    -1.136857634359     1.007825032230
         H            3.221289617995     2.341299211740     0.389145365641     1.007825032230
         H            4.472803617995     1.088989211740     0.361621365641     1.007825032230
         H           -4.254804382005     1.621533211740     0.324576365641     1.007825032230
         H           -4.254236382005     0.987495211740    -1.329227634359     1.007825032230
         H           -5.119947382005     0.125717211740    -0.050687634359     1.007825032230

  Basis Set: AUG-CC-PVTZ
    Blend: AUG-CC-PVTZ
  Basis Set: (AUG-CC-PVTZ AUX)
    Blend: AUG-CC-PVTZ-JKFIT
	 Reference Energy          =    -821.7827381050826716 [Eh]
	 Singles Energy            =      -0.0000000000000000 [Eh]
	 Same-Spin Energy          =      -0.5009560356681617 [Eh]
	 Opposite-Spin Energy      =      -1.6485131803941204 [Eh]
	 Correlation Energy        =      -2.1494692160622821 [Eh]
	 Total Energy              =    -823.9322073211449151 [Eh]

	 ================> DF-SCS-MP2 Energies <==================
	-----------------------------------------------------------
	 SCS Same-Spin Scale       =       0.3333333333333333 [-]
	 SCS Opposite-Spin Scale   =       1.2000000000000000 [-]
	 SCS Same-Spin Energy      =      -0.1669853452227206 [Eh]
	 SCS Opposite-Spin Energy  =      -1.9782158164729444 [Eh]
	 SCS Correlation Energy    =      -2.1452011616956650 [Eh]
	 SCS Total Energy          =    -823.9279392667783668 [Eh]
	-----------------------------------------------------------

  Dipole Moment: [D]
     X:    -0.2010      Y:     3.8012      Z:    -1.5623     Total:     4.1146

*** Psi4 exiting successfully. Buy a developer a beer!
