                               Psi4 1.4a3.dev225

  ==> Input File <==

--------------------------------------------------------------------------
#psi4
#
memory 32 gb

molecule  {
0 1
  S       -0.2573260    -0.3323280     0.1419150
  O       -0.2864101    -1.5385489    -0.7406275
  O       -0.1913230    -0.4820040     1.6079470
  C        1.1077430     0.7304620    -0.3526940
  C        2.4495880     0.2623560     0.2167580
  C       -1.7119910     0.6470300    -0.2467030
  C       -2.9773330    -0.1490110     0.0593080
  C        2.8936370    -1.0771870    -0.3692660
  C        3.4979800     1.3449170    -0.0414460
  C       -4.2305000     0.6643980    -0.2524990
  H        1.1201440     0.7512950    -1.4483370
  H        0.8637990     1.7314470     0.0219200
  H        2.3201640     0.1499000     1.2996700
  H       -1.6515560     0.9087510    -1.3087410
  H       -1.6583250     1.5603790     0.3547230
  H       -2.9641430    -1.0716000    -0.5283160
  H       -2.9644700    -0.4377180     1.1148610
  H        2.9999490    -1.0007780    -1.4570900
  H        2.1808400    -1.8761700    -0.1584720
  H        3.8652790    -1.3613920     0.0461660
  H        3.6372140     1.5009250    -1.1167480
  H        3.2107350     2.3002430     0.4092550
  H        4.4622490     1.0479330     0.3817310
  H       -4.2653590     1.5804770     0.3446860
  H       -4.2647910     0.9464390    -1.3091180
  H       -5.1305020     0.0846610    -0.0305780
units angstrom
no_reorient  #important for SAPT in psi4, default
symmetry c1  #important for SAPT in psi4, default
}

set PROPERTIES_ORIGIN ["COM"]
properties('MP2/aug-cc-pvtz', properties = ['dipole'])
--------------------------------------------------------------------------

    Molecular point group: c1
  Charge       = 0
  Multiplicity = 1
  Basis Set: AUG-CC-PVTZ
    Blend: AUG-CC-PVTZ
  Basis Set: (AUG-CC-PVTZ AUX)
    Blend: AUG-CC-PVTZ-JKFIT

    Orbital Energies [Eh]
    ---------------------

    Doubly Occupied:

       1A    -92.171419     2A    -20.536975     3A    -20.534346
       4A    -11.276070     5A    -11.274957     6A    -11.246998
       7A    -11.241720     8A    -11.229913     9A    -11.227153
      10A    -11.212830    11A     -9.141748    12A     -6.826138
      13A     -6.825719    14A     -6.825395    15A     -1.420136
      16A     -1.311339    17A     -1.116323    18A     -1.096618
      19A     -1.014268    20A     -0.960976    21A     -0.937865
      22A     -0.851301    23A     -0.805766    24A     -0.779325
      25A     -0.686711    26A     -0.676185    27A     -0.663120
      28A     -0.641815    29A     -0.617855    30A     -0.605263
      31A     -0.591432    32A     -0.580791    33A     -0.567939
      34A     -0.553799    35A     -0.539784    36A     -0.528508
      37A     -0.510315    38A     -0.502026    39A     -0.495934
      40A     -0.487444    41A     -0.482198    42A     -0.474596
      43A     -0.469659    44A     -0.454611    45A     -0.418627

  @DF-RHF Final Energy:  -821.78109809623777

   => Energetics <=

    Nuclear Repulsion Energy =            706.3731967850833371
    One-Electron Energy =               -2529.4807671153089359
    Two-Electron Energy =                1001.3264722339878290
    Total Energy =                       -821.7810980962377698
  Basis Set: (AUG-CC-PVTZ AUX)
    Blend: AUG-CC-PVTZ-RI
    Molecular point group: c1

    Geometry (in Angstrom), charge = 0, multiplicity = 1:

       Center              X                  Y                   Z               Mass
    ------------   -----------------  -----------------  -----------------  -----------------
         S           -0.246697201852    -0.289667196181     0.122653017382    31.972071174400
         O           -0.275781301852    -1.495888096181    -0.759889482618    15.994914619570
         O           -0.180694201852    -0.439343196181     1.588685017382    15.994914619570
         C            1.118371798148     0.773122803819    -0.371955982618    12.000000000000
         C            2.460216798148     0.305016803819     0.197496017382    12.000000000000
         C           -1.701362201852     0.689690803819    -0.265964982618    12.000000000000
         C           -2.966704201852    -0.106350196181     0.040046017382    12.000000000000
         C            2.904265798148    -1.034526196181    -0.388527982618    12.000000000000
         C            3.508608798148     1.387577803819    -0.060707982618    12.000000000000
         C           -4.219871201852     0.707058803819    -0.271760982618    12.000000000000
         H            1.130772798148     0.793955803819    -1.467598982618     1.007825032230
         H            0.874427798148     1.774107803819     0.002658017382     1.007825032230
         H            2.330792798148     0.192560803819     1.280408017382     1.007825032230
         H           -1.640927201852     0.951411803819    -1.328002982618     1.007825032230
         H           -1.647696201852     1.603039803819     0.335461017382     1.007825032230
         H           -2.953514201852    -1.028939196181    -0.547577982618     1.007825032230
         H           -2.953841201852    -0.395057196181     1.095599017382     1.007825032230
         H            3.010577798148    -0.958117196181    -1.476351982618     1.007825032230
         H            2.191468798148    -1.833509196181    -0.177733982618     1.007825032230
         H            3.875907798148    -1.318731196181     0.026904017382     1.007825032230
         H            3.647842798148     1.543585803819    -1.136009982618     1.007825032230
         H            3.221363798148     2.342903803819     0.389993017382     1.007825032230
         H            4.472877798148     1.090593803819     0.362469017382     1.007825032230
         H           -4.254730201852     1.623137803819     0.325424017382     1.007825032230
         H           -4.254162201852     0.989099803819    -1.328379982618     1.007825032230
         H           -5.119873201852     0.127321803819    -0.049839982618     1.007825032230

  Basis Set: AUG-CC-PVTZ
    Blend: AUG-CC-PVTZ
  Basis Set: (AUG-CC-PVTZ AUX)
    Blend: AUG-CC-PVTZ-JKFIT
	 Reference Energy          =    -821.7810980962377698 [Eh]
	 Singles Energy            =      -0.0000000000000000 [Eh]
	 Same-Spin Energy          =      -0.5014125690536563 [Eh]
	 Opposite-Spin Energy      =      -1.6498416279188679 [Eh]
	 Correlation Energy        =      -2.1512541969725243 [Eh]
	 Total Energy              =    -823.9323522932103288 [Eh]

	 ================> DF-SCS-MP2 Energies <==================
	-----------------------------------------------------------
	 SCS Same-Spin Scale       =       0.3333333333333333 [-]
	 SCS Opposite-Spin Scale   =       1.2000000000000000 [-]
	 SCS Same-Spin Energy      =      -0.1671375230178854 [Eh]
	 SCS Opposite-Spin Energy  =      -1.9798099535026414 [Eh]
	 SCS Correlation Energy    =      -2.1469474765205270 [Eh]
	 SCS Total Energy          =    -823.9280455727582648 [Eh]
	-----------------------------------------------------------

  Dipole Moment: [D]
     X:    -0.2019      Y:     3.8889      Z:    -1.5196     Total:     4.1801

*** Psi4 exiting successfully. Buy a developer a beer!
