                               Psi4 1.4a3.dev225

  ==> Input File <==

--------------------------------------------------------------------------
#psi4
#
memory 32 gb

molecule  {
0 1
  S       -0.2573260    -0.3323280     0.1419150
  O       -0.2860210    -1.5224110    -0.7288200
  O       -0.1913230    -0.4820040     1.6079470
  C        1.1077430     0.7304620    -0.3526940
  C        2.4276775     0.2506057     0.2264078
  C       -1.7119910     0.6470300    -0.2467030
  C       -2.9773330    -0.1490110     0.0593080
  C        2.8936370    -1.0771870    -0.3692660
  C        3.4979800     1.3449170    -0.0414460
  C       -4.2305000     0.6643980    -0.2524990
  H        1.1201440     0.7512950    -1.4483370
  H        0.8637990     1.7314470     0.0219200
  H        2.3201640     0.1499000     1.2996700
  H       -1.6515560     0.9087510    -1.3087410
  H       -1.6583250     1.5603790     0.3547230
  H       -2.9641430    -1.0716000    -0.5283160
  H       -2.9644700    -0.4377180     1.1148610
  H        2.9999490    -1.0007780    -1.4570900
  H        2.1808400    -1.8761700    -0.1584720
  H        3.8652790    -1.3613920     0.0461660
  H        3.6372140     1.5009250    -1.1167480
  H        3.2107350     2.3002430     0.4092550
  H        4.4622490     1.0479330     0.3817310
  H       -4.2653590     1.5804770     0.3446860
  H       -4.2647910     0.9464390    -1.3091180
  H       -5.1305020     0.0846610    -0.0305780
units angstrom
no_reorient  #important for SAPT in psi4, default
symmetry c1  #important for SAPT in psi4, default
}

set PROPERTIES_ORIGIN ["COM"]
properties('MP2/aug-cc-pvtz', properties = ['dipole'])
--------------------------------------------------------------------------

    Molecular point group: c1
  Charge       = 0
  Multiplicity = 1
  Basis Set: AUG-CC-PVTZ
    Blend: AUG-CC-PVTZ
  Basis Set: (AUG-CC-PVTZ AUX)
    Blend: AUG-CC-PVTZ-JKFIT

    Orbital Energies [Eh]
    ---------------------

    Doubly Occupied:

       1A    -92.169857     2A    -20.535695     3A    -20.534834
       4A    -11.274634     5A    -11.273995     6A    -11.245995
       7A    -11.241345     8A    -11.229593     9A    -11.227412
      10A    -11.212891    11A     -9.140419    12A     -6.824815
      13A     -6.824374    14A     -6.824200    15A     -1.425985
      16A     -1.316723    17A     -1.115894    18A     -1.095853
      19A     -1.012482    20A     -0.960305    21A     -0.936004
      22A     -0.851095    23A     -0.805567    24A     -0.780543
      25A     -0.687918    26A     -0.675997    27A     -0.664139
      28A     -0.642652    29A     -0.619430    30A     -0.603793
      31A     -0.591349    32A     -0.580593    33A     -0.568162
      34A     -0.552598    35A     -0.539727    36A     -0.528643
      37A     -0.510468    38A     -0.501464    39A     -0.495864
      40A     -0.489773    41A     -0.484130    42A     -0.476559
      43A     -0.468566    44A     -0.456538    45A     -0.416909

  @DF-RHF Final Energy:  -821.78294100864855

   => Energetics <=

    Nuclear Repulsion Energy =            707.5427374061266619
    One-Electron Energy =               -2531.8197931921922645
    Two-Electron Energy =                1002.4941147774170531
    Total Energy =                       -821.7829410086485495
  Basis Set: (AUG-CC-PVTZ AUX)
    Blend: AUG-CC-PVTZ-RI
    Molecular point group: c1

    Geometry (in Angstrom), charge = 0, multiplicity = 1:

       Center              X                  Y                   Z               Mass
    ------------   -----------------  -----------------  -----------------  -----------------
         S           -0.245132774318    -0.290380967903     0.120796335457    31.972071174400
         O           -0.273827774318    -1.480463967903    -0.749938664543    15.994914619570
         O           -0.179129774318    -0.440056967903     1.586828335457    15.994914619570
         C            1.119936225682     0.772409032097    -0.373812664543    12.000000000000
         C            2.439870725682     0.292552732097     0.205289135457    12.000000000000
         C           -1.699797774318     0.688977032097    -0.267821664543    12.000000000000
         C           -2.965139774318    -0.107063967903     0.038189335457    12.000000000000
         C            2.905830225682    -1.035239967903    -0.390384664543    12.000000000000
         C            3.510173225682     1.386864032097    -0.062564664543    12.000000000000
         C           -4.218306774318     0.706345032097    -0.273617664543    12.000000000000
         H            1.132337225682     0.793242032097    -1.469455664543     1.007825032230
         H            0.875992225682     1.773394032097     0.000801335457     1.007825032230
         H            2.332357225682     0.191847032097     1.278551335457     1.007825032230
         H           -1.639362774318     0.950698032097    -1.329859664543     1.007825032230
         H           -1.646131774318     1.602326032097     0.333604335457     1.007825032230
         H           -2.951949774318    -1.029652967903    -0.549434664543     1.007825032230
         H           -2.952276774318    -0.395770967903     1.093742335457     1.007825032230
         H            3.012142225682    -0.958830967903    -1.478208664543     1.007825032230
         H            2.193033225682    -1.834222967903    -0.179590664543     1.007825032230
         H            3.877472225682    -1.319444967903     0.025047335457     1.007825032230
         H            3.649407225682     1.542872032097    -1.137866664543     1.007825032230
         H            3.222928225682     2.342190032097     0.388136335457     1.007825032230
         H            4.474442225682     1.089880032097     0.360612335457     1.007825032230
         H           -4.253165774318     1.622424032097     0.323567335457     1.007825032230
         H           -4.252597774318     0.988386032097    -1.330236664543     1.007825032230
         H           -5.118308774318     0.126608032097    -0.051696664543     1.007825032230

  Basis Set: AUG-CC-PVTZ
    Blend: AUG-CC-PVTZ
  Basis Set: (AUG-CC-PVTZ AUX)
    Blend: AUG-CC-PVTZ-JKFIT
	 Reference Energy          =    -821.7829410086485495 [Eh]
	 Singles Energy            =      -0.0000000000000000 [Eh]
	 Same-Spin Energy          =      -0.5010328930547201 [Eh]
	 Opposite-Spin Energy      =      -1.6489152315277384 [Eh]
	 Correlation Energy        =      -2.1499481245824583 [Eh]
	 Total Energy              =    -823.9328891332310150 [Eh]

	 ================> DF-SCS-MP2 Energies <==================
	-----------------------------------------------------------
	 SCS Same-Spin Scale       =       0.3333333333333333 [-]
	 SCS Opposite-Spin Scale   =       1.2000000000000000 [-]
	 SCS Same-Spin Energy      =      -0.1670109643515734 [Eh]
	 SCS Opposite-Spin Energy  =      -1.9786982778332860 [Eh]
	 SCS Correlation Energy    =      -2.1457092421848594 [Eh]
	 SCS Total Energy          =    -823.9286502508333569 [Eh]
	-----------------------------------------------------------

  Dipole Moment: [D]
     X:    -0.2069      Y:     3.7925      Z:    -1.5753     Total:     4.1118

*** Psi4 exiting successfully. Buy a developer a beer!
