                               Psi4 1.4a3.dev225

  ==> Input File <==

--------------------------------------------------------------------------
#psi4
#
memory 32 gb

molecule  {
0 1
  S       -0.2573260    -0.3323280     0.1419150
  O       -0.2860210    -1.5224110    -0.7288200
  O       -0.1913230    -0.4820040     1.6079470
  C        1.1077430     0.7304620    -0.3526940
  C        2.4495880     0.2623560     0.2167580
  C       -1.7119910     0.6470300    -0.2467030
  C       -2.9358712    -0.1229269     0.0492809
  C        2.8936370    -1.0771870    -0.3692660
  C        3.4979800     1.3449170    -0.0414460
  C       -4.2305000     0.6643980    -0.2524990
  H        1.1201440     0.7512950    -1.4483370
  H        0.8637990     1.7314470     0.0219200
  H        2.3201640     0.1499000     1.2996700
  H       -1.6515560     0.9087510    -1.3087410
  H       -1.6583250     1.5603790     0.3547230
  H       -2.9641430    -1.0716000    -0.5283160
  H       -2.9644700    -0.4377180     1.1148610
  H        2.9999490    -1.0007780    -1.4570900
  H        2.1808400    -1.8761700    -0.1584720
  H        3.8652790    -1.3613920     0.0461660
  H        3.6372140     1.5009250    -1.1167480
  H        3.2107350     2.3002430     0.4092550
  H        4.4622490     1.0479330     0.3817310
  H       -4.2653590     1.5804770     0.3446860
  H       -4.2647910     0.9464390    -1.3091180
  H       -5.1305020     0.0846610    -0.0305780
units angstrom
no_reorient  #important for SAPT in psi4, default
symmetry c1  #important for SAPT in psi4, default
}

set PROPERTIES_ORIGIN ["COM"]
properties('MP2/aug-cc-pvtz', properties = ['dipole'])
--------------------------------------------------------------------------

    Molecular point group: c1
  Charge       = 0
  Multiplicity = 1
  Basis Set: AUG-CC-PVTZ
    Blend: AUG-CC-PVTZ
  Basis Set: (AUG-CC-PVTZ AUX)
    Blend: AUG-CC-PVTZ-JKFIT

    Orbital Energies [Eh]
    ---------------------

    Doubly Occupied:

       1A    -92.170652     2A    -20.536032     3A    -20.535271
       4A    -11.274205     5A    -11.273941     6A    -11.246940
       7A    -11.241336     8A    -11.230420     9A    -11.227080
      10A    -11.213156    11A     -9.141202    12A     -6.825598
      13A     -6.825166    14A     -6.824969    15A     -1.426439
      16A     -1.317063    17A     -1.116972    18A     -1.101752
      19A     -1.012064    20A     -0.960748    21A     -0.938008
      22A     -0.851078    23A     -0.803361    24A     -0.779358
      25A     -0.689679    26A     -0.677191    27A     -0.664697
      28A     -0.643206    29A     -0.618889    30A     -0.605596
      31A     -0.594257    32A     -0.581315    33A     -0.566757
      34A     -0.554206    35A     -0.540236    36A     -0.531610
      37A     -0.508629    38A     -0.504448    39A     -0.490300
      40A     -0.487046    41A     -0.482719    42A     -0.474332
      43A     -0.469657    44A     -0.456621    45A     -0.418868

  @DF-RHF Final Energy:  -821.78053080172788

   => Energetics <=

    Nuclear Repulsion Energy =            708.0938068455488974
    One-Electron Energy =               -2532.8825312998528716
    Two-Electron Energy =                1003.0081936525760966
    Total Energy =                       -821.7805308017278776
  Basis Set: (AUG-CC-PVTZ AUX)
    Blend: AUG-CC-PVTZ-RI
    Molecular point group: c1

    Geometry (in Angstrom), charge = 0, multiplicity = 1:

       Center              X                  Y                   Z               Mass
    ------------   -----------------  -----------------  -----------------  -----------------
         S           -0.249767310462    -0.293147869124     0.122235344366    31.972071174400
         O           -0.278462310462    -1.483230869124    -0.748499655634    15.994914619570
         O           -0.183764310462    -0.442823869124     1.588267344366    15.994914619570
         C            1.115301689538     0.769642130876    -0.372373655634    12.000000000000
         C            2.457146689538     0.301536130876     0.197078344366    12.000000000000
         C           -1.704432310462     0.686210130876    -0.266382655634    12.000000000000
         C           -2.928312510462    -0.083746769124     0.029601244366    12.000000000000
         C            2.901195689538    -1.038006869124    -0.388945655634    12.000000000000
         C            3.505538689538     1.384097130876    -0.061125655634    12.000000000000
         C           -4.222941310462     0.703578130876    -0.272178655634    12.000000000000
         H            1.127702689538     0.790475130876    -1.468016655634     1.007825032230
         H            0.871357689538     1.770627130876     0.002240344366     1.007825032230
         H            2.327722689538     0.189080130876     1.279990344366     1.007825032230
         H           -1.643997310462     0.947931130876    -1.328420655634     1.007825032230
         H           -1.650766310462     1.599559130876     0.335043344366     1.007825032230
         H           -2.956584310462    -1.032419869124    -0.547995655634     1.007825032230
         H           -2.956911310462    -0.398537869124     1.095181344366     1.007825032230
         H            3.007507689538    -0.961597869124    -1.476769655634     1.007825032230
         H            2.188398689538    -1.836989869124    -0.178151655634     1.007825032230
         H            3.872837689538    -1.322211869124     0.026486344366     1.007825032230
         H            3.644772689538     1.540105130876    -1.136427655634     1.007825032230
         H            3.218293689538     2.339423130876     0.389575344366     1.007825032230
         H            4.469807689538     1.087113130876     0.362051344366     1.007825032230
         H           -4.257800310462     1.619657130876     0.325006344366     1.007825032230
         H           -4.257232310462     0.985619130876    -1.328797655634     1.007825032230
         H           -5.122943310462     0.123841130876    -0.050257655634     1.007825032230

  Basis Set: AUG-CC-PVTZ
    Blend: AUG-CC-PVTZ
  Basis Set: (AUG-CC-PVTZ AUX)
    Blend: AUG-CC-PVTZ-JKFIT
	 Reference Energy          =    -821.7805308017278776 [Eh]
	 Singles Energy            =      -0.0000000000000000 [Eh]
	 Same-Spin Energy          =      -0.5014264361273542 [Eh]
	 Opposite-Spin Energy      =      -1.6493788638892293 [Eh]
	 Correlation Energy        =      -2.1508053000165832 [Eh]
	 Total Energy              =    -823.9313361017444777 [Eh]

	 ================> DF-SCS-MP2 Energies <==================
	-----------------------------------------------------------
	 SCS Same-Spin Scale       =       0.3333333333333333 [-]
	 SCS Opposite-Spin Scale   =       1.2000000000000000 [-]
	 SCS Same-Spin Energy      =      -0.1671421453757847 [Eh]
	 SCS Opposite-Spin Energy  =      -1.9792546366670751 [Eh]
	 SCS Correlation Energy    =      -2.1463967820428600 [Eh]
	 SCS Total Energy          =    -823.9269275837707482 [Eh]
	-----------------------------------------------------------

  Dipole Moment: [D]
     X:    -0.1523      Y:     3.7963      Z:    -1.5741     Total:     4.1125

*** Psi4 exiting successfully. Buy a developer a beer!
