                               Psi4 1.4a3.dev225

  ==> Input File <==

--------------------------------------------------------------------------
#psi4
#
memory 32 gb

molecule  {
0 1
  S       -0.2573260    -0.3323280     0.1419150
  O       -0.2860210    -1.5224110    -0.7288200
  O       -0.1913230    -0.4820040     1.6079470
  C        1.1077430     0.7304620    -0.3526940
  C        2.4495880     0.2623560     0.2167580
  C       -1.7119910     0.6470300    -0.2467030
  C       -2.9773330    -0.1490110     0.0593080
  C        2.8936370    -1.0771870    -0.3692660
  C        3.4979800     1.3449170    -0.0414460
  C       -4.2305000     0.6643980    -0.2524990
  H        1.1201440     0.7512950    -1.4483370
  H        0.8637990     1.7314470     0.0219200
  H        2.3201640     0.1499000     1.2996700
  H       -1.6515560     0.9087510    -1.3087410
  H       -1.6583250     1.5603790     0.3547230
  H       -2.9641430    -1.0716000    -0.5283160
  H       -2.9644700    -0.4377180     1.1148610
  H        2.9999490    -1.0007780    -1.4570900
  H        2.1808400    -1.8761700    -0.1584720
  H        3.8652790    -1.3613920     0.0461660
  H        3.6372140     1.5009250    -1.1167480
  H        3.1844945     2.3875142     0.4504275
  H        4.4622490     1.0479330     0.3817310
  H       -4.2653590     1.5804770     0.3446860
  H       -4.2647910     0.9464390    -1.3091180
  H       -5.1305020     0.0846610    -0.0305780
units angstrom
no_reorient  #important for SAPT in psi4, default
symmetry c1  #important for SAPT in psi4, default
}

set PROPERTIES_ORIGIN ["COM"]
properties('MP2/aug-cc-pvtz', properties = ['dipole'])
--------------------------------------------------------------------------

    Molecular point group: c1
  Charge       = 0
  Multiplicity = 1
  Basis Set: AUG-CC-PVTZ
    Blend: AUG-CC-PVTZ
  Basis Set: (AUG-CC-PVTZ AUX)
    Blend: AUG-CC-PVTZ-JKFIT

    Orbital Energies [Eh]
    ---------------------

    Doubly Occupied:

       1A    -92.170243     2A    -20.535630     3A    -20.534884
       4A    -11.274840     5A    -11.273771     6A    -11.247829
       7A    -11.241473     8A    -11.238975     9A    -11.229672
      10A    -11.214135    11A     -9.140728    12A     -6.825115
      13A     -6.824708    14A     -6.824516    15A     -1.425970
      16A     -1.316737    17A     -1.115619    18A     -1.096071
      19A     -1.013053    20A     -0.960022    21A     -0.933086
      22A     -0.850280    23A     -0.804462    24A     -0.778460
      25A     -0.687607    26A     -0.675727    27A     -0.663745
      28A     -0.641923    29A     -0.619266    30A     -0.600029
      31A     -0.591527    32A     -0.580620    33A     -0.568238
      34A     -0.549153    35A     -0.540350    36A     -0.528748
      37A     -0.510537    38A     -0.501841    39A     -0.495879
      40A     -0.486921    41A     -0.478804    42A     -0.474936
      43A     -0.470817    44A     -0.456489    45A     -0.418567

  @DF-RHF Final Energy:  -821.77709496883529

   => Energetics <=

    Nuclear Repulsion Energy =            706.9092528453260229
    One-Electron Energy =               -2530.5486832570168190
    Two-Electron Energy =                1001.8623354428553966
    Total Energy =                       -821.7770949688352857
  Basis Set: (AUG-CC-PVTZ AUX)
    Blend: AUG-CC-PVTZ-RI
    Molecular point group: c1

    Geometry (in Angstrom), charge = 0, multiplicity = 1:

       Center              X                  Y                   Z               Mass
    ------------   -----------------  -----------------  -----------------  -----------------
         S           -0.246573961138    -0.291776310368     0.121249161569    31.972071174400
         O           -0.275268961138    -1.481859310368    -0.749485838431    15.994914619570
         O           -0.180570961138    -0.441452310368     1.587281161569    15.994914619570
         C            1.118495038862     0.771013689632    -0.373359838431    12.000000000000
         C            2.460340038862     0.302907689632     0.196092161569    12.000000000000
         C           -1.701238961138     0.687581689632    -0.267368838431    12.000000000000
         C           -2.966580961138    -0.108459310368     0.038642161569    12.000000000000
         C            2.904389038862    -1.036635310368    -0.389931838431    12.000000000000
         C            3.508732038862     1.385468689632    -0.062111838431    12.000000000000
         C           -4.219747961138     0.704949689632    -0.273164838431    12.000000000000
         H            1.130896038862     0.791846689632    -1.469002838431     1.007825032230
         H            0.874551038862     1.771998689632     0.001254161569     1.007825032230
         H            2.330916038862     0.190451689632     1.279004161569     1.007825032230
         H           -1.640803961138     0.949302689632    -1.329406838431     1.007825032230
         H           -1.647572961138     1.600930689632     0.334057161569     1.007825032230
         H           -2.953390961138    -1.031048310368    -0.548981838431     1.007825032230
         H           -2.953717961138    -0.397166310368     1.094195161569     1.007825032230
         H            3.010701038862    -0.960226310368    -1.477755838431     1.007825032230
         H            2.191592038862    -1.835618310368    -0.179137838431     1.007825032230
         H            3.876031038862    -1.320840310368     0.025500161569     1.007825032230
         H            3.647966038862     1.541476689632    -1.137413838431     1.007825032230
         H            3.195246538862     2.428065889632     0.429761661569     1.007825032230
         H            4.473001038862     1.088484689632     0.361065161569     1.007825032230
         H           -4.254606961138     1.621028689632     0.324020161569     1.007825032230
         H           -4.254038961138     0.986990689632    -1.329783838431     1.007825032230
         H           -5.119749961138     0.125212689632    -0.051243838431     1.007825032230

  Basis Set: AUG-CC-PVTZ
    Blend: AUG-CC-PVTZ
  Basis Set: (AUG-CC-PVTZ AUX)
    Blend: AUG-CC-PVTZ-JKFIT
	 Reference Energy          =    -821.7770949688352857 [Eh]
	 Singles Energy            =      -0.0000000000000000 [Eh]
	 Same-Spin Energy          =      -0.5010297678370752 [Eh]
	 Opposite-Spin Energy      =      -1.6495795821727841 [Eh]
	 Correlation Energy        =      -2.1506093500098595 [Eh]
	 Total Energy              =    -823.9277043188451444 [Eh]

	 ================> DF-SCS-MP2 Energies <==================
	-----------------------------------------------------------
	 SCS Same-Spin Scale       =       0.3333333333333333 [-]
	 SCS Opposite-Spin Scale   =       1.2000000000000000 [-]
	 SCS Same-Spin Energy      =      -0.1670099226123584 [Eh]
	 SCS Opposite-Spin Energy  =      -1.9794954986073408 [Eh]
	 SCS Correlation Energy    =      -2.1465054212196990 [Eh]
	 SCS Total Energy          =    -823.9236003900549576 [Eh]
	-----------------------------------------------------------

  Dipole Moment: [D]
     X:    -0.1994      Y:     3.7237      Z:    -1.5986     Total:     4.0572

*** Psi4 exiting successfully. Buy a developer a beer!
