                               Psi4 1.4a3.dev225

  ==> Input File <==

--------------------------------------------------------------------------
#psi4
#
memory 32 gb

molecule  {
0 1
  S       -0.2573260    -0.3323280     0.1419150
  O       -0.2860210    -1.5224110    -0.7288200
  O       -0.1913230    -0.4820040     1.6079470
  C        1.1077430     0.7304620    -0.3526940
  C        2.4441159     0.2166665     0.1895869
  C       -1.7119910     0.6470300    -0.2467030
  C       -2.9773330    -0.1490110     0.0593080
  C        2.8936370    -1.0771870    -0.3692660
  C        3.4979800     1.3449170    -0.0414460
  C       -4.2305000     0.6643980    -0.2524990
  H        1.1201440     0.7512950    -1.4483370
  H        0.8637990     1.7314470     0.0219200
  H        2.3201640     0.1499000     1.2996700
  H       -1.6515560     0.9087510    -1.3087410
  H       -1.6583250     1.5603790     0.3547230
  H       -2.9641430    -1.0716000    -0.5283160
  H       -2.9644700    -0.4377180     1.1148610
  H        2.9999490    -1.0007780    -1.4570900
  H        2.1808400    -1.8761700    -0.1584720
  H        3.8652790    -1.3613920     0.0461660
  H        3.6372140     1.5009250    -1.1167480
  H        3.2107350     2.3002430     0.4092550
  H        4.4622490     1.0479330     0.3817310
  H       -4.2653590     1.5804770     0.3446860
  H       -4.2647910     0.9464390    -1.3091180
  H       -5.1305020     0.0846610    -0.0305780
units angstrom
no_reorient  #important for SAPT in psi4, default
symmetry c1  #important for SAPT in psi4, default
}

set PROPERTIES_ORIGIN ["COM"]
properties('MP2/aug-cc-pvtz', properties = ['dipole'])
--------------------------------------------------------------------------

    Molecular point group: c1
  Charge       = 0
  Multiplicity = 1
  Basis Set: AUG-CC-PVTZ
    Blend: AUG-CC-PVTZ
  Basis Set: (AUG-CC-PVTZ AUX)
    Blend: AUG-CC-PVTZ-JKFIT

    Orbital Energies [Eh]
    ---------------------

    Doubly Occupied:

       1A    -92.169581     2A    -20.535371     3A    -20.534746
       4A    -11.274480     5A    -11.274354     6A    -11.247996
       7A    -11.241257     8A    -11.229517     9A    -11.227771
      10A    -11.211677    11A     -9.140144    12A     -6.824541
      13A     -6.824097    14A     -6.823926    15A     -1.425754
      16A     -1.316505    17A     -1.117027    18A     -1.096188
      19A     -1.014123    20A     -0.960899    21A     -0.940374
      22A     -0.850246    23A     -0.803835    24A     -0.776383
      25A     -0.687720    26A     -0.676197    27A     -0.663878
      28A     -0.642919    29A     -0.619600    30A     -0.606778
      31A     -0.591250    32A     -0.581343    33A     -0.568048
      34A     -0.551867    35A     -0.540683    36A     -0.530135
      37A     -0.510643    38A     -0.501091    39A     -0.498170
      40A     -0.493907    41A     -0.481616    42A     -0.475317
      43A     -0.463447    44A     -0.456207    45A     -0.415969

  @DF-RHF Final Energy:  -821.78021142754346

   => Energetics <=

    Nuclear Repulsion Energy =            707.6413312851296951
    One-Electron Energy =               -2532.0079375700793207
    Two-Electron Energy =                1002.5863948574062761
    Total Energy =                       -821.7802114275434633
  Basis Set: (AUG-CC-PVTZ AUX)
    Blend: AUG-CC-PVTZ-RI
    Molecular point group: c1

    Geometry (in Angstrom), charge = 0, multiplicity = 1:

       Center              X                  Y                   Z               Mass
    ------------   -----------------  -----------------  -----------------  -----------------
         S           -0.246334945597    -0.287898930024     0.123489117507    31.972071174400
         O           -0.275029945597    -1.477981930024    -0.747245882493    15.994914619570
         O           -0.180331945597    -0.437574930024     1.589521117507    15.994914619570
         C            1.118734054403     0.774891069976    -0.371119882493    12.000000000000
         C            2.455106954403     0.261095569976     0.171161017507    12.000000000000
         C           -1.700999945597     0.691459069976    -0.265128882493    12.000000000000
         C           -2.966341945597    -0.104581930024     0.040882117507    12.000000000000
         C            2.904628054403    -1.032757930024    -0.387691882493    12.000000000000
         C            3.508971054403     1.389346069976    -0.059871882493    12.000000000000
         C           -4.219508945597     0.708827069976    -0.270924882493    12.000000000000
         H            1.131135054403     0.795724069976    -1.466762882493     1.007825032230
         H            0.874790054403     1.775876069976     0.003494117507     1.007825032230
         H            2.331155054403     0.194329069976     1.281244117507     1.007825032230
         H           -1.640564945597     0.953180069976    -1.327166882493     1.007825032230
         H           -1.647333945597     1.604808069976     0.336297117507     1.007825032230
         H           -2.953151945597    -1.027170930024    -0.546741882493     1.007825032230
         H           -2.953478945597    -0.393288930024     1.096435117507     1.007825032230
         H            3.010940054403    -0.956348930024    -1.475515882493     1.007825032230
         H            2.191831054403    -1.831740930024    -0.176897882493     1.007825032230
         H            3.876270054403    -1.316962930024     0.027740117507     1.007825032230
         H            3.648205054403     1.545354069976    -1.135173882493     1.007825032230
         H            3.221726054403     2.344672069976     0.390829117507     1.007825032230
         H            4.473240054403     1.092362069976     0.363305117507     1.007825032230
         H           -4.254367945597     1.624906069976     0.326260117507     1.007825032230
         H           -4.253799945597     0.990868069976    -1.327543882493     1.007825032230
         H           -5.119510945597     0.129090069976    -0.049003882493     1.007825032230

  Basis Set: AUG-CC-PVTZ
    Blend: AUG-CC-PVTZ
  Basis Set: (AUG-CC-PVTZ AUX)
    Blend: AUG-CC-PVTZ-JKFIT
	 Reference Energy          =    -821.7802114275434633 [Eh]
	 Singles Energy            =      -0.0000000000000000 [Eh]
	 Same-Spin Energy          =      -0.5013640708158498 [Eh]
	 Opposite-Spin Energy      =      -1.6493146377770829 [Eh]
	 Correlation Energy        =      -2.1506787085929329 [Eh]
	 Total Energy              =    -823.9308901361364406 [Eh]

	 ================> DF-SCS-MP2 Energies <==================
	-----------------------------------------------------------
	 SCS Same-Spin Scale       =       0.3333333333333333 [-]
	 SCS Opposite-Spin Scale   =       1.2000000000000000 [-]
	 SCS Same-Spin Energy      =      -0.1671213569386166 [Eh]
	 SCS Opposite-Spin Energy  =      -1.9791775653324994 [Eh]
	 SCS Correlation Energy    =      -2.1462989222711162 [Eh]
	 SCS Total Energy          =    -823.9265103498146345 [Eh]
	-----------------------------------------------------------

  Dipole Moment: [D]
     X:    -0.1890      Y:     3.7699      Z:    -1.5826     Total:     4.0930

*** Psi4 exiting successfully. Buy a developer a beer!
