                               Psi4 1.4a3.dev225

  ==> Input File <==

--------------------------------------------------------------------------
#psi4
#
memory 32 gb

molecule  {
0 1
  S       -0.2573260    -0.3323280     0.1419150
  O       -0.2860210    -1.5224110    -0.7288200
  O       -0.1913230    -0.4820040     1.6079470
  C        1.1077430     0.7304620    -0.3526940
  C        2.4495880     0.2623560     0.2167580
  C       -1.7119910     0.6470300    -0.2467030
  C       -2.9773330    -0.1490110     0.0593080
  C        2.8936370    -1.0771870    -0.3692660
  C        3.4979800     1.3449170    -0.0414460
  C       -4.2305000     0.6643980    -0.2524990
  H        1.1201440     0.7512950    -1.4483370
  H        0.8637990     1.7314470     0.0219200
  H        2.3201640     0.1499000     1.2996700
  H       -1.6515560     0.9087510    -1.3087410
  H       -1.6583250     1.5603790     0.3547230
  H       -2.9641430    -1.0716000    -0.5283160
  H       -2.9644700    -0.4377180     1.1148610
  H        2.9999490    -1.0007780    -1.4570900
  H        2.1808400    -1.8761700    -0.1584720
  H        3.8652790    -1.3613920     0.0461660
  H        3.6372140     1.5009250    -1.1167480
  H        3.2107350     2.3002430     0.4092550
  H        4.6385133     0.9936456     0.4590860
  H       -4.2653590     1.5804770     0.3446860
  H       -4.2647910     0.9464390    -1.3091180
  H       -5.1305020     0.0846610    -0.0305780
units angstrom
no_reorient  #important for SAPT in psi4, default
symmetry c1  #important for SAPT in psi4, default
}

set PROPERTIES_ORIGIN ["COM"]
properties('MP2/aug-cc-pvtz', properties = ['dipole'])
--------------------------------------------------------------------------

    Molecular point group: c1
  Charge       = 0
  Multiplicity = 1
  Basis Set: AUG-CC-PVTZ
    Blend: AUG-CC-PVTZ
  Basis Set: (AUG-CC-PVTZ AUX)
    Blend: AUG-CC-PVTZ-JKFIT

    Orbital Energies [Eh]
    ---------------------

    Doubly Occupied:

       1A    -92.171577     2A    -20.536575     3A    -20.535830
       4A    -11.275816     5A    -11.275753     6A    -11.249749
       7A    -11.248693     8A    -11.242176     9A    -11.230243
      10A    -11.212936    11A     -9.142012    12A     -6.826406
      13A     -6.825999    14A     -6.825794    15A     -1.426921
      16A     -1.317639    17A     -1.116344    18A     -1.096722
      19A     -1.012762    20A     -0.959545    21A     -0.931409
      22A     -0.849590    23A     -0.803715    24A     -0.779092
      25A     -0.687310    26A     -0.676875    27A     -0.664061
      28A     -0.643186    29A     -0.620148    30A     -0.603488
      31A     -0.591658    32A     -0.578729    33A     -0.568933
      34A     -0.554915    35A     -0.531093    36A     -0.518552
      37A     -0.508009    38A     -0.504400    39A     -0.496312
      40A     -0.483855    41A     -0.480277    42A     -0.474674
      43A     -0.471838    44A     -0.457304    45A     -0.418528

  @DF-RHF Final Energy:  -821.76343365453556

   => Energetics <=

    Nuclear Repulsion Energy =            706.4704079309377676
    One-Electron Energy =               -2529.6127998616611876
    Two-Electron Energy =                1001.3789582761879728
    Total Energy =                       -821.7634336545355609
  Basis Set: (AUG-CC-PVTZ AUX)
    Blend: AUG-CC-PVTZ-RI
    Molecular point group: c1

    Geometry (in Angstrom), charge = 0, multiplicity = 1:

       Center              X                  Y                   Z               Mass
    ------------   -----------------  -----------------  -----------------  -----------------
         S           -0.247817748160    -0.290906855671     0.121026928200    31.972071174400
         O           -0.276512748160    -1.480989855671    -0.749708071800    15.994914619570
         O           -0.181814748160    -0.440582855671     1.587058928200    15.994914619570
         C            1.117251251840     0.771883144329    -0.373582071800    12.000000000000
         C            2.459096251840     0.303777144329     0.195869928200    12.000000000000
         C           -1.702482748160     0.688451144329    -0.267591071800    12.000000000000
         C           -2.967824748160    -0.107589855671     0.038419928200    12.000000000000
         C            2.903145251840    -1.035765855671    -0.390154071800    12.000000000000
         C            3.507488251840     1.386338144329    -0.062334071800    12.000000000000
         C           -4.220991748160     0.705819144329    -0.273387071800    12.000000000000
         H            1.129652251840     0.792716144329    -1.469225071800     1.007825032230
         H            0.873307251840     1.772868144329     0.001031928200     1.007825032230
         H            2.329672251840     0.191321144329     1.278781928200     1.007825032230
         H           -1.642047748160     0.950172144329    -1.329629071800     1.007825032230
         H           -1.648816748160     1.601800144329     0.333834928200     1.007825032230
         H           -2.954634748160    -1.030178855671    -0.549204071800     1.007825032230
         H           -2.954961748160    -0.396296855671     1.093972928200     1.007825032230
         H            3.009457251840    -0.959356855671    -1.477978071800     1.007825032230
         H            2.190348251840    -1.834748855671    -0.179360071800     1.007825032230
         H            3.874787251840    -1.319970855671     0.025277928200     1.007825032230
         H            3.646722251840     1.542346144329    -1.137636071800     1.007825032230
         H            3.220243251840     2.341664144329     0.388366928200     1.007825032230
         H            4.648021551840     1.035066744329     0.438197928200     1.007825032230
         H           -4.255850748160     1.621898144329     0.323797928200     1.007825032230
         H           -4.255282748160     0.987860144329    -1.330006071800     1.007825032230
         H           -5.120993748160     0.126082144329    -0.051466071800     1.007825032230

  Basis Set: AUG-CC-PVTZ
    Blend: AUG-CC-PVTZ
  Basis Set: (AUG-CC-PVTZ AUX)
    Blend: AUG-CC-PVTZ-JKFIT
	 Reference Energy          =    -821.7634336545355609 [Eh]
	 Singles Energy            =      -0.0000000000000000 [Eh]
	 Same-Spin Energy          =      -0.5010872983761776 [Eh]
	 Opposite-Spin Energy      =      -1.6505359089428115 [Eh]
	 Correlation Energy        =      -2.1516232073189894 [Eh]
	 Total Energy              =    -823.9150568618545094 [Eh]

	 ================> DF-SCS-MP2 Energies <==================
	-----------------------------------------------------------
	 SCS Same-Spin Scale       =       0.3333333333333333 [-]
	 SCS Opposite-Spin Scale   =       1.2000000000000000 [-]
	 SCS Same-Spin Energy      =      -0.1670290994587258 [Eh]
	 SCS Opposite-Spin Energy  =      -1.9806430907313737 [Eh]
	 SCS Correlation Energy    =      -2.1476721901900997 [Eh]
	 SCS Total Energy          =    -823.9111058447256255 [Eh]
	-----------------------------------------------------------

  Dipole Moment: [D]
     X:    -0.3887      Y:     3.7932      Z:    -1.6156     Total:     4.1412

*** Psi4 exiting successfully. Buy a developer a beer!
