                               Psi4 1.4a3.dev225

  ==> Input File <==

--------------------------------------------------------------------------
#psi4
#
memory 32 gb

molecule  {
0 1
  S       -0.2573260    -0.3323280     0.1419150
  O       -0.2860210    -1.5224110    -0.7288200
  O       -0.1913230    -0.4820040     1.6079470
  C        1.1077430     0.7304620    -0.3526940
  C        2.4495880     0.2623560     0.2167580
  C       -1.7119910     0.6470300    -0.2467030
  C       -2.9773330    -0.1490110     0.0593080
  C        2.8936370    -1.0771870    -0.3692660
  C        3.4979800     1.3449170    -0.0414460
  C       -4.2305000     0.6643980    -0.2524990
  H        1.1201440     0.7512950    -1.4483370
  H        0.8637990     1.7314470     0.0219200
  H        2.3178031     0.1478486     1.3194239
  H       -1.6515560     0.9087510    -1.3087410
  H       -1.6583250     1.5603790     0.3547230
  H       -2.9641430    -1.0716000    -0.5283160
  H       -2.9644700    -0.4377180     1.1148610
  H        2.9999490    -1.0007780    -1.4570900
  H        2.1808400    -1.8761700    -0.1584720
  H        3.8652790    -1.3613920     0.0461660
  H        3.6372140     1.5009250    -1.1167480
  H        3.2107350     2.3002430     0.4092550
  H        4.4622490     1.0479330     0.3817310
  H       -4.2653590     1.5804770     0.3446860
  H       -4.2647910     0.9464390    -1.3091180
  H       -5.1305020     0.0846610    -0.0305780
units angstrom
no_reorient  #important for SAPT in psi4, default
symmetry c1  #important for SAPT in psi4, default
}

set PROPERTIES_ORIGIN ["COM"]
properties('MP2/aug-cc-pvtz', properties = ['dipole'])
--------------------------------------------------------------------------

    Molecular point group: c1
  Charge       = 0
  Multiplicity = 1
  Basis Set: AUG-CC-PVTZ
    Blend: AUG-CC-PVTZ
  Basis Set: (AUG-CC-PVTZ AUX)
    Blend: AUG-CC-PVTZ-JKFIT

    Orbital Energies [Eh]
    ---------------------

    Doubly Occupied:

       1A    -92.170154     2A    -20.535461     3A    -20.534764
       4A    -11.274797     5A    -11.273861     6A    -11.248873
       7A    -11.241430     8A    -11.229652     9A    -11.226944
      10A    -11.213054    11A     -9.140632    12A     -6.825021
      13A     -6.824612    14A     -6.824419    15A     -1.425819
      16A     -1.316584    17A     -1.115254    18A     -1.095977
      19A     -1.013355    20A     -0.960561    21A     -0.937832
      22A     -0.850535    23A     -0.804427    24A     -0.776812
      25A     -0.687758    26A     -0.675713    27A     -0.663114
      28A     -0.642735    29A     -0.618993    30A     -0.605220
      31A     -0.591482    32A     -0.580916    33A     -0.568193
      34A     -0.553855    35A     -0.539715    36A     -0.528629
      37A     -0.510275    38A     -0.503074    39A     -0.495717
      40A     -0.487064    41A     -0.481714    42A     -0.474526
      43A     -0.469609    44A     -0.456341    45A     -0.418289

  @DF-RHF Final Energy:  -821.78293805128260

   => Energetics <=

    Nuclear Repulsion Energy =            707.2199539022075214
    One-Electron Energy =               -2531.1782586335739325
    Two-Electron Energy =                1002.1753666800836982
    Total Energy =                       -821.7829380512825992
  Basis Set: (AUG-CC-PVTZ AUX)
    Blend: AUG-CC-PVTZ-RI
    Molecular point group: c1

    Geometry (in Angstrom), charge = 0, multiplicity = 1:

       Center              X                  Y                   Z               Mass
    ------------   -----------------  -----------------  -----------------  -----------------
         S           -0.246720629941    -0.291227689839     0.121380714879    31.972071174400
         O           -0.275415629941    -1.481310689839    -0.749354285121    15.994914619570
         O           -0.180717629941    -0.440903689839     1.587412714879    15.994914619570
         C            1.118348370059     0.771562310161    -0.373228285121    12.000000000000
         C            2.460193370059     0.303456310161     0.196223714879    12.000000000000
         C           -1.701385629941     0.688130310161    -0.267237285121    12.000000000000
         C           -2.966727629941    -0.107910689839     0.038773714879    12.000000000000
         C            2.904242370059    -1.036086689839    -0.389800285121    12.000000000000
         C            3.508585370059     1.386017310161    -0.061980285121    12.000000000000
         C           -4.219894629941     0.705498310161    -0.273033285121    12.000000000000
         H            1.130749370059     0.792395310161    -1.468871285121     1.007825032230
         H            0.874404370059     1.772547310161     0.001385714879     1.007825032230
         H            2.328408470059     0.188948910161     1.298889614879     1.007825032230
         H           -1.640950629941     0.949851310161    -1.329275285121     1.007825032230
         H           -1.647719629941     1.601479310161     0.334188714879     1.007825032230
         H           -2.953537629941    -1.030499689839    -0.548850285121     1.007825032230
         H           -2.953864629941    -0.396617689839     1.094326714879     1.007825032230
         H            3.010554370059    -0.959677689839    -1.477624285121     1.007825032230
         H            2.191445370059    -1.835069689839    -0.179006285121     1.007825032230
         H            3.875884370059    -1.320291689839     0.025631714879     1.007825032230
         H            3.647819370059     1.542025310161    -1.137282285121     1.007825032230
         H            3.221340370059     2.341343310161     0.388720714879     1.007825032230
         H            4.472854370059     1.089033310161     0.361196714879     1.007825032230
         H           -4.254753629941     1.621577310161     0.324151714879     1.007825032230
         H           -4.254185629941     0.987539310161    -1.329652285121     1.007825032230
         H           -5.119896629941     0.125761310161    -0.051112285121     1.007825032230

  Basis Set: AUG-CC-PVTZ
    Blend: AUG-CC-PVTZ
  Basis Set: (AUG-CC-PVTZ AUX)
    Blend: AUG-CC-PVTZ-JKFIT
	 Reference Energy          =    -821.7829380512825992 [Eh]
	 Singles Energy            =      -0.0000000000000000 [Eh]
	 Same-Spin Energy          =      -0.5010827846629259 [Eh]
	 Opposite-Spin Energy      =      -1.6490548223972366 [Eh]
	 Correlation Energy        =      -2.1501376070601625 [Eh]
	 Total Energy              =    -823.9330756583427728 [Eh]

	 ================> DF-SCS-MP2 Energies <==================
	-----------------------------------------------------------
	 SCS Same-Spin Scale       =       0.3333333333333333 [-]
	 SCS Opposite-Spin Scale   =       1.2000000000000000 [-]
	 SCS Same-Spin Energy      =      -0.1670275948876420 [Eh]
	 SCS Opposite-Spin Energy  =      -1.9788657868766837 [Eh]
	 SCS Correlation Energy    =      -2.1458933817643255 [Eh]
	 SCS Total Energy          =    -823.9288314330469802 [Eh]
	-----------------------------------------------------------

  Dipole Moment: [D]
     X:    -0.2041      Y:     3.7982      Z:    -1.5805     Total:     4.1190

*** Psi4 exiting successfully. Buy a developer a beer!
