                               Psi4 1.4a3.dev225

  ==> Input File <==

--------------------------------------------------------------------------
#psi4
#
memory 32 gb

molecule  {
0 1
  S       -0.2573260    -0.3323280     0.1419150
  O       -0.2860210    -1.5224110    -0.7288200
  O       -0.1913230    -0.4820040     1.6079470
  C        1.1077430     0.7304620    -0.3526940
  C        2.4495880     0.2623560     0.2167580
  C       -1.7119910     0.6470300    -0.2467030
  C       -2.9773330    -0.1490110     0.0593080
  C        2.8936370    -1.0771870    -0.3692660
  C        3.4979800     1.3449170    -0.0414460
  C       -4.2305000     0.6643980    -0.2524990
  H        1.1201440     0.7512950    -1.4483370
  H        0.8637990     1.7314470     0.0219200
  H        2.3201640     0.1499000     1.2996700
  H       -1.6515560     0.9087510    -1.3087410
  H       -1.6583250     1.5603790     0.3547230
  H       -2.9641430    -1.0716000    -0.5283160
  H       -2.9644700    -0.4377180     1.1148610
  H        2.9999490    -1.0007780    -1.4570900
  H        2.1808400    -1.8761700    -0.1584720
  H        3.8652790    -1.3613920     0.0461660
  H        3.6372140     1.5009250    -1.1167480
  H        3.2107350     2.3002430     0.4092550
  H        4.5063151     1.0343611     0.4010697
  H       -4.2653590     1.5804770     0.3446860
  H       -4.2647910     0.9464390    -1.3091180
  H       -5.1305020     0.0846610    -0.0305780
units angstrom
no_reorient  #important for SAPT in psi4, default
symmetry c1  #important for SAPT in psi4, default
}

set PROPERTIES_ORIGIN ["COM"]
properties('MP2/aug-cc-pvtz', properties = ['dipole'])
--------------------------------------------------------------------------

    Molecular point group: c1
  Charge       = 0
  Multiplicity = 1
  Basis Set: AUG-CC-PVTZ
    Blend: AUG-CC-PVTZ
  Basis Set: (AUG-CC-PVTZ AUX)
    Blend: AUG-CC-PVTZ-JKFIT

    Orbital Energies [Eh]
    ---------------------

    Doubly Occupied:

       1A    -92.170458     2A    -20.535740     3A    -20.534981
       4A    -11.275003     5A    -11.274142     6A    -11.247062
       7A    -11.241584     8A    -11.232812     9A    -11.229775
      10A    -11.212889    11A     -9.140927    12A     -6.825316
      13A     -6.824908    14A     -6.824713    15A     -1.426067
      16A     -1.316823    17A     -1.115733    18A     -1.096175
      19A     -1.013057    20A     -0.960006    21A     -0.935661
      22A     -0.850241    23A     -0.804468    24A     -0.778723
      25A     -0.687500    26A     -0.676005    27A     -0.663591
      28A     -0.642725    29A     -0.619388    30A     -0.604370
      31A     -0.591441    32A     -0.580096    33A     -0.568343
      34A     -0.553719    35A     -0.535278    36A     -0.527839
      37A     -0.510071    38A     -0.503309    39A     -0.495830
      40A     -0.486213    41A     -0.482655    42A     -0.475449
      43A     -0.470720    44A     -0.456568    45A     -0.418351

  @DF-RHF Final Energy:  -821.78140343290659

   => Energetics <=

    Nuclear Repulsion Energy =            707.0879692459317312
    One-Electron Energy =               -2530.9053011606283690
    Two-Electron Energy =                1002.0359284817901653
    Total Energy =                       -821.7814034329065862
  Basis Set: (AUG-CC-PVTZ AUX)
    Blend: AUG-CC-PVTZ-RI
    Molecular point group: c1

    Geometry (in Angstrom), charge = 0, multiplicity = 1:

       Center              X                  Y                   Z               Mass
    ------------   -----------------  -----------------  -----------------  -----------------
         S           -0.247005785157    -0.291156930783     0.121383265042    31.972071174400
         O           -0.275700785157    -1.481239930783    -0.749351734958    15.994914619570
         O           -0.181002785157    -0.440832930783     1.587415265042    15.994914619570
         C            1.118063214843     0.771633069217    -0.373225734958    12.000000000000
         C            2.459908214843     0.303527069217     0.196226265042    12.000000000000
         C           -1.701670785157     0.688201069217    -0.267234734958    12.000000000000
         C           -2.967012785157    -0.107839930783     0.038776265042    12.000000000000
         C            2.903957214843    -1.036015930783    -0.389797734958    12.000000000000
         C            3.508300214843     1.386088069217    -0.061977734958    12.000000000000
         C           -4.220179785157     0.705569069217    -0.273030734958    12.000000000000
         H            1.130464214843     0.792466069217    -1.468868734958     1.007825032230
         H            0.874119214843     1.772618069217     0.001388265042     1.007825032230
         H            2.330484214843     0.191071069217     1.279138265042     1.007825032230
         H           -1.641235785157     0.949922069217    -1.329272734958     1.007825032230
         H           -1.648004785157     1.601550069217     0.334191265042     1.007825032230
         H           -2.953822785157    -1.030428930783    -0.548847734958     1.007825032230
         H           -2.954149785157    -0.396546930783     1.094329265042     1.007825032230
         H            3.010269214843    -0.959606930783    -1.477621734958     1.007825032230
         H            2.191160214843    -1.834998930783    -0.179003734958     1.007825032230
         H            3.875599214843    -1.320220930783     0.025634265042     1.007825032230
         H            3.647534214843     1.542096069217    -1.137279734958     1.007825032230
         H            3.221055214843     2.341414069217     0.388723265042     1.007825032230
         H            4.516635314843     1.075532169217     0.380537965042     1.007825032230
         H           -4.255038785157     1.621648069217     0.324154265042     1.007825032230
         H           -4.254470785157     0.987610069217    -1.329649734958     1.007825032230
         H           -5.120181785157     0.125832069217    -0.051109734958     1.007825032230

  Basis Set: AUG-CC-PVTZ
    Blend: AUG-CC-PVTZ
  Basis Set: (AUG-CC-PVTZ AUX)
    Blend: AUG-CC-PVTZ-JKFIT
	 Reference Energy          =    -821.7814034329065862 [Eh]
	 Singles Energy            =      -0.0000000000000000 [Eh]
	 Same-Spin Energy          =      -0.5010546725378568 [Eh]
	 Opposite-Spin Energy      =      -1.6492381303210100 [Eh]
	 Correlation Energy        =      -2.1502928028588668 [Eh]
	 Total Energy              =    -823.9316962357654575 [Eh]

	 ================> DF-SCS-MP2 Energies <==================
	-----------------------------------------------------------
	 SCS Same-Spin Scale       =       0.3333333333333333 [-]
	 SCS Opposite-Spin Scale   =       1.2000000000000000 [-]
	 SCS Same-Spin Energy      =      -0.1670182241792856 [Eh]
	 SCS Opposite-Spin Energy  =      -1.9790857563852118 [Eh]
	 SCS Correlation Energy    =      -2.1461039805644972 [Eh]
	 SCS Total Energy          =    -823.9275074134710621 [Eh]
	-----------------------------------------------------------

  Dipole Moment: [D]
     X:    -0.2431      Y:     3.7976      Z:    -1.5830     Total:     4.1215

*** Psi4 exiting successfully. Buy a developer a beer!
