                               Psi4 1.4a3.dev225

  ==> Input File <==

--------------------------------------------------------------------------
#psi4
#
memory 32 gb

molecule  {
0 1
  S       -0.2573260    -0.3323280     0.1419150
  O       -0.2860210    -1.5224110    -0.7288200
  O       -0.1913230    -0.4820040     1.6079470
  C        1.1077430     0.7304620    -0.3526940
  C        2.5385154     0.3052427     0.1764041
  C       -1.7119910     0.6470300    -0.2467030
  C       -2.9773330    -0.1490110     0.0593080
  C        2.8936370    -1.0771870    -0.3692660
  C        3.4979800     1.3449170    -0.0414460
  C       -4.2305000     0.6643980    -0.2524990
  H        1.1201440     0.7512950    -1.4483370
  H        0.8637990     1.7314470     0.0219200
  H        2.3201640     0.1499000     1.2996700
  H       -1.6515560     0.9087510    -1.3087410
  H       -1.6583250     1.5603790     0.3547230
  H       -2.9641430    -1.0716000    -0.5283160
  H       -2.9644700    -0.4377180     1.1148610
  H        2.9999490    -1.0007780    -1.4570900
  H        2.1808400    -1.8761700    -0.1584720
  H        3.8652790    -1.3613920     0.0461660
  H        3.6372140     1.5009250    -1.1167480
  H        3.2107350     2.3002430     0.4092550
  H        4.4622490     1.0479330     0.3817310
  H       -4.2653590     1.5804770     0.3446860
  H       -4.2647910     0.9464390    -1.3091180
  H       -5.1305020     0.0846610    -0.0305780
units angstrom
no_reorient  #important for SAPT in psi4, default
symmetry c1  #important for SAPT in psi4, default
}

set PROPERTIES_ORIGIN ["COM"]
properties('MP2/aug-cc-pvtz', properties = ['dipole'])
--------------------------------------------------------------------------

    Molecular point group: c1
  Charge       = 0
  Multiplicity = 1
  Basis Set: AUG-CC-PVTZ
    Blend: AUG-CC-PVTZ
  Basis Set: (AUG-CC-PVTZ AUX)
    Blend: AUG-CC-PVTZ-JKFIT

    Orbital Energies [Eh]
    ---------------------

    Doubly Occupied:

       1A    -92.171053     2A    -20.534741     3A    -20.534389
       4A    -11.275160     5A    -11.272790     6A    -11.250785
       7A    -11.241596     8A    -11.229760     9A    -11.224193
      10A    -11.214002    11A     -9.141238    12A     -6.825599
      13A     -6.825299    14A     -6.825047    15A     -1.425224
      16A     -1.316082    17A     -1.118247    18A     -1.097277
      19A     -1.017479    20A     -0.962112    21A     -0.944479
      22A     -0.848696    23A     -0.802572    24A     -0.771279
      25A     -0.687193    26A     -0.675089    27A     -0.661779
      28A     -0.643844    29A     -0.620469    30A     -0.610743
      31A     -0.592242    32A     -0.583663    33A     -0.568218
      34A     -0.560251    35A     -0.540341    36A     -0.529245
      37A     -0.519462    38A     -0.508060    39A     -0.496700
      40A     -0.481422    41A     -0.475914    42A     -0.470792
      43A     -0.457954    44A     -0.453176    45A     -0.420632

  @DF-RHF Final Energy:  -821.77073974828397

   => Energetics <=

    Nuclear Repulsion Energy =            706.4627885613300577
    One-Electron Energy =               -2529.6144795622030870
    Two-Electron Energy =                1001.3809512525891705
    Total Energy =                       -821.7707397482839724
  Basis Set: (AUG-CC-PVTZ AUX)
    Blend: AUG-CC-PVTZ-RI
    Molecular point group: c1

    Geometry (in Angstrom), charge = 0, multiplicity = 1:

       Center              X                  Y                   Z               Mass
    ------------   -----------------  -----------------  -----------------  -----------------
         S           -0.253238559553    -0.294376675038     0.124453200602    31.972071174400
         O           -0.281933559553    -1.484459675038    -0.746281799398    15.994914619570
         O           -0.187235559553    -0.444052675038     1.590485200602    15.994914619570
         C            1.111830440447     0.768413324962    -0.370155799398    12.000000000000
         C            2.542602840447     0.343194024962     0.158942300602    12.000000000000
         C           -1.707903559553     0.684981324962    -0.264164799398    12.000000000000
         C           -2.973245559553    -0.111059675038     0.041846200602    12.000000000000
         C            2.897724440447    -1.039235675038    -0.386727799398    12.000000000000
         C            3.502067440447     1.382868324962    -0.058907799398    12.000000000000
         C           -4.226412559553     0.702349324962    -0.269960799398    12.000000000000
         H            1.124231440447     0.789246324962    -1.465798799398     1.007825032230
         H            0.867886440447     1.769398324962     0.004458200602     1.007825032230
         H            2.324251440447     0.187851324962     1.282208200602     1.007825032230
         H           -1.647468559553     0.946702324962    -1.326202799398     1.007825032230
         H           -1.654237559553     1.598330324962     0.337261200602     1.007825032230
         H           -2.960055559553    -1.033648675038    -0.545777799398     1.007825032230
         H           -2.960382559553    -0.399766675038     1.097399200602     1.007825032230
         H            3.004036440447    -0.962826675038    -1.474551799398     1.007825032230
         H            2.184927440447    -1.838218675038    -0.175933799398     1.007825032230
         H            3.869366440447    -1.323440675038     0.028704200602     1.007825032230
         H            3.641301440447     1.538876324962    -1.134209799398     1.007825032230
         H            3.214822440447     2.338194324962     0.391793200602     1.007825032230
         H            4.466336440447     1.085884324962     0.364269200602     1.007825032230
         H           -4.261271559553     1.618428324962     0.327224200602     1.007825032230
         H           -4.260703559553     0.984390324962    -1.326579799398     1.007825032230
         H           -5.126414559553     0.122612324962    -0.048039799398     1.007825032230

  Basis Set: AUG-CC-PVTZ
    Blend: AUG-CC-PVTZ
  Basis Set: (AUG-CC-PVTZ AUX)
    Blend: AUG-CC-PVTZ-JKFIT
	 Reference Energy          =    -821.7707397482839724 [Eh]
	 Singles Energy            =      -0.0000000000000000 [Eh]
	 Same-Spin Energy          =      -0.5016957546465948 [Eh]
	 Opposite-Spin Energy      =      -1.6498674102215998 [Eh]
	 Correlation Energy        =      -2.1515631648681945 [Eh]
	 Total Energy              =    -823.9223029131521798 [Eh]

	 ================> DF-SCS-MP2 Energies <==================
	-----------------------------------------------------------
	 SCS Same-Spin Scale       =       0.3333333333333333 [-]
	 SCS Opposite-Spin Scale   =       1.2000000000000000 [-]
	 SCS Same-Spin Energy      =      -0.1672319182155316 [Eh]
	 SCS Opposite-Spin Energy  =      -1.9798408922659196 [Eh]
	 SCS Correlation Energy    =      -2.1470728104814514 [Eh]
	 SCS Total Energy          =    -823.9178125587653767 [Eh]
	-----------------------------------------------------------

  Dipole Moment: [D]
     X:    -0.1646      Y:     3.8251      Z:    -1.5767     Total:     4.1406

*** Psi4 exiting successfully. Buy a developer a beer!
