                               Psi4 1.4a3.dev225

  ==> Input File <==

--------------------------------------------------------------------------
#psi4
#
memory 32 gb

molecule  {
0 1
  S       -0.2573260    -0.3323280     0.1419150
  O       -0.2899121    -1.6837902    -0.8468946
  O       -0.1913230    -0.4820040     1.6079470
  C        1.1077430     0.7304620    -0.3526940
  C        2.4495880     0.2623560     0.2167580
  C       -1.7119910     0.6470300    -0.2467030
  C       -2.9773330    -0.1490110     0.0593080
  C        2.8936370    -1.0771870    -0.3692660
  C        3.4979800     1.3449170    -0.0414460
  C       -4.2305000     0.6643980    -0.2524990
  H        1.1201440     0.7512950    -1.4483370
  H        0.8637990     1.7314470     0.0219200
  H        2.3201640     0.1499000     1.2996700
  H       -1.6515560     0.9087510    -1.3087410
  H       -1.6583250     1.5603790     0.3547230
  H       -2.9641430    -1.0716000    -0.5283160
  H       -2.9644700    -0.4377180     1.1148610
  H        2.9999490    -1.0007780    -1.4570900
  H        2.1808400    -1.8761700    -0.1584720
  H        3.8652790    -1.3613920     0.0461660
  H        3.6372140     1.5009250    -1.1167480
  H        3.2107350     2.3002430     0.4092550
  H        4.4622490     1.0479330     0.3817310
  H       -4.2653590     1.5804770     0.3446860
  H       -4.2647910     0.9464390    -1.3091180
  H       -5.1305020     0.0846610    -0.0305780
units angstrom
no_reorient  #important for SAPT in psi4, default
symmetry c1  #important for SAPT in psi4, default
}

set PROPERTIES_ORIGIN ["COM"]
properties('MP2/aug-cc-pvtz', properties = ['dipole'])
--------------------------------------------------------------------------

    Molecular point group: c1
  Charge       = 0
  Multiplicity = 1
  Basis Set: AUG-CC-PVTZ
    Blend: AUG-CC-PVTZ
  Basis Set: (AUG-CC-PVTZ AUX)
    Blend: AUG-CC-PVTZ-JKFIT

    Orbital Energies [Eh]
    ---------------------

    Doubly Occupied:

       1A    -92.173314     2A    -20.546642     3A    -20.534477
       4A    -11.285178     5A    -11.283667     6A    -11.249910
       7A    -11.244022     8A    -11.231913     9A    -11.229522
      10A    -11.212583    11A     -9.145089    12A     -6.829057
      13A     -6.828718    14A     -6.827767    15A     -1.399381
      16A     -1.250828    17A     -1.120563    18A     -1.100677
      19A     -1.020936    20A     -0.964271    21A     -0.938908
      22A     -0.856756    23A     -0.812549    24A     -0.783596
      25A     -0.682074    26A     -0.680384    27A     -0.661982
      28A     -0.637522    29A     -0.611313    30A     -0.606500
      31A     -0.590615    32A     -0.580120    33A     -0.561782
      34A     -0.553938    35A     -0.540736    36A     -0.529307
      37A     -0.511978    38A     -0.498675    39A     -0.497466
      40A     -0.488407    41A     -0.482166    42A     -0.465718
      43A     -0.456191    44A     -0.438563    45A     -0.420288

  @DF-RHF Final Energy:  -821.74050317632384

   => Energetics <=

    Nuclear Repulsion Energy =            698.6057848613110082
    One-Electron Energy =               -2513.9604804677178436
    Two-Electron Energy =                 993.6141924300831079
    Total Energy =                       -821.7405031763238412
  Basis Set: (AUG-CC-PVTZ AUX)
    Blend: AUG-CC-PVTZ-RI
    Molecular point group: c1

    Geometry (in Angstrom), charge = 0, multiplicity = 1:

       Center              X                  Y                   Z               Mass
    ------------   -----------------  -----------------  -----------------  -----------------
         S           -0.246355833209    -0.275509336242     0.133011742606    31.972071174400
         O           -0.278941933209    -1.626971536242    -0.855797857394    15.994914619570
         O           -0.180352833209    -0.425185336242     1.599043742606    15.994914619570
         C            1.118713166791     0.787280663758    -0.361597257394    12.000000000000
         C            2.460558166791     0.319174663758     0.207854742606    12.000000000000
         C           -1.701020833209     0.703848663758    -0.255606257394    12.000000000000
         C           -2.966362833209    -0.092192336242     0.050404742606    12.000000000000
         C            2.904607166791    -1.020368336242    -0.378169257394    12.000000000000
         C            3.508950166791     1.401735663758    -0.050349257394    12.000000000000
         C           -4.219529833209     0.721216663758    -0.261402257394    12.000000000000
         H            1.131114166791     0.808113663758    -1.457240257394     1.007825032230
         H            0.874769166791     1.788265663758     0.013016742606     1.007825032230
         H            2.331134166791     0.206718663758     1.290766742606     1.007825032230
         H           -1.640585833209     0.965569663758    -1.317644257394     1.007825032230
         H           -1.647354833209     1.617197663758     0.345819742606     1.007825032230
         H           -2.953172833209    -1.014781336242    -0.537219257394     1.007825032230
         H           -2.953499833209    -0.380899336242     1.105957742606     1.007825032230
         H            3.010919166791    -0.943959336242    -1.465993257394     1.007825032230
         H            2.191810166791    -1.819351336242    -0.167375257394     1.007825032230
         H            3.876249166791    -1.304573336242     0.037262742606     1.007825032230
         H            3.648184166791     1.557743663758    -1.125651257394     1.007825032230
         H            3.221705166791     2.357061663758     0.400351742606     1.007825032230
         H            4.473219166791     1.104751663758     0.372827742606     1.007825032230
         H           -4.254388833209     1.637295663758     0.335782742606     1.007825032230
         H           -4.253820833209     1.003257663758    -1.318021257394     1.007825032230
         H           -5.119531833209     0.141479663758    -0.039481257394     1.007825032230

  Basis Set: AUG-CC-PVTZ
    Blend: AUG-CC-PVTZ
  Basis Set: (AUG-CC-PVTZ AUX)
    Blend: AUG-CC-PVTZ-JKFIT
	 Reference Energy          =    -821.7405031763238412 [Eh]
	 Singles Energy            =      -0.0000000000000000 [Eh]
	 Same-Spin Energy          =      -0.5029582791481341 [Eh]
	 Opposite-Spin Energy      =      -1.6560465719771127 [Eh]
	 Correlation Energy        =      -2.1590048511252466 [Eh]
	 Total Energy              =    -823.8995080274490874 [Eh]

	 ================> DF-SCS-MP2 Energies <==================
	-----------------------------------------------------------
	 SCS Same-Spin Scale       =       0.3333333333333333 [-]
	 SCS Opposite-Spin Scale   =       1.2000000000000000 [-]
	 SCS Same-Spin Energy      =      -0.1676527597160447 [Eh]
	 SCS Opposite-Spin Energy  =      -1.9872558863725351 [Eh]
	 SCS Correlation Energy    =      -2.1549086460885798 [Eh]
	 SCS Total Energy          =    -823.8954118224123704 [Eh]
	-----------------------------------------------------------

  Dipole Moment: [D]
     X:    -0.1867      Y:     4.7178      Z:    -1.0002     Total:     4.8263

*** Psi4 exiting successfully. Buy a developer a beer!
