                               Psi4 1.4a3.dev225

  ==> Input File <==

--------------------------------------------------------------------------
#psi4
#
memory 32 gb

molecule  {
0 1
  S       -0.2573260    -0.3323280     0.1419150
  O       -0.2860210    -1.5224110    -0.7288200
  O       -0.1913230    -0.4820040     1.6079470
  C        1.1077430     0.7304620    -0.3526940
  C        2.4934106     0.2470684     0.2353554
  C       -1.7119910     0.6470300    -0.2467030
  C       -2.9773330    -0.1490110     0.0593080
  C        2.8936370    -1.0771870    -0.3692660
  C        3.4979800     1.3449170    -0.0414460
  C       -4.2305000     0.6643980    -0.2524990
  H        1.1201440     0.7512950    -1.4483370
  H        0.8637990     1.7314470     0.0219200
  H        2.3201640     0.1499000     1.2996700
  H       -1.6515560     0.9087510    -1.3087410
  H       -1.6583250     1.5603790     0.3547230
  H       -2.9641430    -1.0716000    -0.5283160
  H       -2.9644700    -0.4377180     1.1148610
  H        2.9999490    -1.0007780    -1.4570900
  H        2.1808400    -1.8761700    -0.1584720
  H        3.8652790    -1.3613920     0.0461660
  H        3.6372140     1.5009250    -1.1167480
  H        3.2107350     2.3002430     0.4092550
  H        4.4622490     1.0479330     0.3817310
  H       -4.2653590     1.5804770     0.3446860
  H       -4.2647910     0.9464390    -1.3091180
  H       -5.1305020     0.0846610    -0.0305780
units angstrom
no_reorient  #important for SAPT in psi4, default
symmetry c1  #important for SAPT in psi4, default
}

set PROPERTIES_ORIGIN ["COM"]
properties('MP2/aug-cc-pvtz', properties = ['dipole'])
--------------------------------------------------------------------------

    Molecular point group: c1
  Charge       = 0
  Multiplicity = 1
  Basis Set: AUG-CC-PVTZ
    Blend: AUG-CC-PVTZ
  Basis Set: (AUG-CC-PVTZ AUX)
    Blend: AUG-CC-PVTZ-JKFIT

    Orbital Energies [Eh]
    ---------------------

    Doubly Occupied:

       1A    -92.169288     2A    -20.534762     3A    -20.533962
       4A    -11.273993     5A    -11.273337     6A    -11.248129
       7A    -11.240862     8A    -11.229235     9A    -11.226794
      10A    -11.212809    11A     -9.139709    12A     -6.824092
      13A     -6.823695    14A     -6.823515    15A     -1.424982
      16A     -1.315884    17A     -1.112853    18A     -1.095592
      19A     -1.014201    20A     -0.959221    21A     -0.941113
      22A     -0.848297    23A     -0.803813    24A     -0.780219
      25A     -0.685929    26A     -0.674491    27A     -0.661887
      28A     -0.641585    29A     -0.619288    30A     -0.606885
      31A     -0.590922    32A     -0.581540    33A     -0.567638
      34A     -0.555925    35A     -0.540100    36A     -0.528296
      37A     -0.508596    38A     -0.504335    39A     -0.495252
      40A     -0.489609    41A     -0.477638    42A     -0.475977
      43A     -0.472140    44A     -0.455663    45A     -0.416718

  @DF-RHF Final Energy:  -821.78161940547602

   => Energetics <=

    Nuclear Repulsion Energy =            706.7107560297241662
    One-Electron Energy =               -2530.1832070762366129
    Two-Electron Energy =                1001.6908316410365387
    Total Energy =                       -821.7816194054760217
  Basis Set: (AUG-CC-PVTZ AUX)
    Blend: AUG-CC-PVTZ-RI
    Molecular point group: c1

    Geometry (in Angstrom), charge = 0, multiplicity = 1:

       Center              X                  Y                   Z               Mass
    ------------   -----------------  -----------------  -----------------  -----------------
         S           -0.249939960230    -0.290122278464     0.120141980548    31.972071174400
         O           -0.278634960230    -1.480205278464    -0.750593019452    15.994914619570
         O           -0.183936960230    -0.439798278464     1.586173980548    15.994914619570
         C            1.115129039770     0.772667721536    -0.374467019452    12.000000000000
         C            2.500796639770     0.289274121536     0.213582380548    12.000000000000
         C           -1.704604960230     0.689235721536    -0.268476019452    12.000000000000
         C           -2.969946960230    -0.106805278464     0.037534980548    12.000000000000
         C            2.901023039770    -1.034981278464    -0.391039019452    12.000000000000
         C            3.505366039770     1.387122721536    -0.063219019452    12.000000000000
         C           -4.223113960230     0.706603721536    -0.274272019452    12.000000000000
         H            1.127530039770     0.793500721536    -1.470110019452     1.007825032230
         H            0.871185039770     1.773652721536     0.000146980548     1.007825032230
         H            2.327550039770     0.192105721536     1.277896980548     1.007825032230
         H           -1.644169960230     0.950956721536    -1.330514019452     1.007825032230
         H           -1.650938960230     1.602584721536     0.332949980548     1.007825032230
         H           -2.956756960230    -1.029394278464    -0.550089019452     1.007825032230
         H           -2.957083960230    -0.395512278464     1.093087980548     1.007825032230
         H            3.007335039770    -0.958572278464    -1.478863019452     1.007825032230
         H            2.188226039770    -1.833964278464    -0.180245019452     1.007825032230
         H            3.872665039770    -1.319186278464     0.024392980548     1.007825032230
         H            3.644600039770     1.543130721536    -1.138521019452     1.007825032230
         H            3.218121039770     2.342448721536     0.387481980548     1.007825032230
         H            4.469635039770     1.090138721536     0.359957980548     1.007825032230
         H           -4.257972960230     1.622682721536     0.322912980548     1.007825032230
         H           -4.257404960230     0.988644721536    -1.330891019452     1.007825032230
         H           -5.123115960230     0.126866721536    -0.052351019452     1.007825032230

  Basis Set: AUG-CC-PVTZ
    Blend: AUG-CC-PVTZ
  Basis Set: (AUG-CC-PVTZ AUX)
    Blend: AUG-CC-PVTZ-JKFIT
	 Reference Energy          =    -821.7816194054760217 [Eh]
	 Singles Energy            =      -0.0000000000000000 [Eh]
	 Same-Spin Energy          =      -0.5009776793060858 [Eh]
	 Opposite-Spin Energy      =      -1.6488020434664297 [Eh]
	 Correlation Energy        =      -2.1497797227725153 [Eh]
	 Total Energy              =    -823.9313991282485858 [Eh]

	 ================> DF-SCS-MP2 Energies <==================
	-----------------------------------------------------------
	 SCS Same-Spin Scale       =       0.3333333333333333 [-]
	 SCS Opposite-Spin Scale   =       1.2000000000000000 [-]
	 SCS Same-Spin Energy      =      -0.1669925597686953 [Eh]
	 SCS Opposite-Spin Energy  =      -1.9785624521597156 [Eh]
	 SCS Correlation Energy    =      -2.1455550119284110 [Eh]
	 SCS Total Energy          =    -823.9271744174044443 [Eh]
	-----------------------------------------------------------

  Dipole Moment: [D]
     X:    -0.1277      Y:     3.8007      Z:    -1.5754     Total:     4.1163

*** Psi4 exiting successfully. Buy a developer a beer!
