                               Psi4 1.4a3.dev225

  ==> Input File <==

--------------------------------------------------------------------------
#psi4
#
memory 32 gb

molecule  {
0 1
  S       -0.2573260    -0.3323280     0.1419150
  O       -0.2860210    -1.5224110    -0.7288200
  O       -0.1913230    -0.4820040     1.6079470
  C        1.1077430     0.7304620    -0.3526940
  C        2.4495880     0.2623560     0.2167580
  C       -1.7119910     0.6470300    -0.2467030
  C       -2.9773330    -0.1490110     0.0593080
  C        2.8936370    -1.0771870    -0.3692660
  C        3.4979800     1.3449170    -0.0414460
  C       -4.2305000     0.6643980    -0.2524990
  H        1.1201440     0.7512950    -1.4483370
  H        0.8637990     1.7314470     0.0219200
  H        2.3201640     0.1499000     1.2996700
  H       -1.6515560     0.9087510    -1.3087410
  H       -1.6583250     1.5603790     0.3547230
  H       -2.9641430    -1.0716000    -0.5283160
  H       -2.9644700    -0.4377180     1.1148610
  H        2.9999490    -1.0007780    -1.4570900
  H        2.1808400    -1.8761700    -0.1584720
  H        3.8652790    -1.3613920     0.0461660
  H        3.6372140     1.5009250    -1.1167480
  H        3.2369755     2.2129718     0.3680825
  H        4.4622490     1.0479330     0.3817310
  H       -4.2653590     1.5804770     0.3446860
  H       -4.2647910     0.9464390    -1.3091180
  H       -5.1305020     0.0846610    -0.0305780
units angstrom
no_reorient  #important for SAPT in psi4, default
symmetry c1  #important for SAPT in psi4, default
}

set PROPERTIES_ORIGIN ["COM"]
properties('MP2/aug-cc-pvtz', properties = ['dipole'])
--------------------------------------------------------------------------

    Molecular point group: c1
  Charge       = 0
  Multiplicity = 1
  Basis Set: AUG-CC-PVTZ
    Blend: AUG-CC-PVTZ
  Basis Set: (AUG-CC-PVTZ AUX)
    Blend: AUG-CC-PVTZ-JKFIT

    Orbital Energies [Eh]
    ---------------------

    Doubly Occupied:

       1A    -92.170106     2A    -20.535446     3A    -20.534672
       4A    -11.274754     5A    -11.273708     6A    -11.245640
       7A    -11.241397     8A    -11.229637     9A    -11.214127
      10A    -11.211934    11A     -9.140579    12A     -6.824970
      13A     -6.824559    14A     -6.824367    15A     -1.425755
      16A     -1.316519    17A     -1.116427    18A     -1.096221
      19A     -1.014416    20A     -0.962211    21A     -0.943835
      22A     -0.851220    23A     -0.805758    24A     -0.779366
      25A     -0.688386    26A     -0.675934    27A     -0.663562
      28A     -0.644210    29A     -0.620382    30A     -0.611879
      31A     -0.591461    32A     -0.581718    33A     -0.568165
      34A     -0.557933    35A     -0.538913    36A     -0.528503
      37A     -0.510040    38A     -0.504306    39A     -0.495613
      40A     -0.488340    41A     -0.483749    42A     -0.475238
      43A     -0.470028    44A     -0.456284    45A     -0.418011

  @DF-RHF Final Energy:  -821.77747923437119

   => Energetics <=

    Nuclear Repulsion Energy =            707.7746427968048692
    One-Electron Energy =               -2532.2436829878502067
    Two-Electron Energy =                1002.6915609566740386
    Total Energy =                       -821.7774792343711852
  Basis Set: (AUG-CC-PVTZ AUX)
    Blend: AUG-CC-PVTZ-RI
    Molecular point group: c1

    Geometry (in Angstrom), charge = 0, multiplicity = 1:

       Center              X                  Y                   Z               Mass
    ------------   -----------------  -----------------  -----------------  -----------------
         S           -0.246896300099    -0.290704268758     0.121754925592    31.972071174400
         O           -0.275591300099    -1.480787268758    -0.748980074408    15.994914619570
         O           -0.180893300099    -0.440380268758     1.587786925592    15.994914619570
         C            1.118172699901     0.772085731242    -0.372854074408    12.000000000000
         C            2.460017699901     0.303979731242     0.196597925592    12.000000000000
         C           -1.701561300099     0.688653731242    -0.266863074408    12.000000000000
         C           -2.966903300099    -0.107387268758     0.039147925592    12.000000000000
         C            2.904066699901    -1.035563268758    -0.389426074408    12.000000000000
         C            3.508409699901     1.386540731242    -0.061606074408    12.000000000000
         C           -4.220070300099     0.706021731242    -0.272659074408    12.000000000000
         H            1.130573699901     0.792918731242    -1.468497074408     1.007825032230
         H            0.874228699901     1.773070731242     0.001759925592     1.007825032230
         H            2.330593699901     0.191523731242     1.279509925592     1.007825032230
         H           -1.641126300099     0.950374731242    -1.328901074408     1.007825032230
         H           -1.647895300099     1.602002731242     0.334562925592     1.007825032230
         H           -2.953713300099    -1.029976268758    -0.548476074408     1.007825032230
         H           -2.954040300099    -0.396094268758     1.094700925592     1.007825032230
         H            3.010378699901    -0.959154268758    -1.477250074408     1.007825032230
         H            2.191269699901    -1.834546268758    -0.178632074408     1.007825032230
         H            3.875708699901    -1.319768268758     0.026005925592     1.007825032230
         H            3.647643699901     1.542548731242    -1.136908074408     1.007825032230
         H            3.247405199901     2.254595531242     0.347922425592     1.007825032230
         H            4.472678699901     1.089556731242     0.361570925592     1.007825032230
         H           -4.254929300099     1.622100731242     0.324525925592     1.007825032230
         H           -4.254361300099     0.988062731242    -1.329278074408     1.007825032230
         H           -5.120072300099     0.126284731242    -0.050738074408     1.007825032230

  Basis Set: AUG-CC-PVTZ
    Blend: AUG-CC-PVTZ
  Basis Set: (AUG-CC-PVTZ AUX)
    Blend: AUG-CC-PVTZ-JKFIT
	 Reference Energy          =    -821.7774792343711852 [Eh]
	 Singles Energy            =      -0.0000000000000000 [Eh]
	 Same-Spin Energy          =      -0.5010773471259904 [Eh]
	 Opposite-Spin Energy      =      -1.6484135181484887 [Eh]
	 Correlation Energy        =      -2.1494908652744789 [Eh]
	 Total Energy              =    -823.9269700996457004 [Eh]

	 ================> DF-SCS-MP2 Energies <==================
	-----------------------------------------------------------
	 SCS Same-Spin Scale       =       0.3333333333333333 [-]
	 SCS Opposite-Spin Scale   =       1.2000000000000000 [-]
	 SCS Same-Spin Energy      =      -0.1670257823753301 [Eh]
	 SCS Opposite-Spin Energy  =      -1.9780962217781863 [Eh]
	 SCS Correlation Energy    =      -2.1451220041535164 [Eh]
	 SCS Total Energy          =    -823.9226012385247486 [Eh]
	-----------------------------------------------------------

  Dipole Moment: [D]
     X:    -0.2064      Y:     3.8585      Z:    -1.5566     Total:     4.1658

*** Psi4 exiting successfully. Buy a developer a beer!
