                               Psi4 1.4a3.dev225

  ==> Input File <==

--------------------------------------------------------------------------
#psi4
#
memory 32 gb

molecule  {
0 1
  S       -0.2573260    -0.3323280     0.1419150
  O       -0.2860210    -1.5224110    -0.7288200
  O       -0.0627122    -0.5644719     1.5856060
  C        1.1077430     0.7304620    -0.3526940
  C        2.4495880     0.2623560     0.2167580
  C       -1.7119910     0.6470300    -0.2467030
  C       -2.9773330    -0.1490110     0.0593080
  C        2.8936370    -1.0771870    -0.3692660
  C        3.4979800     1.3449170    -0.0414460
  C       -4.2305000     0.6643980    -0.2524990
  H        1.1201440     0.7512950    -1.4483370
  H        0.8637990     1.7314470     0.0219200
  H        2.3201640     0.1499000     1.2996700
  H       -1.6515560     0.9087510    -1.3087410
  H       -1.6583250     1.5603790     0.3547230
  H       -2.9641430    -1.0716000    -0.5283160
  H       -2.9644700    -0.4377180     1.1148610
  H        2.9999490    -1.0007780    -1.4570900
  H        2.1808400    -1.8761700    -0.1584720
  H        3.8652790    -1.3613920     0.0461660
  H        3.6372140     1.5009250    -1.1167480
  H        3.2107350     2.3002430     0.4092550
  H        4.4622490     1.0479330     0.3817310
  H       -4.2653590     1.5804770     0.3446860
  H       -4.2647910     0.9464390    -1.3091180
  H       -5.1305020     0.0846610    -0.0305780
units angstrom
no_reorient  #important for SAPT in psi4, default
symmetry c1  #important for SAPT in psi4, default
}

set PROPERTIES_ORIGIN ["COM"]
properties('MP2/aug-cc-pvtz', properties = ['dipole'])
--------------------------------------------------------------------------

    Molecular point group: c1
  Charge       = 0
  Multiplicity = 1
  Basis Set: AUG-CC-PVTZ
    Blend: AUG-CC-PVTZ
  Basis Set: (AUG-CC-PVTZ AUX)
    Blend: AUG-CC-PVTZ-JKFIT

    Orbital Energies [Eh]
    ---------------------

    Doubly Occupied:

       1A    -92.169434     2A    -20.534695     3A    -20.529811
       4A    -11.281752     5A    -11.270435     6A    -11.245476
       7A    -11.243150     8A    -11.232635     9A    -11.224594
      10A    -11.209736    11A     -9.140073    12A     -6.824498
      13A     -6.823968    14A     -6.823873    15A     -1.425121
      16A     -1.311769    17A     -1.114237    18A     -1.099777
      19A     -1.014495    20A     -0.961584    21A     -0.934923
      22A     -0.852726    23A     -0.806387    24A     -0.776109
      25A     -0.687487    26A     -0.678022    27A     -0.664373
      28A     -0.641546    29A     -0.617360    30A     -0.603332
      31A     -0.594939    32A     -0.578452    33A     -0.570709
      34A     -0.551890    35A     -0.537648    36A     -0.530234
      37A     -0.512990    38A     -0.502172    39A     -0.497101
      40A     -0.485025    41A     -0.480082    42A     -0.473884
      43A     -0.468105    44A     -0.452275    45A     -0.418786

  @DF-RHF Final Energy:  -821.78151695706219

   => Energetics <=

    Nuclear Repulsion Energy =            707.5641792171641100
    One-Electron Energy =               -2531.8960503868006526
    Two-Electron Energy =                1002.5503542125743479
    Total Energy =                       -821.7815169570621947
  Basis Set: (AUG-CC-PVTZ AUX)
    Blend: AUG-CC-PVTZ-RI
    Molecular point group: c1

    Geometry (in Angstrom), charge = 0, multiplicity = 1:

       Center              X                  Y                   Z               Mass
    ------------   -----------------  -----------------  -----------------  -----------------
         S           -0.259271879415    -0.283201467426     0.123679803962    31.972071174400
         O           -0.287966879415    -1.473284467426    -0.747055196038    15.994914619570
         O           -0.064658079415    -0.515345367426     1.567370803962    15.994914619570
         C            1.105797120585     0.779588532574    -0.370929196038    12.000000000000
         C            2.447642120585     0.311482532574     0.198522803962    12.000000000000
         C           -1.713936879415     0.696156532574    -0.264938196038    12.000000000000
         C           -2.979278879415    -0.099884467426     0.041072803962    12.000000000000
         C            2.891691120585    -1.028060467426    -0.387501196038    12.000000000000
         C            3.496034120585     1.394043532574    -0.059681196038    12.000000000000
         C           -4.232445879415     0.713524532574    -0.270734196038    12.000000000000
         H            1.118198120585     0.800421532574    -1.466572196038     1.007825032230
         H            0.861853120585     1.780573532574     0.003684803962     1.007825032230
         H            2.318218120585     0.199026532574     1.281434803962     1.007825032230
         H           -1.653501879415     0.957877532574    -1.326976196038     1.007825032230
         H           -1.660270879415     1.609505532574     0.336487803962     1.007825032230
         H           -2.966088879415    -1.022473467426    -0.546551196038     1.007825032230
         H           -2.966415879415    -0.388591467426     1.096625803962     1.007825032230
         H            2.998003120585    -0.951651467426    -1.475325196038     1.007825032230
         H            2.178894120585    -1.827043467426    -0.176707196038     1.007825032230
         H            3.863333120585    -1.312265467426     0.027930803962     1.007825032230
         H            3.635268120585     1.550051532574    -1.134983196038     1.007825032230
         H            3.208789120585     2.349369532574     0.391019803962     1.007825032230
         H            4.460303120585     1.097059532574     0.363495803962     1.007825032230
         H           -4.267304879415     1.629603532574     0.326450803962     1.007825032230
         H           -4.266736879415     0.995565532574    -1.327353196038     1.007825032230
         H           -5.132447879415     0.133787532574    -0.048813196038     1.007825032230

  Basis Set: AUG-CC-PVTZ
    Blend: AUG-CC-PVTZ
  Basis Set: (AUG-CC-PVTZ AUX)
    Blend: AUG-CC-PVTZ-JKFIT
	 Reference Energy          =    -821.7815169570621947 [Eh]
	 Singles Energy            =      -0.0000000000000000 [Eh]
	 Same-Spin Energy          =      -0.5011069841675904 [Eh]
	 Opposite-Spin Energy      =      -1.6488726734553580 [Eh]
	 Correlation Energy        =      -2.1499796576229482 [Eh]
	 Total Energy              =    -823.9314966146851020 [Eh]

	 ================> DF-SCS-MP2 Energies <==================
	-----------------------------------------------------------
	 SCS Same-Spin Scale       =       0.3333333333333333 [-]
	 SCS Opposite-Spin Scale   =       1.2000000000000000 [-]
	 SCS Same-Spin Energy      =      -0.1670356613891968 [Eh]
	 SCS Opposite-Spin Energy  =      -1.9786472081464295 [Eh]
	 SCS Correlation Energy    =      -2.1456828695356260 [Eh]
	 SCS Total Energy          =    -823.9271998265978709 [Eh]
	-----------------------------------------------------------

  Dipole Moment: [D]
     X:    -0.6542      Y:     3.9886      Z:    -1.5097     Total:     4.3146

*** Psi4 exiting successfully. Buy a developer a beer!
