                               Psi4 1.4a3.dev225

  ==> Input File <==

--------------------------------------------------------------------------
#psi4
#
memory 32 gb

molecule  {
0 1
  S       -0.2573260    -0.3323280     0.1419150
  O       -0.2860210    -1.5224110    -0.7288200
  O       -0.1913230    -0.4820040     1.6079470
  C        1.1077430     0.7304620    -0.3526940
  C        2.4495880     0.2623560     0.2167580
  C       -1.7119910     0.6470300    -0.2467030
  C       -2.9773330    -0.1490110     0.0593080
  C        2.8936370    -1.0771870    -0.3692660
  C        3.4979800     1.3449170    -0.0414460
  C       -4.2305000     0.6643980    -0.2524990
  H        1.1201440     0.7512950    -1.4483370
  H        0.8637990     1.7314470     0.0219200
  H        2.3201640     0.1499000     1.2996700
  H       -1.6515560     0.9087510    -1.3087410
  H       -1.6583250     1.5603790     0.3547230
  H       -2.9641430    -1.0716000    -0.5283160
  H       -2.9644700    -0.4377180     1.1148610
  H        2.9999490    -1.0007780    -1.4570900
  H        2.1808400    -1.8761700    -0.1584720
  H        3.8652790    -1.3613920     0.0461660
  H        3.6372140     1.5009250    -1.1167480
  H        3.2107350     2.3002430     0.4092550
  H        4.4446226     1.0533617     0.3739955
  H       -4.2653590     1.5804770     0.3446860
  H       -4.2647910     0.9464390    -1.3091180
  H       -5.1305020     0.0846610    -0.0305780
units angstrom
no_reorient  #important for SAPT in psi4, default
symmetry c1  #important for SAPT in psi4, default
}

set PROPERTIES_ORIGIN ["COM"]
properties('MP2/aug-cc-pvtz', properties = ['dipole'])
--------------------------------------------------------------------------

    Molecular point group: c1
  Charge       = 0
  Multiplicity = 1
  Basis Set: AUG-CC-PVTZ
    Blend: AUG-CC-PVTZ
  Basis Set: (AUG-CC-PVTZ AUX)
    Blend: AUG-CC-PVTZ-JKFIT

    Orbital Energies [Eh]
    ---------------------

    Doubly Occupied:

       1A    -92.170036     2A    -20.535433     3A    -20.534668
       4A    -11.274702     5A    -11.273552     6A    -11.246430
       7A    -11.241366     8A    -11.229601     9A    -11.224387
      10A    -11.212918    11A     -9.140519    12A     -6.824907
      13A     -6.824498    14A     -6.824307    15A     -1.425753
      16A     -1.316523    17A     -1.115796    18A     -1.096049
      19A     -1.013621    20A     -0.960820    21A     -0.938659
      22A     -0.850833    23A     -0.805161    24A     -0.778772
      25A     -0.687979    26A     -0.675692    27A     -0.663562
      28A     -0.642727    29A     -0.619227    30A     -0.605565
      31A     -0.591529    32A     -0.581542    33A     -0.568136
      34A     -0.554000    35A     -0.541439    36A     -0.528738
      37A     -0.510288    38A     -0.502926    39A     -0.495667
      40A     -0.487514    41A     -0.482330    42A     -0.475286
      43A     -0.470308    44A     -0.456288    45A     -0.418206

  @DF-RHF Final Energy:  -821.78355278938784

   => Energetics <=

    Nuclear Repulsion Energy =            707.4111195416367082
    One-Electron Energy =               -2531.5528353780528050
    Two-Electron Energy =                1002.3581630470282562
    Total Energy =                       -821.7835527893878407
  Basis Set: (AUG-CC-PVTZ AUX)
    Blend: AUG-CC-PVTZ-RI
    Molecular point group: c1

    Geometry (in Angstrom), charge = 0, multiplicity = 1:

       Center              X                  Y                   Z               Mass
    ------------   -----------------  -----------------  -----------------  -----------------
         S           -0.246626869048    -0.291273632707     0.121549555118    31.972071174400
         O           -0.275321869048    -1.481356632707    -0.749185444882    15.994914619570
         O           -0.180623869048    -0.440949632707     1.587581555118    15.994914619570
         C            1.118442130952     0.771516367293    -0.373059444882    12.000000000000
         C            2.460287130952     0.303410367293     0.196392555118    12.000000000000
         C           -1.701291869048     0.688084367293    -0.267068444882    12.000000000000
         C           -2.966633869048    -0.107956632707     0.038942555118    12.000000000000
         C            2.904336130952    -1.036132632707    -0.389631444882    12.000000000000
         C            3.508679130952     1.385971367293    -0.061811444882    12.000000000000
         C           -4.219800869048     0.705452367293    -0.272864444882    12.000000000000
         H            1.130843130952     0.792349367293    -1.468702444882     1.007825032230
         H            0.874498130952     1.772501367293     0.001554555118     1.007825032230
         H            2.330863130952     0.190954367293     1.279304555118     1.007825032230
         H           -1.640856869048     0.949805367293    -1.329106444882     1.007825032230
         H           -1.647625869048     1.601433367293     0.334357555118     1.007825032230
         H           -2.953443869048    -1.030545632707    -0.548681444882     1.007825032230
         H           -2.953770869048    -0.396663632707     1.094495555118     1.007825032230
         H            3.010648130952    -0.959723632707    -1.477455444882     1.007825032230
         H            2.191539130952    -1.835115632707    -0.178837444882     1.007825032230
         H            3.875978130952    -1.320337632707     0.025800555118     1.007825032230
         H            3.647913130952     1.541979367293    -1.137113444882     1.007825032230
         H            3.221434130952     2.341297367293     0.388889555118     1.007825032230
         H            4.455321730952     1.094416067293     0.353630055118     1.007825032230
         H           -4.254659869048     1.621531367293     0.324320555118     1.007825032230
         H           -4.254091869048     0.987493367293    -1.329483444882     1.007825032230
         H           -5.119802869048     0.125715367293    -0.050943444882     1.007825032230

  Basis Set: AUG-CC-PVTZ
    Blend: AUG-CC-PVTZ
  Basis Set: (AUG-CC-PVTZ AUX)
    Blend: AUG-CC-PVTZ-JKFIT
	 Reference Energy          =    -821.7835527893878407 [Eh]
	 Singles Energy            =      -0.0000000000000000 [Eh]
	 Same-Spin Energy          =      -0.5010412425884517 [Eh]
	 Opposite-Spin Energy      =      -1.6487594832123973 [Eh]
	 Correlation Energy        =      -2.1498007258008491 [Eh]
	 Total Energy              =    -823.9333535151887418 [Eh]

	 ================> DF-SCS-MP2 Energies <==================
	-----------------------------------------------------------
	 SCS Same-Spin Scale       =       0.3333333333333333 [-]
	 SCS Opposite-Spin Scale   =       1.2000000000000000 [-]
	 SCS Same-Spin Energy      =      -0.1670137475294839 [Eh]
	 SCS Opposite-Spin Energy  =      -1.9785113798548766 [Eh]
	 SCS Correlation Energy    =      -2.1455251273843605 [Eh]
	 SCS Total Energy          =    -823.9290779167722576 [Eh]
	-----------------------------------------------------------

  Dipole Moment: [D]
     X:    -0.1884      Y:     3.7997      Z:    -1.5716     Total:     4.1162

*** Psi4 exiting successfully. Buy a developer a beer!
