                               Psi4 1.4a3.dev225

  ==> Input File <==

--------------------------------------------------------------------------
#psi4
#
memory 32 gb

molecule  {
0 1
  S       -0.2573260    -0.3323280     0.1419150
  O       -0.2860210    -1.5224110    -0.7288200
  O       -0.1913230    -0.4820040     1.6079470
  C        1.1077430     0.7304620    -0.3526940
  C        2.4495880     0.2623560     0.2167580
  C       -1.7119910     0.6470300    -0.2467030
  C       -2.8114859    -0.0446747     0.0191995
  C        2.8936370    -1.0771870    -0.3692660
  C        3.4979800     1.3449170    -0.0414460
  C       -4.2305000     0.6643980    -0.2524990
  H        1.1201440     0.7512950    -1.4483370
  H        0.8637990     1.7314470     0.0219200
  H        2.3201640     0.1499000     1.2996700
  H       -1.6515560     0.9087510    -1.3087410
  H       -1.6583250     1.5603790     0.3547230
  H       -2.9641430    -1.0716000    -0.5283160
  H       -2.9644700    -0.4377180     1.1148610
  H        2.9999490    -1.0007780    -1.4570900
  H        2.1808400    -1.8761700    -0.1584720
  H        3.8652790    -1.3613920     0.0461660
  H        3.6372140     1.5009250    -1.1167480
  H        3.2107350     2.3002430     0.4092550
  H        4.4622490     1.0479330     0.3817310
  H       -4.2653590     1.5804770     0.3446860
  H       -4.2647910     0.9464390    -1.3091180
  H       -5.1305020     0.0846610    -0.0305780
units angstrom
no_reorient  #important for SAPT in psi4, default
symmetry c1  #important for SAPT in psi4, default
}

set PROPERTIES_ORIGIN ["COM"]
properties('MP2/aug-cc-pvtz', properties = ['dipole'])
--------------------------------------------------------------------------

    Molecular point group: c1
  Charge       = 0
  Multiplicity = 1
  Basis Set: AUG-CC-PVTZ
    Blend: AUG-CC-PVTZ
  Basis Set: (AUG-CC-PVTZ AUX)
    Blend: AUG-CC-PVTZ-JKFIT

    Orbital Energies [Eh]
    ---------------------

    Doubly Occupied:

       1A    -92.171616     2A    -20.537357     3A    -20.536613
       4A    -11.275217     5A    -11.268568     6A    -11.247594
       7A    -11.244604     8A    -11.234906     9A    -11.227569
      10A    -11.213642    11A     -9.142414    12A     -6.826840
      13A     -6.826305    14A     -6.826104    15A     -1.428011
      16A     -1.318131    17A     -1.135746    18A     -1.113316
      19A     -1.008792    20A     -0.959783    21A     -0.938530
      22A     -0.854993    23A     -0.796224    24A     -0.780999
      25A     -0.696729    26A     -0.684148    27A     -0.668804
      28A     -0.645654    29A     -0.618970    30A     -0.609328
      31A     -0.605884    32A     -0.581867    33A     -0.562824
      34A     -0.558466    35A     -0.550396    36A     -0.539010
      37A     -0.505896    38A     -0.497345    39A     -0.489570
      40A     -0.483842    41A     -0.477265    42A     -0.461937
      43A     -0.459779    44A     -0.450988    45A     -0.415787

  @DF-RHF Final Energy:  -821.73402805104945

   => Energetics <=

    Nuclear Repulsion Energy =            710.5943720833942052
    One-Electron Energy =               -2537.7000761912518101
    Two-Electron Energy =                1005.3716760568080417
    Total Energy =                       -821.7340280510494495
  Basis Set: (AUG-CC-PVTZ AUX)
    Blend: AUG-CC-PVTZ-RI
    Molecular point group: c1

    Geometry (in Angstrom), charge = 0, multiplicity = 1:

       Center              X                  Y                   Z               Mass
    ------------   -----------------  -----------------  -----------------  -----------------
         S           -0.258863842679    -0.298870600495     0.124435254035    31.972071174400
         O           -0.287558842679    -1.488953600495    -0.746299745965    15.994914619570
         O           -0.192860842679    -0.448546600495     1.590467254035    15.994914619570
         C            1.106205157321     0.763919399505    -0.370173745965    12.000000000000
         C            2.448050157321     0.295813399505     0.199278254035    12.000000000000
         C           -1.713528842679     0.680487399505    -0.264182745965    12.000000000000
         C           -2.813023742679    -0.011217300495     0.001719754035    12.000000000000
         C            2.892099157321    -1.043729600495    -0.386745745965    12.000000000000
         C            3.496442157321     1.378374399505    -0.058925745965    12.000000000000
         C           -4.232037842679     0.697855399505    -0.269978745965    12.000000000000
         H            1.118606157321     0.784752399505    -1.465816745965     1.007825032230
         H            0.862261157321     1.764904399505     0.004440254035     1.007825032230
         H            2.318626157321     0.183357399505     1.282190254035     1.007825032230
         H           -1.653093842679     0.942208399505    -1.326220745965     1.007825032230
         H           -1.659862842679     1.593836399505     0.337243254035     1.007825032230
         H           -2.965680842679    -1.038142600495    -0.545795745965     1.007825032230
         H           -2.966007842679    -0.404260600495     1.097381254035     1.007825032230
         H            2.998411157321    -0.967320600495    -1.474569745965     1.007825032230
         H            2.179302157321    -1.842712600495    -0.175951745965     1.007825032230
         H            3.863741157321    -1.327934600495     0.028686254035     1.007825032230
         H            3.635676157321     1.534382399505    -1.134227745965     1.007825032230
         H            3.209197157321     2.333700399505     0.391775254035     1.007825032230
         H            4.460711157321     1.081390399505     0.364251254035     1.007825032230
         H           -4.266896842679     1.613934399505     0.327206254035     1.007825032230
         H           -4.266328842679     0.979896399505    -1.326597745965     1.007825032230
         H           -5.132039842679     0.118118399505    -0.048057745965     1.007825032230

  Basis Set: AUG-CC-PVTZ
    Blend: AUG-CC-PVTZ
  Basis Set: (AUG-CC-PVTZ AUX)
    Blend: AUG-CC-PVTZ-JKFIT
	 Reference Energy          =    -821.7340280510494495 [Eh]
	 Singles Energy            =      -0.0000000000000000 [Eh]
	 Same-Spin Energy          =      -0.5040090974420255 [Eh]
	 Opposite-Spin Energy      =      -1.6532325842794524 [Eh]
	 Correlation Energy        =      -2.1572416817214779 [Eh]
	 Total Energy              =    -823.8912697327709793 [Eh]

	 ================> DF-SCS-MP2 Energies <==================
	-----------------------------------------------------------
	 SCS Same-Spin Scale       =       0.3333333333333333 [-]
	 SCS Opposite-Spin Scale   =       1.2000000000000000 [-]
	 SCS Same-Spin Energy      =      -0.1680030324806752 [Eh]
	 SCS Opposite-Spin Energy  =      -1.9838791011353427 [Eh]
	 SCS Correlation Energy    =      -2.1518821336160179 [Eh]
	 SCS Total Energy          =    -823.8859101846654767 [Eh]
	-----------------------------------------------------------

  Dipole Moment: [D]
     X:    -0.0555      Y:     3.7864      Z:    -1.5721     Total:     4.1002

*** Psi4 exiting successfully. Buy a developer a beer!
