                               Psi4 1.4a3.dev225

  ==> Input File <==

--------------------------------------------------------------------------
#psi4
#
memory 32 gb

molecule  {
0 1
  S       -0.2573260    -0.3323280     0.1419150
  O       -0.2860210    -1.5224110    -0.7288200
  O       -0.1913230    -0.4820040     1.6079470
  C        1.1077430     0.7304620    -0.3526940
  C        2.4495880     0.2623560     0.2167580
  C       -1.7119910     0.6470300    -0.2467030
  C       -2.9773330    -0.1490110     0.0593080
  C        2.8936370    -1.0771870    -0.3692660
  C        3.4979800     1.3449170    -0.0414460
  C       -4.2305000     0.6643980    -0.2524990
  H        1.1207098     0.7522455    -1.4983248
  H        0.8637990     1.7314470     0.0219200
  H        2.3201640     0.1499000     1.2996700
  H       -1.6515560     0.9087510    -1.3087410
  H       -1.6583250     1.5603790     0.3547230
  H       -2.9641430    -1.0716000    -0.5283160
  H       -2.9644700    -0.4377180     1.1148610
  H        2.9999490    -1.0007780    -1.4570900
  H        2.1808400    -1.8761700    -0.1584720
  H        3.8652790    -1.3613920     0.0461660
  H        3.6372140     1.5009250    -1.1167480
  H        3.2107350     2.3002430     0.4092550
  H        4.4622490     1.0479330     0.3817310
  H       -4.2653590     1.5804770     0.3446860
  H       -4.2647910     0.9464390    -1.3091180
  H       -5.1305020     0.0846610    -0.0305780
units angstrom
no_reorient  #important for SAPT in psi4, default
symmetry c1  #important for SAPT in psi4, default
}

set PROPERTIES_ORIGIN ["COM"]
properties('MP2/aug-cc-pvtz', properties = ['dipole'])
--------------------------------------------------------------------------

    Molecular point group: c1
  Charge       = 0
  Multiplicity = 1
  Basis Set: AUG-CC-PVTZ
    Blend: AUG-CC-PVTZ
  Basis Set: (AUG-CC-PVTZ AUX)
    Blend: AUG-CC-PVTZ-JKFIT

    Orbital Energies [Eh]
    ---------------------

    Doubly Occupied:

       1A    -92.170418     2A    -20.535878     3A    -20.534641
       4A    -11.279092     5A    -11.274753     6A    -11.246998
       7A    -11.241418     8A    -11.229640     9A    -11.226835
      10A    -11.212920    11A     -9.140863    12A     -6.825256
      13A     -6.824844    14A     -6.824650    15A     -1.425933
      16A     -1.316705    17A     -1.114627    18A     -1.096028
      19A     -1.012557    20A     -0.959184    21A     -0.937734
      22A     -0.850382    23A     -0.805013    24A     -0.775900
      25A     -0.687030    26A     -0.674971    27A     -0.662967
      28A     -0.642320    29A     -0.619049    30A     -0.604540
      31A     -0.591384    32A     -0.576771    33A     -0.568142
      34A     -0.553236    35A     -0.539286    36A     -0.528587
      37A     -0.510271    38A     -0.503030    39A     -0.495646
      40A     -0.487300    41A     -0.481727    42A     -0.475421
      43A     -0.470569    44A     -0.456139    45A     -0.418365

  @DF-RHF Final Energy:  -821.78124718486299

   => Energetics <=

    Nuclear Repulsion Energy =            707.0452737112349269
    One-Electron Energy =               -2530.8350021754172303
    Two-Electron Energy =                1002.0084812793191986
    Total Energy =                       -821.7812471848629912
  Basis Set: (AUG-CC-PVTZ AUX)
    Blend: AUG-CC-PVTZ-RI
    Molecular point group: c1

    Geometry (in Angstrom), charge = 0, multiplicity = 1:

       Center              X                  Y                   Z               Mass
    ------------   -----------------  -----------------  -----------------  -----------------
         S           -0.246738605769    -0.291246127546     0.121809069275    31.972071174400
         O           -0.275433605769    -1.481329127546    -0.748925930725    15.994914619570
         O           -0.180735605769    -0.440922127546     1.587841069275    15.994914619570
         C            1.118330394231     0.771543872454    -0.372799930725    12.000000000000
         C            2.460175394231     0.303437872454     0.196652069275    12.000000000000
         C           -1.701403605769     0.688111872454    -0.266808930725    12.000000000000
         C           -2.966745605769    -0.107929127546     0.039202069275    12.000000000000
         C            2.904224394231    -1.036105127546    -0.389371930725    12.000000000000
         C            3.508567394231     1.385998872454    -0.061551930725    12.000000000000
         C           -4.219912605769     0.705479872454    -0.272604930725    12.000000000000
         H            1.131297194231     0.793327372454    -1.518430730725     1.007825032230
         H            0.874386394231     1.772528872454     0.001814069275     1.007825032230
         H            2.330751394231     0.190981872454     1.279564069275     1.007825032230
         H           -1.640968605769     0.949832872454    -1.328846930725     1.007825032230
         H           -1.647737605769     1.601460872454     0.334617069275     1.007825032230
         H           -2.953555605769    -1.030518127546    -0.548421930725     1.007825032230
         H           -2.953882605769    -0.396636127546     1.094755069275     1.007825032230
         H            3.010536394231    -0.959696127546    -1.477195930725     1.007825032230
         H            2.191427394231    -1.835088127546    -0.178577930725     1.007825032230
         H            3.875866394231    -1.320310127546     0.026060069275     1.007825032230
         H            3.647801394231     1.542006872454    -1.136853930725     1.007825032230
         H            3.221322394231     2.341324872454     0.389149069275     1.007825032230
         H            4.472836394231     1.089014872454     0.361625069275     1.007825032230
         H           -4.254771605769     1.621558872454     0.324580069275     1.007825032230
         H           -4.254203605769     0.987520872454    -1.329223930725     1.007825032230
         H           -5.119914605769     0.125742872454    -0.050683930725     1.007825032230

  Basis Set: AUG-CC-PVTZ
    Blend: AUG-CC-PVTZ
  Basis Set: (AUG-CC-PVTZ AUX)
    Blend: AUG-CC-PVTZ-JKFIT
	 Reference Energy          =    -821.7812471848629912 [Eh]
	 Singles Energy            =      -0.0000000000000000 [Eh]
	 Same-Spin Energy          =      -0.5011526832059636 [Eh]
	 Opposite-Spin Energy      =      -1.6493185873446481 [Eh]
	 Correlation Energy        =      -2.1504712705506117 [Eh]
	 Total Energy              =    -823.9317184554136020 [Eh]

	 ================> DF-SCS-MP2 Energies <==================
	-----------------------------------------------------------
	 SCS Same-Spin Scale       =       0.3333333333333333 [-]
	 SCS Opposite-Spin Scale   =       1.2000000000000000 [-]
	 SCS Same-Spin Energy      =      -0.1670508944019879 [Eh]
	 SCS Opposite-Spin Energy  =      -1.9791823048135777 [Eh]
	 SCS Correlation Energy    =      -2.1462331992155654 [Eh]
	 SCS Total Energy          =    -823.9274803840785353 [Eh]
	-----------------------------------------------------------

  Dipole Moment: [D]
     X:    -0.1998      Y:     3.7923      Z:    -1.5617     Total:     4.1062

*** Psi4 exiting successfully. Buy a developer a beer!
