                               Psi4 1.4a3.dev225

  ==> Input File <==

--------------------------------------------------------------------------
#psi4
#
memory 32 gb

molecule  {
0 1
  S       -0.2573260    -0.3323280     0.1419150
  O       -0.2860210    -1.5224110    -0.7288200
  O       -0.1913230    -0.4820040     1.6079470
  C        1.1077430     0.7304620    -0.3526940
  C        2.4495880     0.2623560     0.2167580
  C       -1.7119910     0.6470300    -0.2467030
  C       -2.9773330    -0.1490110     0.0593080
  C        2.8024958    -1.1190348    -0.3329642
  C        3.4979800     1.3449170    -0.0414460
  C       -4.2305000     0.6643980    -0.2524990
  H        1.1201440     0.7512950    -1.4483370
  H        0.8637990     1.7314470     0.0219200
  H        2.3201640     0.1499000     1.2996700
  H       -1.6515560     0.9087510    -1.3087410
  H       -1.6583250     1.5603790     0.3547230
  H       -2.9641430    -1.0716000    -0.5283160
  H       -2.9644700    -0.4377180     1.1148610
  H        2.9999490    -1.0007780    -1.4570900
  H        2.1808400    -1.8761700    -0.1584720
  H        3.8652790    -1.3613920     0.0461660
  H        3.6372140     1.5009250    -1.1167480
  H        3.2107350     2.3002430     0.4092550
  H        4.4622490     1.0479330     0.3817310
  H       -4.2653590     1.5804770     0.3446860
  H       -4.2647910     0.9464390    -1.3091180
  H       -5.1305020     0.0846610    -0.0305780
units angstrom
no_reorient  #important for SAPT in psi4, default
symmetry c1  #important for SAPT in psi4, default
}

set PROPERTIES_ORIGIN ["COM"]
properties('MP2/aug-cc-pvtz', properties = ['dipole'])
--------------------------------------------------------------------------

    Molecular point group: c1
  Charge       = 0
  Multiplicity = 1
  Basis Set: AUG-CC-PVTZ
    Blend: AUG-CC-PVTZ
  Basis Set: (AUG-CC-PVTZ AUX)
    Blend: AUG-CC-PVTZ-JKFIT

    Orbital Energies [Eh]
    ---------------------

    Doubly Occupied:

       1A    -92.170270     2A    -20.535733     3A    -20.535083
       4A    -11.274848     5A    -11.272683     6A    -11.248004
       7A    -11.241488     8A    -11.229698     9A    -11.229472
      10A    -11.215908    11A     -9.140776    12A     -6.825159
      13A     -6.824754    14A     -6.824564    15A     -1.426175
      16A     -1.316929    17A     -1.116244    18A     -1.096222
      19A     -1.012734    20A     -0.959878    21A     -0.942524
      22A     -0.850475    23A     -0.805197    24A     -0.779223
      25A     -0.688852    26A     -0.676102    27A     -0.663067
      28A     -0.645381    29A     -0.620581    30A     -0.610741
      31A     -0.591579    32A     -0.582004    33A     -0.568267
      34A     -0.555109    35A     -0.534940    36A     -0.523993
      37A     -0.517243    38A     -0.507998    39A     -0.496875
      40A     -0.484415    41A     -0.476673    42A     -0.472993
      43A     -0.467548    44A     -0.456568    45A     -0.419142

  @DF-RHF Final Energy:  -821.76952559181620

   => Energetics <=

    Nuclear Repulsion Energy =            708.1699547079330159
    One-Electron Energy =               -2533.0107459439195736
    Two-Electron Energy =                1003.0712656441704667
    Total Energy =                       -821.7695255918162047
  Basis Set: (AUG-CC-PVTZ AUX)
    Blend: AUG-CC-PVTZ-RI
    Molecular point group: c1

    Geometry (in Angstrom), charge = 0, multiplicity = 1:

       Center              X                  Y                   Z               Mass
    ------------   -----------------  -----------------  -----------------  -----------------
         S           -0.240069802303    -0.288179880810     0.118847224295    31.972071174400
         O           -0.268764802303    -1.478262880810    -0.751887775705    15.994914619570
         O           -0.174066802303    -0.437855880810     1.584879224295    15.994914619570
         C            1.124999197697     0.774610119190    -0.375761775705    12.000000000000
         C            2.466844197697     0.306504119190     0.193690224295    12.000000000000
         C           -1.694734802303     0.691178119190    -0.269770775705    12.000000000000
         C           -2.960076802303    -0.104862880810     0.036240224295    12.000000000000
         C            2.819751997697    -1.074886680810    -0.356031975705    12.000000000000
         C            3.515236197697     1.389065119190    -0.064513775705    12.000000000000
         C           -4.213243802303     0.708546119190    -0.275566775705    12.000000000000
         H            1.137400197697     0.795443119190    -1.471404775705     1.007825032230
         H            0.881055197697     1.775595119190    -0.001147775705     1.007825032230
         H            2.337420197697     0.194048119190     1.276602224295     1.007825032230
         H           -1.634299802303     0.952899119190    -1.331808775705     1.007825032230
         H           -1.641068802303     1.604527119190     0.331655224295     1.007825032230
         H           -2.946886802303    -1.027451880810    -0.551383775705     1.007825032230
         H           -2.947213802303    -0.393569880810     1.091793224295     1.007825032230
         H            3.017205197697    -0.956629880810    -1.480157775705     1.007825032230
         H            2.198096197697    -1.832021880810    -0.181539775705     1.007825032230
         H            3.882535197697    -1.317243880810     0.023098224295     1.007825032230
         H            3.654470197697     1.545073119190    -1.139815775705     1.007825032230
         H            3.227991197697     2.344391119190     0.386187224295     1.007825032230
         H            4.479505197697     1.092081119190     0.358663224295     1.007825032230
         H           -4.248102802303     1.624625119190     0.321618224295     1.007825032230
         H           -4.247534802303     0.990587119190    -1.332185775705     1.007825032230
         H           -5.113245802303     0.128809119190    -0.053645775705     1.007825032230

  Basis Set: AUG-CC-PVTZ
    Blend: AUG-CC-PVTZ
  Basis Set: (AUG-CC-PVTZ AUX)
    Blend: AUG-CC-PVTZ-JKFIT
	 Reference Energy          =    -821.7695255918162047 [Eh]
	 Singles Energy            =      -0.0000000000000000 [Eh]
	 Same-Spin Energy          =      -0.5012605083155797 [Eh]
	 Opposite-Spin Energy      =      -1.6495555989711561 [Eh]
	 Correlation Energy        =      -2.1508161072867358 [Eh]
	 Total Energy              =    -823.9203416991028917 [Eh]

	 ================> DF-SCS-MP2 Energies <==================
	-----------------------------------------------------------
	 SCS Same-Spin Scale       =       0.3333333333333333 [-]
	 SCS Opposite-Spin Scale   =       1.2000000000000000 [-]
	 SCS Same-Spin Energy      =      -0.1670868361051932 [Eh]
	 SCS Opposite-Spin Energy  =      -1.9794667187653872 [Eh]
	 SCS Correlation Energy    =      -2.1465535548705805 [Eh]
	 SCS Total Energy          =    -823.9160791466867977 [Eh]
	-----------------------------------------------------------

  Dipole Moment: [D]
     X:    -0.2029      Y:     3.8465      Z:    -1.5510     Total:     4.1524

*** Psi4 exiting successfully. Buy a developer a beer!
