                               Psi4 1.4a3.dev225

  ==> Input File <==

--------------------------------------------------------------------------
#psi4
#
memory 32 gb

molecule  {
0 1
  S       -0.2573260    -0.3323280     0.1419150
  O       -0.2860210    -1.5224110    -0.7288200
  O       -0.1913230    -0.4820040     1.6079470
  C        1.1456758     0.7599950    -0.3664383
  C        2.4495880     0.2623560     0.2167580
  C       -1.7119910     0.6470300    -0.2467030
  C       -2.9773330    -0.1490110     0.0593080
  C        2.8936370    -1.0771870    -0.3692660
  C        3.4979800     1.3449170    -0.0414460
  C       -4.2305000     0.6643980    -0.2524990
  H        1.1201440     0.7512950    -1.4483370
  H        0.8637990     1.7314470     0.0219200
  H        2.3201640     0.1499000     1.2996700
  H       -1.6515560     0.9087510    -1.3087410
  H       -1.6583250     1.5603790     0.3547230
  H       -2.9641430    -1.0716000    -0.5283160
  H       -2.9644700    -0.4377180     1.1148610
  H        2.9999490    -1.0007780    -1.4570900
  H        2.1808400    -1.8761700    -0.1584720
  H        3.8652790    -1.3613920     0.0461660
  H        3.6372140     1.5009250    -1.1167480
  H        3.2107350     2.3002430     0.4092550
  H        4.4622490     1.0479330     0.3817310
  H       -4.2653590     1.5804770     0.3446860
  H       -4.2647910     0.9464390    -1.3091180
  H       -5.1305020     0.0846610    -0.0305780
units angstrom
no_reorient  #important for SAPT in psi4, default
symmetry c1  #important for SAPT in psi4, default
}

set PROPERTIES_ORIGIN ["COM"]
properties('MP2/aug-cc-pvtz', properties = ['dipole'])
--------------------------------------------------------------------------

    Molecular point group: c1
  Charge       = 0
  Multiplicity = 1
  Basis Set: AUG-CC-PVTZ
    Blend: AUG-CC-PVTZ
  Basis Set: (AUG-CC-PVTZ AUX)
    Blend: AUG-CC-PVTZ-JKFIT

    Orbital Energies [Eh]
    ---------------------

    Doubly Occupied:

       1A    -92.168199     2A    -20.535268     3A    -20.534393
       4A    -11.274709     5A    -11.274632     6A    -11.245071
       7A    -11.241284     8A    -11.229526     9A    -11.226300
      10A    -11.213399    11A     -9.138562    12A     -6.822860
      13A     -6.822450    14A     -6.822329    15A     -1.424008
      16A     -1.315797    17A     -1.117102    18A     -1.096134
      19A     -1.009240    20A     -0.959660    21A     -0.938242
      22A     -0.850610    23A     -0.803591    24A     -0.780942
      25A     -0.684136    26A     -0.676280    27A     -0.664549
      28A     -0.642902    29A     -0.619566    30A     -0.606843
      31A     -0.591413    32A     -0.583246    33A     -0.567974
      34A     -0.554177    35A     -0.540084    36A     -0.528154
      37A     -0.510221    38A     -0.503237    39A     -0.496007
      40A     -0.490997    41A     -0.482792    42A     -0.474377
      43A     -0.469265    44A     -0.456462    45A     -0.411374

  @DF-RHF Final Energy:  -821.78164620000769

   => Energetics <=

    Nuclear Repulsion Energy =            706.4591454621586308
    One-Electron Energy =               -2529.6848565005889213
    Two-Electron Energy =                1001.4440648384226051
    Total Energy =                       -821.7816462000076854
  Basis Set: (AUG-CC-PVTZ AUX)
    Blend: AUG-CC-PVTZ-RI
    Molecular point group: c1

    Geometry (in Angstrom), charge = 0, multiplicity = 1:

       Center              X                  Y                   Z               Mass
    ------------   -----------------  -----------------  -----------------  -----------------
         S           -0.249509228018    -0.293400093704     0.122507190232    31.972071174400
         O           -0.278204228018    -1.483483093704    -0.748227809768    15.994914619570
         O           -0.183506228018    -0.443076093704     1.588539190232    15.994914619570
         C            1.153492571982     0.798922906296    -0.385846109768    12.000000000000
         C            2.457404771982     0.301283906296     0.197350190232    12.000000000000
         C           -1.704174228018     0.685957906296    -0.266110809768    12.000000000000
         C           -2.969516228018    -0.110083093704     0.039900190232    12.000000000000
         C            2.901453771982    -1.038259093704    -0.388673809768    12.000000000000
         C            3.505796771982     1.383844906296    -0.060853809768    12.000000000000
         C           -4.222683228018     0.703325906296    -0.271906809768    12.000000000000
         H            1.127960771982     0.790222906296    -1.467744809768     1.007825032230
         H            0.871615771982     1.770374906296     0.002512190232     1.007825032230
         H            2.327980771982     0.188827906296     1.280262190232     1.007825032230
         H           -1.643739228018     0.947678906296    -1.328148809768     1.007825032230
         H           -1.650508228018     1.599306906296     0.335315190232     1.007825032230
         H           -2.956326228018    -1.032672093704    -0.547723809768     1.007825032230
         H           -2.956653228018    -0.398790093704     1.095453190232     1.007825032230
         H            3.007765771982    -0.961850093704    -1.476497809768     1.007825032230
         H            2.188656771982    -1.837242093704    -0.177879809768     1.007825032230
         H            3.873095771982    -1.322464093704     0.026758190232     1.007825032230
         H            3.645030771982     1.539852906296    -1.136155809768     1.007825032230
         H            3.218551771982     2.339170906296     0.389847190232     1.007825032230
         H            4.470065771982     1.086860906296     0.362323190232     1.007825032230
         H           -4.257542228018     1.619404906296     0.325278190232     1.007825032230
         H           -4.256974228018     0.985366906296    -1.328525809768     1.007825032230
         H           -5.122685228018     0.123588906296    -0.049985809768     1.007825032230

  Basis Set: AUG-CC-PVTZ
    Blend: AUG-CC-PVTZ
  Basis Set: (AUG-CC-PVTZ AUX)
    Blend: AUG-CC-PVTZ-JKFIT
	 Reference Energy          =    -821.7816462000076854 [Eh]
	 Singles Energy            =      -0.0000000000000000 [Eh]
	 Same-Spin Energy          =      -0.5011570295840155 [Eh]
	 Opposite-Spin Energy      =      -1.6492458233529375 [Eh]
	 Correlation Energy        =      -2.1504028529369528 [Eh]
	 Total Energy              =    -823.9320490529446488 [Eh]

	 ================> DF-SCS-MP2 Energies <==================
	-----------------------------------------------------------
	 SCS Same-Spin Scale       =       0.3333333333333333 [-]
	 SCS Opposite-Spin Scale   =       1.2000000000000000 [-]
	 SCS Same-Spin Energy      =      -0.1670523431946718 [Eh]
	 SCS Opposite-Spin Energy  =      -1.9790949880235249 [Eh]
	 SCS Correlation Energy    =      -2.1461473312181969 [Eh]
	 SCS Total Energy          =    -823.9277935312259160 [Eh]
	-----------------------------------------------------------

  Dipole Moment: [D]
     X:    -0.2426      Y:     3.7727      Z:    -1.5684     Total:     4.0929

*** Psi4 exiting successfully. Buy a developer a beer!
