                               Psi4 1.4a3.dev225

  ==> Input File <==

--------------------------------------------------------------------------
#psi4
#
memory 32 gb

molecule  {
0 1
  S       -0.2573260    -0.3323280     0.1419150
  O       -0.2860210    -1.5224110    -0.7288200
  O       -0.1913230    -0.4820040     1.6079470
  C        1.1077430     0.7304620    -0.3526940
  C        2.4495880     0.2623560     0.2167580
  C       -1.7119910     0.6470300    -0.2467030
  C       -2.9773330    -0.1490110     0.0593080
  C        2.8936370    -1.0771870    -0.3692660
  C        3.4979800     1.3449170    -0.0414460
  C       -4.2305000     0.6643980    -0.2524990
  H        1.1201440     0.7512950    -1.4483370
  H        0.8637990     1.7314470     0.0219200
  H        2.3201640     0.1499000     1.2996700
  H       -1.6515560     0.9087510    -1.3087410
  H       -1.6583250     1.5603790     0.3547230
  H       -2.9641430    -1.0716000    -0.5283160
  H       -2.9644700    -0.4377180     1.1148610
  H        3.0018896    -0.9993833    -1.4769467
  H        2.1808400    -1.8761700    -0.1584720
  H        3.8652790    -1.3613920     0.0461660
  H        3.6372140     1.5009250    -1.1167480
  H        3.2107350     2.3002430     0.4092550
  H        4.4622490     1.0479330     0.3817310
  H       -4.2653590     1.5804770     0.3446860
  H       -4.2647910     0.9464390    -1.3091180
  H       -5.1305020     0.0846610    -0.0305780
units angstrom
no_reorient  #important for SAPT in psi4, default
symmetry c1  #important for SAPT in psi4, default
}

set PROPERTIES_ORIGIN ["COM"]
properties('MP2/aug-cc-pvtz', properties = ['dipole'])
--------------------------------------------------------------------------

    Molecular point group: c1
  Charge       = 0
  Multiplicity = 1
  Basis Set: AUG-CC-PVTZ
    Blend: AUG-CC-PVTZ
  Basis Set: (AUG-CC-PVTZ AUX)
    Blend: AUG-CC-PVTZ-JKFIT

    Orbital Energies [Eh]
    ---------------------

    Doubly Occupied:

       1A    -92.170179     2A    -20.535563     3A    -20.534771
       4A    -11.274803     5A    -11.273739     6A    -11.246857
       7A    -11.241441     8A    -11.229660     9A    -11.226859
      10A    -11.215415    11A     -9.140659    12A     -6.825047
      13A     -6.824638    14A     -6.824446    15A     -1.425872
      16A     -1.316637    17A     -1.115690    18A     -1.096070
      19A     -1.013322    20A     -0.960471    21A     -0.936668
      22A     -0.850558    23A     -0.804791    24A     -0.778283
      25A     -0.687799    26A     -0.675808    27A     -0.663568
      28A     -0.642717    29A     -0.619216    30A     -0.605235
      31A     -0.591480    32A     -0.580508    33A     -0.568204
      34A     -0.553296    35A     -0.538036    36A     -0.528699
      37A     -0.510300    38A     -0.503067    39A     -0.495734
      40A     -0.487111    41A     -0.482276    42A     -0.475094
      43A     -0.470324    44A     -0.456391    45A     -0.418291

  @DF-RHF Final Energy:  -821.78302879399087

   => Energetics <=

    Nuclear Repulsion Energy =            707.2257505117211167
    One-Electron Energy =               -2531.1863712711992775
    Two-Electron Energy =                1002.1775919654872951
    Total Energy =                       -821.7830287939908658
  Basis Set: (AUG-CC-PVTZ AUX)
    Blend: AUG-CC-PVTZ-RI
    Molecular point group: c1

    Geometry (in Angstrom), charge = 0, multiplicity = 1:

       Center              X                  Y                   Z               Mass
    ------------   -----------------  -----------------  -----------------  -----------------
         S           -0.246747049808    -0.291248855828     0.121624003681    31.972071174400
         O           -0.275442049808    -1.481331855828    -0.749110996319    15.994914619570
         O           -0.180744049808    -0.440924855828     1.587656003681    15.994914619570
         C            1.118321950192     0.771541144172    -0.372984996319    12.000000000000
         C            2.460166950192     0.303435144172     0.196467003681    12.000000000000
         C           -1.701412049808     0.688109144172    -0.266993996319    12.000000000000
         C           -2.966754049808    -0.107931855828     0.039017003681    12.000000000000
         C            2.904215950192    -1.036107855828    -0.389556996319    12.000000000000
         C            3.508558950192     1.385996144172    -0.061736996319    12.000000000000
         C           -4.219921049808     0.705477144172    -0.272789996319    12.000000000000
         H            1.130722950192     0.792374144172    -1.468627996319     1.007825032230
         H            0.874377950192     1.772526144172     0.001629003681     1.007825032230
         H            2.330742950192     0.190979144172     1.279379003681     1.007825032230
         H           -1.640977049808     0.949830144172    -1.329031996319     1.007825032230
         H           -1.647746049808     1.601458144172     0.334432003681     1.007825032230
         H           -2.953564049808    -1.030520855828    -0.548606996319     1.007825032230
         H           -2.953891049808    -0.396638855828     1.094570003681     1.007825032230
         H            3.012468550192    -0.958304155828    -1.497237696319     1.007825032230
         H            2.191418950192    -1.835090855828    -0.178762996319     1.007825032230
         H            3.875857950192    -1.320312855828     0.025875003681     1.007825032230
         H            3.647792950192     1.542004144172    -1.137038996319     1.007825032230
         H            3.221313950192     2.341322144172     0.388964003681     1.007825032230
         H            4.472827950192     1.089012144172     0.361440003681     1.007825032230
         H           -4.254780049808     1.621556144172     0.324395003681     1.007825032230
         H           -4.254212049808     0.987518144172    -1.329408996319     1.007825032230
         H           -5.119923049808     0.125740144172    -0.050868996319     1.007825032230

  Basis Set: AUG-CC-PVTZ
    Blend: AUG-CC-PVTZ
  Basis Set: (AUG-CC-PVTZ AUX)
    Blend: AUG-CC-PVTZ-JKFIT
	 Reference Energy          =    -821.7830287939908658 [Eh]
	 Singles Energy            =      -0.0000000000000000 [Eh]
	 Same-Spin Energy          =      -0.5010425815014685 [Eh]
	 Opposite-Spin Energy      =      -1.6490079438408707 [Eh]
	 Correlation Energy        =      -2.1500505253423392 [Eh]
	 Total Energy              =    -823.9330793193331601 [Eh]

	 ================> DF-SCS-MP2 Energies <==================
	-----------------------------------------------------------
	 SCS Same-Spin Scale       =       0.3333333333333333 [-]
	 SCS Opposite-Spin Scale   =       1.2000000000000000 [-]
	 SCS Same-Spin Energy      =      -0.1670141938338228 [Eh]
	 SCS Opposite-Spin Energy  =      -1.9788095326090447 [Eh]
	 SCS Correlation Energy    =      -2.1458237264428677 [Eh]
	 SCS Total Energy          =    -823.9288525204336793 [Eh]
	-----------------------------------------------------------

  Dipole Moment: [D]
     X:    -0.2060      Y:     3.8002      Z:    -1.5629     Total:     4.1142

*** Psi4 exiting successfully. Buy a developer a beer!
