                               Psi4 1.4a3.dev225

  ==> Input File <==

--------------------------------------------------------------------------
#psi4
#
memory 32 gb

molecule  {
0 1
  S       -0.2573260    -0.3323280     0.1419150
  O       -0.2860210    -1.5224110    -0.7288200
  O       -0.1913230    -0.4820040     1.6079470
  C        1.1077430     0.7304620    -0.3526940
  C        2.4495880     0.2623560     0.2167580
  C       -1.7119910     0.6470300    -0.2467030
  C       -2.9773330    -0.1490110     0.0593080
  C        2.9826149    -1.0288130    -0.4027127
  C        3.4979800     1.3449170    -0.0414460
  C       -4.2305000     0.6643980    -0.2524990
  H        1.1201440     0.7512950    -1.4483370
  H        0.8637990     1.7314470     0.0219200
  H        2.3201640     0.1499000     1.2996700
  H       -1.6515560     0.9087510    -1.3087410
  H       -1.6583250     1.5603790     0.3547230
  H       -2.9641430    -1.0716000    -0.5283160
  H       -2.9644700    -0.4377180     1.1148610
  H        2.9999490    -1.0007780    -1.4570900
  H        2.1808400    -1.8761700    -0.1584720
  H        3.8652790    -1.3613920     0.0461660
  H        3.6372140     1.5009250    -1.1167480
  H        3.2107350     2.3002430     0.4092550
  H        4.4622490     1.0479330     0.3817310
  H       -4.2653590     1.5804770     0.3446860
  H       -4.2647910     0.9464390    -1.3091180
  H       -5.1305020     0.0846610    -0.0305780
units angstrom
no_reorient  #important for SAPT in psi4, default
symmetry c1  #important for SAPT in psi4, default
}

set PROPERTIES_ORIGIN ["COM"]
properties('MP2/aug-cc-pvtz', properties = ['dipole'])
--------------------------------------------------------------------------

    Molecular point group: c1
  Charge       = 0
  Multiplicity = 1
  Basis Set: AUG-CC-PVTZ
    Blend: AUG-CC-PVTZ
  Basis Set: (AUG-CC-PVTZ AUX)
    Blend: AUG-CC-PVTZ-JKFIT

    Orbital Energies [Eh]
    ---------------------

    Doubly Occupied:

       1A    -92.170216     2A    -20.535476     3A    -20.534495
       4A    -11.275114     5A    -11.274861     6A    -11.246990
       7A    -11.241456     8A    -11.229672     9A    -11.225004
      10A    -11.213631    11A     -9.140669    12A     -6.825063
      13A     -6.824650    14A     -6.824454    15A     -1.425655
      16A     -1.316411    17A     -1.116217    18A     -1.096212
      19A     -1.014697    20A     -0.961716    21A     -0.935161
      22A     -0.851265    23A     -0.805526    24A     -0.779973
      25A     -0.687446    26A     -0.676374    27A     -0.665344
      28A     -0.642851    29A     -0.622123    30A     -0.603860
      31A     -0.591388    32A     -0.577811    33A     -0.568216
      34A     -0.554629    35A     -0.549750    36A     -0.528104
      37A     -0.511634    38A     -0.500300    39A     -0.496611
      40A     -0.489772    41A     -0.481148    42A     -0.474607
      43A     -0.458742    44A     -0.456179    45A     -0.415574

  @DF-RHF Final Energy:  -821.77214694938448

   => Energetics <=

    Nuclear Repulsion Energy =            706.5715267746711561
    One-Electron Energy =               -2529.8532570261645560
    Two-Electron Energy =                1001.5095833021089220
    Total Energy =                       -821.7721469493844779
  Basis Set: (AUG-CC-PVTZ AUX)
    Blend: AUG-CC-PVTZ-RI
    Molecular point group: c1

    Geometry (in Angstrom), charge = 0, multiplicity = 1:

       Center              X                  Y                   Z               Mass
    ------------   -----------------  -----------------  -----------------  -----------------
         S           -0.253242252714    -0.294777971664     0.123948064003    31.972071174400
         O           -0.281937252714    -1.484860971664    -0.746786935997    15.994914619570
         O           -0.187239252714    -0.444453971664     1.589980064003    15.994914619570
         C            1.111826747286     0.768012028336    -0.370660935997    12.000000000000
         C            2.453671747286     0.299906028336     0.198791064003    12.000000000000
         C           -1.707907252714     0.684580028336    -0.264669935997    12.000000000000
         C           -2.973249252714    -0.111460971664     0.041341064003    12.000000000000
         C            2.986698647286    -0.991262971664    -0.420679635997    12.000000000000
         C            3.502063747286     1.382467028336    -0.059412935997    12.000000000000
         C           -4.226416252714     0.701948028336    -0.270465935997    12.000000000000
         H            1.124227747286     0.788845028336    -1.466303935997     1.007825032230
         H            0.867882747286     1.768997028336     0.003953064003     1.007825032230
         H            2.324247747286     0.187450028336     1.281703064003     1.007825032230
         H           -1.647472252714     0.946301028336    -1.326707935997     1.007825032230
         H           -1.654241252714     1.597929028336     0.336756064003     1.007825032230
         H           -2.960059252714    -1.034049971664    -0.546282935997     1.007825032230
         H           -2.960386252714    -0.400167971664     1.096894064003     1.007825032230
         H            3.004032747286    -0.963227971664    -1.475056935997     1.007825032230
         H            2.184923747286    -1.838619971664    -0.176438935997     1.007825032230
         H            3.869362747286    -1.323841971664     0.028199064003     1.007825032230
         H            3.641297747286     1.538475028336    -1.134714935997     1.007825032230
         H            3.214818747286     2.337793028336     0.391288064003     1.007825032230
         H            4.466332747286     1.085483028336     0.363764064003     1.007825032230
         H           -4.261275252714     1.618027028336     0.326719064003     1.007825032230
         H           -4.260707252714     0.983989028336    -1.327084935997     1.007825032230
         H           -5.126418252714     0.122211028336    -0.048544935997     1.007825032230

  Basis Set: AUG-CC-PVTZ
    Blend: AUG-CC-PVTZ
  Basis Set: (AUG-CC-PVTZ AUX)
    Blend: AUG-CC-PVTZ-JKFIT
	 Reference Energy          =    -821.7721469493844779 [Eh]
	 Singles Energy            =      -0.0000000000000000 [Eh]
	 Same-Spin Energy          =      -0.5012998792386758 [Eh]
	 Opposite-Spin Energy      =      -1.6495172853275433 [Eh]
	 Correlation Energy        =      -2.1508171645662193 [Eh]
	 Total Energy              =    -823.9229641139506839 [Eh]

	 ================> DF-SCS-MP2 Energies <==================
	-----------------------------------------------------------
	 SCS Same-Spin Scale       =       0.3333333333333333 [-]
	 SCS Opposite-Spin Scale   =       1.2000000000000000 [-]
	 SCS Same-Spin Energy      =      -0.1670999597462253 [Eh]
	 SCS Opposite-Spin Energy  =      -1.9794207423930519 [Eh]
	 SCS Correlation Energy    =      -2.1465207021392771 [Eh]
	 SCS Total Energy          =    -823.9186676515237195 [Eh]
	-----------------------------------------------------------

  Dipole Moment: [D]
     X:    -0.2137      Y:     3.7897      Z:    -1.5926     Total:     4.1163

*** Psi4 exiting successfully. Buy a developer a beer!
