                               Psi4 1.4a3.dev225

  ==> Input File <==

--------------------------------------------------------------------------
#psi4
#
memory 32 gb

molecule  {
0 1
  S       -0.2573260    -0.3323280     0.1419150
  O       -0.2860210    -1.5224110    -0.7288200
  O       -0.1913230    -0.4820040     1.6079470
  C        1.1077430     0.7304620    -0.3526940
  C        2.4495880     0.2623560     0.2167580
  C       -1.7119910     0.6470300    -0.2467030
  C       -2.9773330    -0.1490110     0.0593080
  C        2.8936370    -1.0771870    -0.3692660
  C        3.4979800     1.3449170    -0.0414460
  C       -4.2305000     0.6643980    -0.2524990
  H        1.1199177     0.7509148    -1.4283419
  H        0.8637990     1.7314470     0.0219200
  H        2.3201640     0.1499000     1.2996700
  H       -1.6515560     0.9087510    -1.3087410
  H       -1.6583250     1.5603790     0.3547230
  H       -2.9641430    -1.0716000    -0.5283160
  H       -2.9644700    -0.4377180     1.1148610
  H        2.9999490    -1.0007780    -1.4570900
  H        2.1808400    -1.8761700    -0.1584720
  H        3.8652790    -1.3613920     0.0461660
  H        3.6372140     1.5009250    -1.1167480
  H        3.2107350     2.3002430     0.4092550
  H        4.4622490     1.0479330     0.3817310
  H       -4.2653590     1.5804770     0.3446860
  H       -4.2647910     0.9464390    -1.3091180
  H       -5.1305020     0.0846610    -0.0305780
units angstrom
no_reorient  #important for SAPT in psi4, default
symmetry c1  #important for SAPT in psi4, default
}

set PROPERTIES_ORIGIN ["COM"]
properties('MP2/aug-cc-pvtz', properties = ['dipole'])
--------------------------------------------------------------------------

    Molecular point group: c1
  Charge       = 0
  Multiplicity = 1
  Basis Set: AUG-CC-PVTZ
    Blend: AUG-CC-PVTZ
  Basis Set: (AUG-CC-PVTZ AUX)
    Blend: AUG-CC-PVTZ-JKFIT

    Orbital Energies [Eh]
    ---------------------

    Doubly Occupied:

       1A    -92.170056     2A    -20.535384     3A    -20.534802
       4A    -11.274798     5A    -11.271499     6A    -11.246451
       7A    -11.241430     8A    -11.229653     9A    -11.226823
      10A    -11.212903    11A     -9.140547    12A     -6.824934
      13A     -6.824526    14A     -6.824335    15A     -1.425808
      16A     -1.316571    17A     -1.116285    18A     -1.096101
      19A     -1.013831    20A     -0.961129    21A     -0.937751
      22A     -0.850777    23A     -0.804916    24A     -0.780018
      25A     -0.688222    26A     -0.676109    27A     -0.663795
      28A     -0.642877    29A     -0.619365    30A     -0.605465
      31A     -0.591549    32A     -0.582696    33A     -0.568207
      34A     -0.553996    35A     -0.539821    36A     -0.528621
      37A     -0.510238    38A     -0.503032    39A     -0.495735
      40A     -0.487176    41A     -0.482649    42A     -0.475306
      43A     -0.470363    44A     -0.456443    45A     -0.418210

  @DF-RHF Final Energy:  -821.78361828702577

   => Energetics <=

    Nuclear Repulsion Energy =            707.4279785207835403
    One-Electron Energy =               -2531.5807942198862293
    Two-Electron Energy =                1002.3691974120768009
    Total Energy =                       -821.7836182870257744
  Basis Set: (AUG-CC-PVTZ AUX)
    Blend: AUG-CC-PVTZ-RI
    Molecular point group: c1

    Geometry (in Angstrom), charge = 0, multiplicity = 1:

       Center              X                  Y                   Z               Mass
    ------------   -----------------  -----------------  -----------------  -----------------
         S           -0.246733740681    -0.291237954370     0.121379233425    31.972071174400
         O           -0.275428740681    -1.481320954370    -0.749355766575    15.994914619570
         O           -0.180730740681    -0.440913954370     1.587411233425    15.994914619570
         C            1.118335259319     0.771552045630    -0.373229766575    12.000000000000
         C            2.460180259319     0.303446045630     0.196222233425    12.000000000000
         C           -1.701398740681     0.688120045630    -0.267238766575    12.000000000000
         C           -2.966740740681    -0.107920954370     0.038772233425    12.000000000000
         C            2.904229259319    -1.036096954370    -0.389801766575    12.000000000000
         C            3.508572259319     1.386007045630    -0.061981766575    12.000000000000
         C           -4.219907740681     0.705488045630    -0.273034766575    12.000000000000
         H            1.130509959319     0.792004845630    -1.448877666575     1.007825032230
         H            0.874391259319     1.772537045630     0.001384233425     1.007825032230
         H            2.330756259319     0.190990045630     1.279134233425     1.007825032230
         H           -1.640963740681     0.949841045630    -1.329276766575     1.007825032230
         H           -1.647732740681     1.601469045630     0.334187233425     1.007825032230
         H           -2.953550740681    -1.030509954370    -0.548851766575     1.007825032230
         H           -2.953877740681    -0.396627954370     1.094325233425     1.007825032230
         H            3.010541259319    -0.959687954370    -1.477625766575     1.007825032230
         H            2.191432259319    -1.835079954370    -0.179007766575     1.007825032230
         H            3.875871259319    -1.320301954370     0.025630233425     1.007825032230
         H            3.647806259319     1.542015045630    -1.137283766575     1.007825032230
         H            3.221327259319     2.341333045630     0.388719233425     1.007825032230
         H            4.472841259319     1.089023045630     0.361195233425     1.007825032230
         H           -4.254766740681     1.621567045630     0.324150233425     1.007825032230
         H           -4.254198740681     0.987529045630    -1.329653766575     1.007825032230
         H           -5.119909740681     0.125751045630    -0.051113766575     1.007825032230

  Basis Set: AUG-CC-PVTZ
    Blend: AUG-CC-PVTZ
  Basis Set: (AUG-CC-PVTZ AUX)
    Blend: AUG-CC-PVTZ-JKFIT
	 Reference Energy          =    -821.7836182870257744 [Eh]
	 Singles Energy            =      -0.0000000000000000 [Eh]
	 Same-Spin Energy          =      -0.5010040038181548 [Eh]
	 Opposite-Spin Energy      =      -1.6487315373468654 [Eh]
	 Correlation Energy        =      -2.1497355411650201 [Eh]
	 Total Energy              =    -823.9333538281907749 [Eh]

	 ================> DF-SCS-MP2 Energies <==================
	-----------------------------------------------------------
	 SCS Same-Spin Scale       =       0.3333333333333333 [-]
	 SCS Opposite-Spin Scale   =       1.2000000000000000 [-]
	 SCS Same-Spin Energy      =      -0.1670013346060516 [Eh]
	 SCS Opposite-Spin Energy  =      -1.9784778448162383 [Eh]
	 SCS Correlation Energy    =      -2.1454791794222898 [Eh]
	 SCS Total Energy          =    -823.9290974664480700 [Eh]
	-----------------------------------------------------------

  Dipole Moment: [D]
     X:    -0.2046      Y:     3.8014      Z:    -1.5790     Total:     4.1214

*** Psi4 exiting successfully. Buy a developer a beer!
