                               Psi4 1.4a3.dev225

  ==> Input File <==

--------------------------------------------------------------------------
#psi4
#
memory 32 gb

molecule  {
0 1
  S       -0.2573260    -0.3323280     0.1419150
  O       -0.2860210    -1.5224110    -0.7288200
  O       -0.1913230    -0.4820040     1.6079470
  C        1.1077430     0.7304620    -0.3526940
  C        2.4495880     0.2623560     0.2167580
  C       -1.7119910     0.6470300    -0.2467030
  C       -2.9773330    -0.1490110     0.0593080
  C        2.8936370    -1.0771870    -0.3692660
  C        3.4979800     1.3449170    -0.0414460
  C       -4.2305000     0.6643980    -0.2524990
  H        1.1201440     0.7512950    -1.4483370
  H        0.8637990     1.7314470     0.0219200
  H        2.3201640     0.1499000     1.2996700
  H       -1.6515560     0.9087510    -1.3087410
  H       -1.6558743     1.6020884     0.3821880
  H       -2.9641430    -1.0716000    -0.5283160
  H       -2.9644700    -0.4377180     1.1148610
  H        2.9999490    -1.0007780    -1.4570900
  H        2.1808400    -1.8761700    -0.1584720
  H        3.8652790    -1.3613920     0.0461660
  H        3.6372140     1.5009250    -1.1167480
  H        3.2107350     2.3002430     0.4092550
  H        4.4622490     1.0479330     0.3817310
  H       -4.2653590     1.5804770     0.3446860
  H       -4.2647910     0.9464390    -1.3091180
  H       -5.1305020     0.0846610    -0.0305780
units angstrom
no_reorient  #important for SAPT in psi4, default
symmetry c1  #important for SAPT in psi4, default
}

set PROPERTIES_ORIGIN ["COM"]
properties('MP2/aug-cc-pvtz', properties = ['dipole'])
--------------------------------------------------------------------------

    Molecular point group: c1
  Charge       = 0
  Multiplicity = 1
  Basis Set: AUG-CC-PVTZ
    Blend: AUG-CC-PVTZ
  Basis Set: (AUG-CC-PVTZ AUX)
    Blend: AUG-CC-PVTZ-JKFIT

    Orbital Energies [Eh]
    ---------------------

    Doubly Occupied:

       1A    -92.170424     2A    -20.535444     3A    -20.535141
       4A    -11.280245     5A    -11.273616     6A    -11.246557
       7A    -11.241824     8A    -11.229658     9A    -11.226793
      10A    -11.212904    11A     -9.140870    12A     -6.825264
      13A     -6.824849    14A     -6.824657    15A     -1.425956
      16A     -1.316730    17A     -1.115499    18A     -1.094657
      19A     -1.013159    20A     -0.959202    21A     -0.937719
      22A     -0.850737    23A     -0.802502    24A     -0.778282
      25A     -0.687339    26A     -0.674141    27A     -0.661695
      28A     -0.642624    29A     -0.619325    30A     -0.605110
      31A     -0.590514    32A     -0.580869    33A     -0.564809
      34A     -0.553812    35A     -0.539693    36A     -0.528761
      37A     -0.510375    38A     -0.502279    39A     -0.495339
      40A     -0.487097    41A     -0.482239    42A     -0.475334
      43A     -0.470522    44A     -0.456216    45A     -0.418367

  @DF-RHF Final Energy:  -821.78126452864149

   => Energetics <=

    Nuclear Repulsion Energy =            707.0536284269855969
    One-Electron Energy =               -2530.8514838855044218
    Two-Electron Energy =                1002.0165909298773386
    Total Energy =                       -821.7812645286414863
  Basis Set: (AUG-CC-PVTZ AUX)
    Blend: AUG-CC-PVTZ-RI
    Molecular point group: c1

    Geometry (in Angstrom), charge = 0, multiplicity = 1:

       Center              X                  Y                   Z               Mass
    ------------   -----------------  -----------------  -----------------  -----------------
         S           -0.246750182849    -0.291496469221     0.121333353206    31.972071174400
         O           -0.275445182849    -1.481579469221    -0.749401646794    15.994914619570
         O           -0.180747182849    -0.441172469221     1.587365353206    15.994914619570
         C            1.118318817151     0.771293530779    -0.373275646794    12.000000000000
         C            2.460163817151     0.303187530779     0.196176353206    12.000000000000
         C           -1.701415182849     0.687861530779    -0.267284646794    12.000000000000
         C           -2.966757182849    -0.108179469221     0.038726353206    12.000000000000
         C            2.904212817151    -1.036355469221    -0.389847646794    12.000000000000
         C            3.508555817151     1.385748530779    -0.062027646794    12.000000000000
         C           -4.219924182849     0.705229530779    -0.273080646794    12.000000000000
         H            1.130719817151     0.792126530779    -1.468918646794     1.007825032230
         H            0.874374817151     1.772278530779     0.001338353206     1.007825032230
         H            2.330739817151     0.190731530779     1.279088353206     1.007825032230
         H           -1.640980182849     0.949582530779    -1.329322646794     1.007825032230
         H           -1.645298482849     1.642919930779     0.361606353206     1.007825032230
         H           -2.953567182849    -1.030768469221    -0.548897646794     1.007825032230
         H           -2.953894182849    -0.396886469221     1.094279353206     1.007825032230
         H            3.010524817151    -0.959946469221    -1.477671646794     1.007825032230
         H            2.191415817151    -1.835338469221    -0.179053646794     1.007825032230
         H            3.875854817151    -1.320560469221     0.025584353206     1.007825032230
         H            3.647789817151     1.541756530779    -1.137329646794     1.007825032230
         H            3.221310817151     2.341074530779     0.388673353206     1.007825032230
         H            4.472824817151     1.088764530779     0.361149353206     1.007825032230
         H           -4.254783182849     1.621308530779     0.324104353206     1.007825032230
         H           -4.254215182849     0.987270530779    -1.329699646794     1.007825032230
         H           -5.119926182849     0.125492530779    -0.051159646794     1.007825032230

  Basis Set: AUG-CC-PVTZ
    Blend: AUG-CC-PVTZ
  Basis Set: (AUG-CC-PVTZ AUX)
    Blend: AUG-CC-PVTZ-JKFIT
	 Reference Energy          =    -821.7812645286414863 [Eh]
	 Singles Energy            =      -0.0000000000000000 [Eh]
	 Same-Spin Energy          =      -0.5011347958728570 [Eh]
	 Opposite-Spin Energy      =      -1.6493010114155957 [Eh]
	 Correlation Energy        =      -2.1504358072884528 [Eh]
	 Total Energy              =    -823.9317003359299179 [Eh]

	 ================> DF-SCS-MP2 Energies <==================
	-----------------------------------------------------------
	 SCS Same-Spin Scale       =       0.3333333333333333 [-]
	 SCS Opposite-Spin Scale   =       1.2000000000000000 [-]
	 SCS Same-Spin Energy      =      -0.1670449319576190 [Eh]
	 SCS Opposite-Spin Energy  =      -1.9791612136987147 [Eh]
	 SCS Correlation Energy    =      -2.1462061456563335 [Eh]
	 SCS Total Energy          =    -823.9274706742978651 [Eh]
	-----------------------------------------------------------

  Dipole Moment: [D]
     X:    -0.2081      Y:     3.7831      Z:    -1.5770     Total:     4.1039

*** Psi4 exiting successfully. Buy a developer a beer!
