                               Psi4 1.4a3.dev225

  ==> Input File <==

--------------------------------------------------------------------------
#psi4
#
memory 32 gb

molecule  {
0 1
  S       -0.2573260    -0.3323280     0.1419150
  O       -0.2860210    -1.5224110    -0.7288200
  O       -0.1913230    -0.4820040     1.6079470
  C        1.1077430     0.7304620    -0.3526940
  C        2.3203858     0.1858635     0.2718780
  C       -1.7119910     0.6470300    -0.2467030
  C       -2.9773330    -0.1490110     0.0593080
  C        2.8936370    -1.0771870    -0.3692660
  C        3.4979800     1.3449170    -0.0414460
  C       -4.2305000     0.6643980    -0.2524990
  H        1.1201440     0.7512950    -1.4483370
  H        0.8637990     1.7314470     0.0219200
  H        2.3201640     0.1499000     1.2996700
  H       -1.6515560     0.9087510    -1.3087410
  H       -1.6583250     1.5603790     0.3547230
  H       -2.9641430    -1.0716000    -0.5283160
  H       -2.9644700    -0.4377180     1.1148610
  H        2.9999490    -1.0007780    -1.4570900
  H        2.1808400    -1.8761700    -0.1584720
  H        3.8652790    -1.3613920     0.0461660
  H        3.6372140     1.5009250    -1.1167480
  H        3.2107350     2.3002430     0.4092550
  H        4.4622490     1.0479330     0.3817310
  H       -4.2653590     1.5804770     0.3446860
  H       -4.2647910     0.9464390    -1.3091180
  H       -5.1305020     0.0846610    -0.0305780
units angstrom
no_reorient  #important for SAPT in psi4, default
symmetry c1  #important for SAPT in psi4, default
}

set PROPERTIES_ORIGIN ["COM"]
properties('MP2/aug-cc-pvtz', properties = ['dipole'])
--------------------------------------------------------------------------

    Molecular point group: c1
  Charge       = 0
  Multiplicity = 1
  Basis Set: AUG-CC-PVTZ
    Blend: AUG-CC-PVTZ
  Basis Set: (AUG-CC-PVTZ AUX)
    Blend: AUG-CC-PVTZ-JKFIT

    Orbital Energies [Eh]
    ---------------------

    Doubly Occupied:

       1A    -92.168174     2A    -20.536643     3A    -20.535317
       4A    -11.276116     5A    -11.273663     6A    -11.245965
       7A    -11.240800     8A    -11.229529     9A    -11.229208
      10A    -11.214249    11A     -9.139197    12A     -6.823639
      13A     -6.823007    14A     -6.822932    15A     -1.426842
      16A     -1.317398    17A     -1.119357    18A     -1.095217
      19A     -1.008739    20A     -0.959990    21A     -0.927802
      22A     -0.853081    23A     -0.809234    24A     -0.788281
      25A     -0.688340    26A     -0.677822    27A     -0.667393
      28A     -0.643026    29A     -0.622498    30A     -0.599664
      31A     -0.590758    32A     -0.578595    33A     -0.567931
      34A     -0.548346    35A     -0.541110    36A     -0.529902
      37A     -0.516862    38A     -0.506525    39A     -0.498350
      40A     -0.497729    41A     -0.485059    42A     -0.477605
      43A     -0.457687    44A     -0.450753    45A     -0.402839

  @DF-RHF Final Energy:  -821.76141607289458

   => Energetics <=

    Nuclear Repulsion Energy =            708.7276697057559431
    One-Electron Energy =               -2534.1518284190101440
    Two-Electron Energy =                1003.6627426403596246
    Total Energy =                       -821.7614160728945762
  Basis Set: (AUG-CC-PVTZ AUX)
    Blend: AUG-CC-PVTZ-RI
    Molecular point group: c1

    Geometry (in Angstrom), charge = 0, multiplicity = 1:

       Center              X                  Y                   Z               Mass
    ------------   -----------------  -----------------  -----------------  -----------------
         S           -0.237286329395    -0.285646248381     0.117471013742    31.972071174400
         O           -0.265981329395    -1.475729248381    -0.753263986258    15.994914619570
         O           -0.171283329395    -0.435322248381     1.583503013742    15.994914619570
         C            1.127782670605     0.777143751619    -0.377137986258    12.000000000000
         C            2.340425470605     0.232545251619     0.247434013742    12.000000000000
         C           -1.691951329395     0.693711751619    -0.271146986258    12.000000000000
         C           -2.957293329395    -0.102329248381     0.034864013742    12.000000000000
         C            2.913676670605    -1.030505248381    -0.393709986258    12.000000000000
         C            3.518019670605     1.391598751619    -0.065889986258    12.000000000000
         C           -4.210460329395     0.711079751619    -0.276942986258    12.000000000000
         H            1.140183670605     0.797976751619    -1.472780986258     1.007825032230
         H            0.883838670605     1.778128751619    -0.002523986258     1.007825032230
         H            2.340203670605     0.196581751619     1.275226013742     1.007825032230
         H           -1.631516329395     0.955432751619    -1.333184986258     1.007825032230
         H           -1.638285329395     1.607060751619     0.330279013742     1.007825032230
         H           -2.944103329395    -1.024918248381    -0.552759986258     1.007825032230
         H           -2.944430329395    -0.391036248381     1.090417013742     1.007825032230
         H            3.019988670605    -0.954096248381    -1.481533986258     1.007825032230
         H            2.200879670605    -1.829488248381    -0.182915986258     1.007825032230
         H            3.885318670605    -1.314710248381     0.021722013742     1.007825032230
         H            3.657253670605     1.547606751619    -1.141191986258     1.007825032230
         H            3.230774670605     2.346924751619     0.384811013742     1.007825032230
         H            4.482288670605     1.094614751619     0.357287013742     1.007825032230
         H           -4.245319329395     1.627158751619     0.320242013742     1.007825032230
         H           -4.244751329395     0.993120751619    -1.333561986258     1.007825032230
         H           -5.110462329395     0.131342751619    -0.055021986258     1.007825032230

  Basis Set: AUG-CC-PVTZ
    Blend: AUG-CC-PVTZ
  Basis Set: (AUG-CC-PVTZ AUX)
    Blend: AUG-CC-PVTZ-JKFIT
	 Reference Energy          =    -821.7614160728945762 [Eh]
	 Singles Energy            =      -0.0000000000000000 [Eh]
	 Same-Spin Energy          =      -0.5018419262645628 [Eh]
	 Opposite-Spin Energy      =      -1.6507115217360535 [Eh]
	 Correlation Energy        =      -2.1525534480006163 [Eh]
	 Total Energy              =    -823.9139695208951935 [Eh]

	 ================> DF-SCS-MP2 Energies <==================
	-----------------------------------------------------------
	 SCS Same-Spin Scale       =       0.3333333333333333 [-]
	 SCS Opposite-Spin Scale   =       1.2000000000000000 [-]
	 SCS Same-Spin Energy      =      -0.1672806420881876 [Eh]
	 SCS Opposite-Spin Energy  =      -1.9808538260832642 [Eh]
	 SCS Correlation Energy    =      -2.1481344681714516 [Eh]
	 SCS Total Energy          =    -823.9095505410659825 [Eh]
	-----------------------------------------------------------

  Dipole Moment: [D]
     X:    -0.2013      Y:     3.7552      Z:    -1.5818     Total:     4.0798

*** Psi4 exiting successfully. Buy a developer a beer!
