                               Psi4 1.4a3.dev225

  ==> Input File <==

--------------------------------------------------------------------------
#psi4
#
memory 32 gb

molecule  {
0 1
  S       -0.2573260    -0.3323280     0.1419150
  O       -0.2860210    -1.5224110    -0.7288200
  O       -0.1913230    -0.4820040     1.6079470
  C        1.1077430     0.7304620    -0.3526940
  C        2.4495880     0.2623560     0.2167580
  C       -1.7119910     0.6470300    -0.2467030
  C       -2.9773330    -0.1490110     0.0593080
  C        2.8936370    -1.0771870    -0.3692660
  C        3.4979800     1.3449170    -0.0414460
  C       -4.2305000     0.6643980    -0.2524990
  H        1.1212756     0.7531960    -1.5483125
  H        0.8637990     1.7314470     0.0219200
  H        2.3201640     0.1499000     1.2996700
  H       -1.6515560     0.9087510    -1.3087410
  H       -1.6583250     1.5603790     0.3547230
  H       -2.9641430    -1.0716000    -0.5283160
  H       -2.9644700    -0.4377180     1.1148610
  H        2.9999490    -1.0007780    -1.4570900
  H        2.1808400    -1.8761700    -0.1584720
  H        3.8652790    -1.3613920     0.0461660
  H        3.6372140     1.5009250    -1.1167480
  H        3.2107350     2.3002430     0.4092550
  H        4.4622490     1.0479330     0.3817310
  H       -4.2653590     1.5804770     0.3446860
  H       -4.2647910     0.9464390    -1.3091180
  H       -5.1305020     0.0846610    -0.0305780
units angstrom
no_reorient  #important for SAPT in psi4, default
symmetry c1  #important for SAPT in psi4, default
}

set PROPERTIES_ORIGIN ["COM"]
properties('MP2/aug-cc-pvtz', properties = ['dipole'])
--------------------------------------------------------------------------

    Molecular point group: c1
  Charge       = 0
  Multiplicity = 1
  Basis Set: AUG-CC-PVTZ
    Blend: AUG-CC-PVTZ
  Basis Set: (AUG-CC-PVTZ AUX)
    Blend: AUG-CC-PVTZ-JKFIT

    Orbital Energies [Eh]
    ---------------------

    Doubly Occupied:

       1A    -92.170731     2A    -20.536290     3A    -20.534552
       4A    -11.284248     5A    -11.274736     6A    -11.247440
       7A    -11.241420     8A    -11.229638     9A    -11.226851
      10A    -11.212943    11A     -9.141139    12A     -6.825538
      13A     -6.825121    14A     -6.824926    15A     -1.426064
      16A     -1.316835    17A     -1.113763    18A     -1.096000
      19A     -1.011881    20A     -0.958058    21A     -0.937734
      22A     -0.850205    23A     -0.805107    24A     -0.773510
      25A     -0.686538    26A     -0.674248    27A     -0.662408
      28A     -0.641981    29A     -0.618920    30A     -0.604122
      31A     -0.591330    32A     -0.572522    33A     -0.568049
      34A     -0.552360    35A     -0.538716    36A     -0.528552
      37A     -0.510312    38A     -0.503052    39A     -0.495580
      40A     -0.487432    41A     -0.480846    42A     -0.475531
      43A     -0.470738    44A     -0.455861    45A     -0.418512

  @DF-RHF Final Energy:  -821.77667074330884

   => Energetics <=

    Nuclear Repulsion Energy =            706.7856768072766727
    One-Electron Energy =               -2530.3200214667813270
    Two-Electron Energy =                1001.7576739161959267
    Total Energy =                       -821.7766707433088413
  Basis Set: (AUG-CC-PVTZ AUX)
    Blend: AUG-CC-PVTZ-RI
    Molecular point group: c1

    Geometry (in Angstrom), charge = 0, multiplicity = 1:

       Center              X                  Y                   Z               Mass
    ------------   -----------------  -----------------  -----------------  -----------------
         S           -0.246742080920    -0.291251965529     0.122116094355    31.972071174400
         O           -0.275437080920    -1.481334965529    -0.748618905645    15.994914619570
         O           -0.180739080920    -0.440927965529     1.588148094355    15.994914619570
         C            1.118326919080     0.771538034471    -0.372492905645    12.000000000000
         C            2.460171919080     0.303432034471     0.196959094355    12.000000000000
         C           -1.701407080920     0.688106034471    -0.266501905645    12.000000000000
         C           -2.966749080920    -0.107934965529     0.039509094355    12.000000000000
         C            2.904220919080    -1.036110965529    -0.389064905645    12.000000000000
         C            3.508563919080     1.385993034471    -0.061244905645    12.000000000000
         C           -4.219916080920     0.705474034471    -0.272297905645    12.000000000000
         H            1.131859519080     0.794272034471    -1.568111405645     1.007825032230
         H            0.874382919080     1.772523034471     0.002121094355     1.007825032230
         H            2.330747919080     0.190976034471     1.279871094355     1.007825032230
         H           -1.640972080920     0.949827034471    -1.328539905645     1.007825032230
         H           -1.647741080920     1.601455034471     0.334924094355     1.007825032230
         H           -2.953559080920    -1.030523965529    -0.548114905645     1.007825032230
         H           -2.953886080920    -0.396641965529     1.095062094355     1.007825032230
         H            3.010532919080    -0.959701965529    -1.476888905645     1.007825032230
         H            2.191423919080    -1.835093965529    -0.178270905645     1.007825032230
         H            3.875862919080    -1.320315965529     0.026367094355     1.007825032230
         H            3.647797919080     1.542001034471    -1.136546905645     1.007825032230
         H            3.221318919080     2.341319034471     0.389456094355     1.007825032230
         H            4.472832919080     1.089009034471     0.361932094355     1.007825032230
         H           -4.254775080920     1.621553034471     0.324887094355     1.007825032230
         H           -4.254207080920     0.987515034471    -1.328916905645     1.007825032230
         H           -5.119918080920     0.125737034471    -0.050376905645     1.007825032230

  Basis Set: AUG-CC-PVTZ
    Blend: AUG-CC-PVTZ
  Basis Set: (AUG-CC-PVTZ AUX)
    Blend: AUG-CC-PVTZ-JKFIT
	 Reference Energy          =    -821.7766707433088413 [Eh]
	 Singles Energy            =      -0.0000000000000000 [Eh]
	 Same-Spin Energy          =      -0.5012705145278655 [Eh]
	 Opposite-Spin Energy      =      -1.6498122457269095 [Eh]
	 Correlation Energy        =      -2.1510827602547753 [Eh]
	 Total Energy              =    -823.9277535035636220 [Eh]

	 ================> DF-SCS-MP2 Energies <==================
	-----------------------------------------------------------
	 SCS Same-Spin Scale       =       0.3333333333333333 [-]
	 SCS Opposite-Spin Scale   =       1.2000000000000000 [-]
	 SCS Same-Spin Energy      =      -0.1670901715092885 [Eh]
	 SCS Opposite-Spin Energy  =      -1.9797746948722914 [Eh]
	 SCS Correlation Energy    =      -2.1468648663815797 [Eh]
	 SCS Total Energy          =    -823.9235356096904752 [Eh]
	-----------------------------------------------------------

  Dipole Moment: [D]
     X:    -0.1971      Y:     3.7845      Z:    -1.5459     Total:     4.0929

*** Psi4 exiting successfully. Buy a developer a beer!
