                               Psi4 1.4a3.dev225

  ==> Input File <==

--------------------------------------------------------------------------
#psi4
#
memory 32 gb

molecule  {
0 1
  S       -0.2573260    -0.3323280     0.1419150
  O       -0.2860210    -1.5224110    -0.7288200
  O       -0.1913230    -0.4820040     1.6079470
  C        1.1077430     0.7304620    -0.3526940
  C        2.4671171     0.2562409     0.2241970
  C       -1.7119910     0.6470300    -0.2467030
  C       -2.9773330    -0.1490110     0.0593080
  C        2.8936370    -1.0771870    -0.3692660
  C        3.4979800     1.3449170    -0.0414460
  C       -4.2305000     0.6643980    -0.2524990
  H        1.1201440     0.7512950    -1.4483370
  H        0.8637990     1.7314470     0.0219200
  H        2.3201640     0.1499000     1.2996700
  H       -1.6515560     0.9087510    -1.3087410
  H       -1.6583250     1.5603790     0.3547230
  H       -2.9641430    -1.0716000    -0.5283160
  H       -2.9644700    -0.4377180     1.1148610
  H        2.9999490    -1.0007780    -1.4570900
  H        2.1808400    -1.8761700    -0.1584720
  H        3.8652790    -1.3613920     0.0461660
  H        3.6372140     1.5009250    -1.1167480
  H        3.2107350     2.3002430     0.4092550
  H        4.4622490     1.0479330     0.3817310
  H       -4.2653590     1.5804770     0.3446860
  H       -4.2647910     0.9464390    -1.3091180
  H       -5.1305020     0.0846610    -0.0305780
units angstrom
no_reorient  #important for SAPT in psi4, default
symmetry c1  #important for SAPT in psi4, default
}

set PROPERTIES_ORIGIN ["COM"]
properties('MP2/aug-cc-pvtz', properties = ['dipole'])
--------------------------------------------------------------------------

    Molecular point group: c1
  Charge       = 0
  Multiplicity = 1
  Basis Set: AUG-CC-PVTZ
    Blend: AUG-CC-PVTZ
  Basis Set: (AUG-CC-PVTZ AUX)
    Blend: AUG-CC-PVTZ-JKFIT

    Orbital Energies [Eh]
    ---------------------

    Doubly Occupied:

       1A    -92.169825     2A    -20.535226     3A    -20.534447
       4A    -11.274484     5A    -11.273642     6A    -11.247123
       7A    -11.241212     8A    -11.229492     9A    -11.226760
      10A    -11.212821    11A     -9.140280    12A     -6.824667
      13A     -6.824263    14A     -6.824076    15A     -1.425507
      16A     -1.316328    17A     -1.114441    18A     -1.095871
      19A     -1.013783    20A     -0.960019    21A     -0.939061
      22A     -0.849683    23A     -0.804473    24A     -0.779352
      25A     -0.687046    26A     -0.675249    27A     -0.662893
      28A     -0.642243    29A     -0.619228    30A     -0.605802
      31A     -0.591273    32A     -0.581305    33A     -0.567981
      34A     -0.554545    35A     -0.539846    36A     -0.528498
      37A     -0.509435    38A     -0.503271    39A     -0.495368
      40A     -0.485490    41A     -0.483555    42A     -0.475844
      43A     -0.471265    44A     -0.456112    45A     -0.417784

  @DF-RHF Final Energy:  -821.78329369967662

   => Energetics <=

    Nuclear Repulsion Energy =            707.0727285516525171
    One-Electron Energy =               -2530.8903037744985340
    Two-Electron Energy =                1002.0342815231693976
    Total Energy =                       -821.7832936996766193
  Basis Set: (AUG-CC-PVTZ AUX)
    Blend: AUG-CC-PVTZ-RI
    Molecular point group: c1

    Geometry (in Angstrom), charge = 0, multiplicity = 1:

       Center              X                  Y                   Z               Mass
    ------------   -----------------  -----------------  -----------------  -----------------
         S           -0.248017066851    -0.290793080736     0.120958015442    31.972071174400
         O           -0.276712066851    -1.480876080736    -0.749776984558    15.994914619570
         O           -0.182014066851    -0.440469080736     1.586990015442    15.994914619570
         C            1.117051933149     0.771996919264    -0.373650984558    12.000000000000
         C            2.476426033149     0.297775819264     0.203240015442    12.000000000000
         C           -1.702682066851     0.688564919264    -0.267659984558    12.000000000000
         C           -2.968024066851    -0.107476080736     0.038351015442    12.000000000000
         C            2.902945933149    -1.035652080736    -0.390222984558    12.000000000000
         C            3.507288933149     1.386451919264    -0.062402984558    12.000000000000
         C           -4.221191066851     0.705932919264    -0.273455984558    12.000000000000
         H            1.129452933149     0.792829919264    -1.469293984558     1.007825032230
         H            0.873107933149     1.772981919264     0.000963015442     1.007825032230
         H            2.329472933149     0.191434919264     1.278713015442     1.007825032230
         H           -1.642247066851     0.950285919264    -1.329697984558     1.007825032230
         H           -1.649016066851     1.601913919264     0.333766015442     1.007825032230
         H           -2.954834066851    -1.030065080736    -0.549272984558     1.007825032230
         H           -2.955161066851    -0.396183080736     1.093904015442     1.007825032230
         H            3.009257933149    -0.959243080736    -1.478046984558     1.007825032230
         H            2.190148933149    -1.834635080736    -0.179428984558     1.007825032230
         H            3.874587933149    -1.319857080736     0.025209015442     1.007825032230
         H            3.646522933149     1.542459919264    -1.137704984558     1.007825032230
         H            3.220043933149     2.341777919264     0.388298015442     1.007825032230
         H            4.471557933149     1.089467919264     0.360774015442     1.007825032230
         H           -4.256050066851     1.622011919264     0.323729015442     1.007825032230
         H           -4.255482066851     0.987973919264    -1.330074984558     1.007825032230
         H           -5.121193066851     0.126195919264    -0.051534984558     1.007825032230

  Basis Set: AUG-CC-PVTZ
    Blend: AUG-CC-PVTZ
  Basis Set: (AUG-CC-PVTZ AUX)
    Blend: AUG-CC-PVTZ-JKFIT
	 Reference Energy          =    -821.7832936996766193 [Eh]
	 Singles Energy            =      -0.0000000000000000 [Eh]
	 Same-Spin Energy          =      -0.5009925047192955 [Eh]
	 Opposite-Spin Energy      =      -1.6488086976645799 [Eh]
	 Correlation Energy        =      -2.1498012023838755 [Eh]
	 Total Energy              =    -823.9330949020604749 [Eh]

	 ================> DF-SCS-MP2 Energies <==================
	-----------------------------------------------------------
	 SCS Same-Spin Scale       =       0.3333333333333333 [-]
	 SCS Opposite-Spin Scale   =       1.2000000000000000 [-]
	 SCS Same-Spin Energy      =      -0.1669975015730985 [Eh]
	 SCS Opposite-Spin Energy  =      -1.9785704371974959 [Eh]
	 SCS Correlation Energy    =      -2.1455679387705944 [Eh]
	 SCS Total Energy          =    -823.9288616384471879 [Eh]
	-----------------------------------------------------------

  Dipole Moment: [D]
     X:    -0.1747      Y:     3.8000      Z:    -1.5751     Total:     4.1172

*** Psi4 exiting successfully. Buy a developer a beer!
