                               Psi4 1.4a3.dev225

  ==> Input File <==

--------------------------------------------------------------------------
#psi4
#
memory 32 gb

molecule  {
0 1
  S       -0.2573260    -0.3323280     0.1419150
  O       -0.2860210    -1.5224110    -0.7288200
  O       -0.1913230    -0.4820040     1.6079470
  C        1.1077430     0.7304620    -0.3526940
  C        2.4495880     0.2623560     0.2167580
  C       -1.7119910     0.6470300    -0.2467030
  C       -2.9773330    -0.1490110     0.0593080
  C        2.8936370    -1.0771870    -0.3692660
  C        3.4979800     1.3449170    -0.0414460
  C       -4.2305000     0.6643980    -0.2524990
  H        1.1201440     0.7512950    -1.4483370
  H        0.8637990     1.7314470     0.0219200
  H        2.3225249     0.1519514     1.2799161
  H       -1.6515560     0.9087510    -1.3087410
  H       -1.6583250     1.5603790     0.3547230
  H       -2.9641430    -1.0716000    -0.5283160
  H       -2.9644700    -0.4377180     1.1148610
  H        2.9999490    -1.0007780    -1.4570900
  H        2.1808400    -1.8761700    -0.1584720
  H        3.8652790    -1.3613920     0.0461660
  H        3.6372140     1.5009250    -1.1167480
  H        3.2107350     2.3002430     0.4092550
  H        4.4622490     1.0479330     0.3817310
  H       -4.2653590     1.5804770     0.3446860
  H       -4.2647910     0.9464390    -1.3091180
  H       -5.1305020     0.0846610    -0.0305780
units angstrom
no_reorient  #important for SAPT in psi4, default
symmetry c1  #important for SAPT in psi4, default
}

set PROPERTIES_ORIGIN ["COM"]
properties('MP2/aug-cc-pvtz', properties = ['dipole'])
--------------------------------------------------------------------------

    Molecular point group: c1
  Charge       = 0
  Multiplicity = 1
  Basis Set: AUG-CC-PVTZ
    Blend: AUG-CC-PVTZ
  Basis Set: (AUG-CC-PVTZ AUX)
    Blend: AUG-CC-PVTZ-JKFIT

    Orbital Energies [Eh]
    ---------------------

    Doubly Occupied:

       1A    -92.170147     2A    -20.535568     3A    -20.534741
       4A    -11.274770     5A    -11.273566     6A    -11.244293
       7A    -11.241420     8A    -11.229644     9A    -11.226715
      10A    -11.212768    11A     -9.140627    12A     -6.825015
      13A     -6.824606    14A     -6.824416    15A     -1.425855
      16A     -1.316623    17A     -1.116304    18A     -1.096180
      19A     -1.013502    20A     -0.960498    21A     -0.937663
      22A     -0.850774    23A     -0.805573    24A     -0.780700
      25A     -0.687867    26A     -0.675842    27A     -0.663997
      28A     -0.642687    29A     -0.619521    30A     -0.605095
      31A     -0.591492    32A     -0.581235    33A     -0.568188
      34A     -0.553792    35A     -0.539674    36A     -0.528597
      37A     -0.510218    38A     -0.502988    39A     -0.495710
      40A     -0.487547    41A     -0.483238    42A     -0.476111
      43A     -0.470884    44A     -0.456383    45A     -0.418208

  @DF-RHF Final Energy:  -821.78361793364854

   => Energetics <=

    Nuclear Repulsion Energy =            707.4143057026067254
    One-Electron Energy =               -2531.5533680167186503
    Two-Electron Energy =                1002.3554443804633820
    Total Energy =                       -821.7836179336485429
  Basis Set: (AUG-CC-PVTZ AUX)
    Blend: AUG-CC-PVTZ-RI
    Molecular point group: c1

    Geometry (in Angstrom), charge = 0, multiplicity = 1:

       Center              X                  Y                   Z               Mass
    ------------   -----------------  -----------------  -----------------  -----------------
         S           -0.246749631296    -0.291252889288     0.121623372282    31.972071174400
         O           -0.275444631296    -1.481335889288    -0.749111627718    15.994914619570
         O           -0.180746631296    -0.440928889288     1.587655372282    15.994914619570
         C            1.118319368704     0.771537110712    -0.372985627718    12.000000000000
         C            2.460164368704     0.303431110712     0.196466372282    12.000000000000
         C           -1.701414631296     0.688105110712    -0.266994627718    12.000000000000
         C           -2.966756631296    -0.107935889288     0.039016372282    12.000000000000
         C            2.904213368704    -1.036111889288    -0.389557627718    12.000000000000
         C            3.508556368704     1.385992110712    -0.061737627718    12.000000000000
         C           -4.219923631296     0.705473110712    -0.272790627718    12.000000000000
         H            1.130720368704     0.792370110712    -1.468628627718     1.007825032230
         H            0.874375368704     1.772522110712     0.001628372282     1.007825032230
         H            2.333101268704     0.193026510712     1.259624472282     1.007825032230
         H           -1.640979631296     0.949826110712    -1.329032627718     1.007825032230
         H           -1.647748631296     1.601454110712     0.334431372282     1.007825032230
         H           -2.953566631296    -1.030524889288    -0.548607627718     1.007825032230
         H           -2.953893631296    -0.396642889288     1.094569372282     1.007825032230
         H            3.010525368704    -0.959702889288    -1.477381627718     1.007825032230
         H            2.191416368704    -1.835094889288    -0.178763627718     1.007825032230
         H            3.875855368704    -1.320316889288     0.025874372282     1.007825032230
         H            3.647790368704     1.542000110712    -1.137039627718     1.007825032230
         H            3.221311368704     2.341318110712     0.388963372282     1.007825032230
         H            4.472825368704     1.089008110712     0.361439372282     1.007825032230
         H           -4.254782631296     1.621552110712     0.324394372282     1.007825032230
         H           -4.254214631296     0.987514110712    -1.329409627718     1.007825032230
         H           -5.119925631296     0.125736110712    -0.050869627718     1.007825032230

  Basis Set: AUG-CC-PVTZ
    Blend: AUG-CC-PVTZ
  Basis Set: (AUG-CC-PVTZ AUX)
    Blend: AUG-CC-PVTZ-JKFIT
	 Reference Energy          =    -821.7836179336485429 [Eh]
	 Singles Energy            =      -0.0000000000000000 [Eh]
	 Same-Spin Energy          =      -0.5010071855112537 [Eh]
	 Opposite-Spin Energy      =      -1.6487266102283686 [Eh]
	 Correlation Energy        =      -2.1497337957396221 [Eh]
	 Total Energy              =    -823.9333517293881641 [Eh]

	 ================> DF-SCS-MP2 Energies <==================
	-----------------------------------------------------------
	 SCS Same-Spin Scale       =       0.3333333333333333 [-]
	 SCS Opposite-Spin Scale   =       1.2000000000000000 [-]
	 SCS Same-Spin Energy      =      -0.1670023951704179 [Eh]
	 SCS Opposite-Spin Energy  =      -1.9784719322740423 [Eh]
	 SCS Correlation Energy    =      -2.1454743274444601 [Eh]
	 SCS Total Energy          =    -823.9290922610930465 [Eh]
	-----------------------------------------------------------

  Dipole Moment: [D]
     X:    -0.2022      Y:     3.7999      Z:    -1.5693     Total:     4.1161

*** Psi4 exiting successfully. Buy a developer a beer!
