                               Psi4 1.4a3.dev225

  ==> Input File <==

--------------------------------------------------------------------------
#psi4
#
memory 32 gb

molecule  {
0 1
  S       -0.2573260    -0.3323280     0.1419150
  O       -0.2860210    -1.5224110    -0.7288200
  O       -0.1913230    -0.4820040     1.6079470
  C        1.1077430     0.7304620    -0.3526940
  C        2.4495880     0.2623560     0.2167580
  C       -1.7119910     0.6470300    -0.2467030
  C       -2.9773330    -0.1490110     0.0593080
  C        2.8936370    -1.0771870    -0.3692660
  C        3.4979800     1.3449170    -0.0414460
  C       -4.2305000     0.6643980    -0.2524990
  H        1.1201440     0.7512950    -1.4483370
  H        0.8637990     1.7314470     0.0219200
  H        2.3201640     0.1499000     1.2996700
  H       -1.6515560     0.9087510    -1.3087410
  H       -1.6583250     1.5603790     0.3547230
  H       -2.9641430    -1.0716000    -0.5283160
  H       -2.9644700    -0.4377180     1.1148610
  H        2.9999490    -1.0007780    -1.4570900
  H        2.1808400    -1.8761700    -0.1584720
  H        3.8652790    -1.3613920     0.0461660
  H        3.6372140     1.5009250    -1.1167480
  H        3.2107350     2.3002430     0.4092550
  H        4.4622490     1.0479330     0.3817310
  H       -4.3320708     1.5563340     0.3729443
  H       -4.2647910     0.9464390    -1.3091180
  H       -5.1305020     0.0846610    -0.0305780
units angstrom
no_reorient  #important for SAPT in psi4, default
symmetry c1  #important for SAPT in psi4, default
}

set PROPERTIES_ORIGIN ["COM"]
properties('MP2/aug-cc-pvtz', properties = ['dipole'])
--------------------------------------------------------------------------

    Molecular point group: c1
  Charge       = 0
  Multiplicity = 1
  Basis Set: AUG-CC-PVTZ
    Blend: AUG-CC-PVTZ
  Basis Set: (AUG-CC-PVTZ AUX)
    Blend: AUG-CC-PVTZ-JKFIT

    Orbital Energies [Eh]
    ---------------------

    Doubly Occupied:

       1A    -92.170087     2A    -20.535491     3A    -20.534757
       4A    -11.274683     5A    -11.273664     6A    -11.246568
       7A    -11.241966     8A    -11.229444     9A    -11.226797
      10A    -11.212888    11A     -9.140573    12A     -6.824961
      13A     -6.824552    14A     -6.824361    15A     -1.425825
      16A     -1.316596    17A     -1.115703    18A     -1.095844
      19A     -1.013323    20A     -0.960639    21A     -0.937722
      22A     -0.851280    23A     -0.804879    24A     -0.778708
      25A     -0.687985    26A     -0.675899    27A     -0.663155
      28A     -0.642977    29A     -0.619113    30A     -0.605333
      31A     -0.589187    32A     -0.580468    33A     -0.569847
      34A     -0.553938    35A     -0.539856    36A     -0.529492
      37A     -0.508698    38A     -0.501947    39A     -0.497065
      40A     -0.486949    41A     -0.482434    42A     -0.475271
      43A     -0.470585    44A     -0.456353    45A     -0.418130

  @DF-RHF Final Energy:  -821.78299135914904

   => Energetics <=

    Nuclear Repulsion Energy =            707.2107134292361934
    One-Electron Energy =               -2531.1554305209915583
    Two-Electron Energy =                1002.1617257326063282
    Total Energy =                       -821.7829913591490367
  Basis Set: (AUG-CC-PVTZ AUX)
    Blend: AUG-CC-PVTZ-RI
    Molecular point group: c1

    Geometry (in Angstrom), charge = 0, multiplicity = 1:

       Center              X                  Y                   Z               Mass
    ------------   -----------------  -----------------  -----------------  -----------------
         S           -0.246325385906    -0.291092002954     0.121328480747    31.972071174400
         O           -0.275020385906    -1.481175002954    -0.749406519253    15.994914619570
         O           -0.180322385906    -0.440768002954     1.587360480747    15.994914619570
         C            1.118743614094     0.771697997046    -0.373280519253    12.000000000000
         C            2.460588614094     0.303591997046     0.196171480747    12.000000000000
         C           -1.700990385906     0.688265997046    -0.267289519253    12.000000000000
         C           -2.966332385906    -0.107775002954     0.038721480747    12.000000000000
         C            2.904637614094    -1.035951002954    -0.389852519253    12.000000000000
         C            3.508980614094     1.386152997046    -0.062032519253    12.000000000000
         C           -4.219499385906     0.705633997046    -0.273085519253    12.000000000000
         H            1.131144614094     0.792530997046    -1.468923519253     1.007825032230
         H            0.874799614094     1.772682997046     0.001333480747     1.007825032230
         H            2.331164614094     0.191135997046     1.279083480747     1.007825032230
         H           -1.640555385906     0.949986997046    -1.329327519253     1.007825032230
         H           -1.647324385906     1.601614997046     0.334136480747     1.007825032230
         H           -2.953142385906    -1.030364002954    -0.548902519253     1.007825032230
         H           -2.953469385906    -0.396482002954     1.094274480747     1.007825032230
         H            3.010949614094    -0.959542002954    -1.477676519253     1.007825032230
         H            2.191840614094    -1.834934002954    -0.179058519253     1.007825032230
         H            3.876279614094    -1.320156002954     0.025579480747     1.007825032230
         H            3.648214614094     1.542160997046    -1.137334519253     1.007825032230
         H            3.221735614094     2.341478997046     0.388668480747     1.007825032230
         H            4.473249614094     1.089168997046     0.361144480747     1.007825032230
         H           -4.321070185906     1.597569997046     0.352357780747     1.007825032230
         H           -4.253790385906     0.987674997046    -1.329704519253     1.007825032230
         H           -5.119501385906     0.125896997046    -0.051164519253     1.007825032230

  Basis Set: AUG-CC-PVTZ
    Blend: AUG-CC-PVTZ
  Basis Set: (AUG-CC-PVTZ AUX)
    Blend: AUG-CC-PVTZ-JKFIT
	 Reference Energy          =    -821.7829913591490367 [Eh]
	 Singles Energy            =      -0.0000000000000000 [Eh]
	 Same-Spin Energy          =      -0.5010448933329077 [Eh]
	 Opposite-Spin Energy      =      -1.6488603182827817 [Eh]
	 Correlation Energy        =      -2.1499052116156894 [Eh]
	 Total Energy              =    -823.9328965707646830 [Eh]

	 ================> DF-SCS-MP2 Energies <==================
	-----------------------------------------------------------
	 SCS Same-Spin Scale       =       0.3333333333333333 [-]
	 SCS Opposite-Spin Scale   =       1.2000000000000000 [-]
	 SCS Same-Spin Energy      =      -0.1670149644443026 [Eh]
	 SCS Opposite-Spin Energy  =      -1.9786323819393379 [Eh]
	 SCS Correlation Energy    =      -2.1456473463836403 [Eh]
	 SCS Total Energy          =    -823.9286387055326486 [Eh]
	-----------------------------------------------------------

  Dipole Moment: [D]
     X:    -0.2208      Y:     3.7985      Z:    -1.5586     Total:     4.1117

*** Psi4 exiting successfully. Buy a developer a beer!
