                               Psi4 1.4a3.dev225

  ==> Input File <==

--------------------------------------------------------------------------
#psi4
#
memory 32 gb

molecule  {
0 1
  S       -0.2573260    -0.3323280     0.1419150
  O       -0.2860210    -1.5224110    -0.7288200
  O       -0.1913230    -0.4820040     1.6079470
  C        1.1077430     0.7304620    -0.3526940
  C        2.4495880     0.2623560     0.2167580
  C       -1.7119910     0.6470300    -0.2467030
  C       -2.9773330    -0.1490110     0.0593080
  C        2.8936370    -1.0771870    -0.3692660
  C        3.4979800     1.3449170    -0.0414460
  C       -4.2305000     0.6643980    -0.2524990
  H        1.1201440     0.7512950    -1.4483370
  H        0.8637990     1.7314470     0.0219200
  H        2.3201640     0.1499000     1.2996700
  H       -1.6502029     0.9272092    -1.3039432
  H       -1.6583250     1.5603790     0.3547230
  H       -2.9641430    -1.0716000    -0.5283160
  H       -2.9644700    -0.4377180     1.1148610
  H        2.9999490    -1.0007780    -1.4570900
  H        2.1808400    -1.8761700    -0.1584720
  H        3.8652790    -1.3613920     0.0461660
  H        3.6372140     1.5009250    -1.1167480
  H        3.2107350     2.3002430     0.4092550
  H        4.4622490     1.0479330     0.3817310
  H       -4.2653590     1.5804770     0.3446860
  H       -4.2647910     0.9464390    -1.3091180
  H       -5.1305020     0.0846610    -0.0305780
units angstrom
no_reorient  #important for SAPT in psi4, default
symmetry c1  #important for SAPT in psi4, default
}

set PROPERTIES_ORIGIN ["COM"]
properties('MP2/aug-cc-pvtz', properties = ['dipole'])
--------------------------------------------------------------------------

    Molecular point group: c1
  Charge       = 0
  Multiplicity = 1
  Basis Set: AUG-CC-PVTZ
    Blend: AUG-CC-PVTZ
  Basis Set: (AUG-CC-PVTZ AUX)
    Blend: AUG-CC-PVTZ-JKFIT

    Orbital Energies [Eh]
    ---------------------

    Doubly Occupied:

       1A    -92.170280     2A    -20.535624     3A    -20.534744
       4A    -11.274709     5A    -11.273719     6A    -11.246605
       7A    -11.241504     8A    -11.229637     9A    -11.226833
      10A    -11.212910    11A     -9.140739    12A     -6.825136
      13A     -6.824718    14A     -6.824527    15A     -1.425869
      16A     -1.316635    17A     -1.115750    18A     -1.095968
      19A     -1.013434    20A     -0.960510    21A     -0.937749
      22A     -0.850667    23A     -0.805315    24A     -0.778851
      25A     -0.688056    26A     -0.675120    27A     -0.663317
      28A     -0.642664    29A     -0.619266    30A     -0.605178
      31A     -0.592037    32A     -0.581078    33A     -0.567442
      34A     -0.553833    35A     -0.539697    36A     -0.528658
      37A     -0.510442    38A     -0.502967    39A     -0.495658
      40A     -0.487287    41A     -0.482420    42A     -0.475394
      43A     -0.470487    44A     -0.456350    45A     -0.418336

  @DF-RHF Final Energy:  -821.78346520773528

   => Energetics <=

    Nuclear Repulsion Energy =            707.2950581735192372
    One-Electron Energy =               -2531.3208155699003328
    Two-Electron Energy =                1002.2422921886458198
    Total Energy =                       -821.7834652077352757
  Basis Set: (AUG-CC-PVTZ AUX)
    Blend: AUG-CC-PVTZ-RI
    Molecular point group: c1

    Geometry (in Angstrom), charge = 0, multiplicity = 1:

       Center              X                  Y                   Z               Mass
    ------------   -----------------  -----------------  -----------------  -----------------
         S           -0.246743441376    -0.291353660059     0.121472575433    31.972071174400
         O           -0.275438441376    -1.481436660059    -0.749262424567    15.994914619570
         O           -0.180740441376    -0.441029660059     1.587504575433    15.994914619570
         C            1.118325558624     0.771436339941    -0.373136424567    12.000000000000
         C            2.460170558624     0.303330339941     0.196315575433    12.000000000000
         C           -1.701408441376     0.688004339941    -0.267145424567    12.000000000000
         C           -2.966750441376    -0.108036660059     0.038865575433    12.000000000000
         C            2.904219558624    -1.036212660059    -0.389708424567    12.000000000000
         C            3.508562558624     1.385891339941    -0.061888424567    12.000000000000
         C           -4.219917441376     0.705372339941    -0.272941424567    12.000000000000
         H            1.130726558624     0.792269339941    -1.468779424567     1.007825032230
         H            0.874381558624     1.772421339941     0.001477575433     1.007825032230
         H            2.330746558624     0.190874339941     1.279227575433     1.007825032230
         H           -1.639620341376     0.968183539941    -1.324385624567     1.007825032230
         H           -1.647742441376     1.601353339941     0.334280575433     1.007825032230
         H           -2.953560441376    -1.030625660059    -0.548758424567     1.007825032230
         H           -2.953887441376    -0.396743660059     1.094418575433     1.007825032230
         H            3.010531558624    -0.959803660059    -1.477532424567     1.007825032230
         H            2.191422558624    -1.835195660059    -0.178914424567     1.007825032230
         H            3.875861558624    -1.320417660059     0.025723575433     1.007825032230
         H            3.647796558624     1.541899339941    -1.137190424567     1.007825032230
         H            3.221317558624     2.341217339941     0.388812575433     1.007825032230
         H            4.472831558624     1.088907339941     0.361288575433     1.007825032230
         H           -4.254776441376     1.621451339941     0.324243575433     1.007825032230
         H           -4.254208441376     0.987413339941    -1.329560424567     1.007825032230
         H           -5.119919441376     0.125635339941    -0.051020424567     1.007825032230

  Basis Set: AUG-CC-PVTZ
    Blend: AUG-CC-PVTZ
  Basis Set: (AUG-CC-PVTZ AUX)
    Blend: AUG-CC-PVTZ-JKFIT
	 Reference Energy          =    -821.7834652077352757 [Eh]
	 Singles Energy            =      -0.0000000000000000 [Eh]
	 Same-Spin Energy          =      -0.5010364793605984 [Eh]
	 Opposite-Spin Energy      =      -1.6488758423502694 [Eh]
	 Correlation Energy        =      -2.1499123217108678 [Eh]
	 Total Energy              =    -823.9333775294461475 [Eh]

	 ================> DF-SCS-MP2 Energies <==================
	-----------------------------------------------------------
	 SCS Same-Spin Scale       =       0.3333333333333333 [-]
	 SCS Opposite-Spin Scale   =       1.2000000000000000 [-]
	 SCS Same-Spin Energy      =      -0.1670121597868661 [Eh]
	 SCS Opposite-Spin Energy  =      -1.9786510108203232 [Eh]
	 SCS Correlation Energy    =      -2.1456631706071891 [Eh]
	 SCS Total Energy          =    -823.9291283783425115 [Eh]
	-----------------------------------------------------------

  Dipole Moment: [D]
     X:    -0.2014      Y:     3.8035      Z:    -1.5725     Total:     4.1207

*** Psi4 exiting successfully. Buy a developer a beer!
