                               Psi4 1.4a3.dev225

  ==> Input File <==

--------------------------------------------------------------------------
#psi4
#
memory 32 gb

molecule  {
0 1
  S       -0.2573260    -0.3323280     0.1419150
  O       -0.2860210    -1.5224110    -0.7288200
  O       -0.1913230    -0.4820040     1.6079470
  C        1.1077430     0.7304620    -0.3526940
  C        2.4495880     0.2623560     0.2167580
  C       -1.7119910     0.6470300    -0.2467030
  C       -2.9773330    -0.1490110     0.0593080
  C        2.8645774    -0.9895242    -0.3309152
  C        3.4979800     1.3449170    -0.0414460
  C       -4.2305000     0.6643980    -0.2524990
  H        1.1201440     0.7512950    -1.4483370
  H        0.8637990     1.7314470     0.0219200
  H        2.3201640     0.1499000     1.2996700
  H       -1.6515560     0.9087510    -1.3087410
  H       -1.6583250     1.5603790     0.3547230
  H       -2.9641430    -1.0716000    -0.5283160
  H       -2.9644700    -0.4377180     1.1148610
  H        2.9999490    -1.0007780    -1.4570900
  H        2.1808400    -1.8761700    -0.1584720
  H        3.8652790    -1.3613920     0.0461660
  H        3.6372140     1.5009250    -1.1167480
  H        3.2107350     2.3002430     0.4092550
  H        4.4622490     1.0479330     0.3817310
  H       -4.2653590     1.5804770     0.3446860
  H       -4.2647910     0.9464390    -1.3091180
  H       -5.1305020     0.0846610    -0.0305780
units angstrom
no_reorient  #important for SAPT in psi4, default
symmetry c1  #important for SAPT in psi4, default
}

set PROPERTIES_ORIGIN ["COM"]
properties('MP2/aug-cc-pvtz', properties = ['dipole'])
--------------------------------------------------------------------------

    Molecular point group: c1
  Charge       = 0
  Multiplicity = 1
  Basis Set: AUG-CC-PVTZ
    Blend: AUG-CC-PVTZ
  Basis Set: (AUG-CC-PVTZ AUX)
    Blend: AUG-CC-PVTZ-JKFIT

    Orbital Energies [Eh]
    ---------------------

    Doubly Occupied:

       1A    -92.170428     2A    -20.535678     3A    -20.534482
       4A    -11.274977     5A    -11.274148     6A    -11.242436
       7A    -11.241542     8A    -11.229741     9A    -11.227062
      10A    -11.218007    11A     -9.140885    12A     -6.825279
      13A     -6.824870    14A     -6.824670    15A     -1.425894
      16A     -1.316593    17A     -1.126900    18A     -1.097578
      19A     -1.016510    20A     -0.961563    21A     -0.938472
      22A     -0.850115    23A     -0.804427    24A     -0.779154
      25A     -0.688976    26A     -0.676906    27A     -0.665397
      28A     -0.645557    29A     -0.620793    30A     -0.607630
      31A     -0.591716    32A     -0.580901    33A     -0.568295
      34A     -0.555544    35A     -0.535315    36A     -0.527098
      37A     -0.511444    38A     -0.502616    39A     -0.498508
      40A     -0.491065    41A     -0.476742    42A     -0.474899
      43A     -0.462971    44A     -0.456360    45A     -0.416705

  @DF-RHF Final Energy:  -821.77157220995605

   => Energetics <=

    Nuclear Repulsion Energy =            709.0853856544844120
    One-Electron Energy =               -2534.8402171123116204
    Two-Electron Energy =                1003.9832592478710467
    Total Energy =                       -821.7715722099560480
  Basis Set: (AUG-CC-PVTZ AUX)
    Blend: AUG-CC-PVTZ-RI
    Molecular point group: c1

    Geometry (in Angstrom), charge = 0, multiplicity = 1:

       Center              X                  Y                   Z               Mass
    ------------   -----------------  -----------------  -----------------  -----------------
         S           -0.244609947115    -0.297651235908     0.118697377050    31.972071174400
         O           -0.273304947115    -1.487734235908    -0.752037622950    15.994914619570
         O           -0.178606947115    -0.447327235908     1.584729377050    15.994914619570
         C            1.120459052885     0.765138764092    -0.375911622950    12.000000000000
         C            2.462304052885     0.297032764092     0.193540377050    12.000000000000
         C           -1.699274947115     0.681706764092    -0.269920622950    12.000000000000
         C           -2.964616947115    -0.114334235908     0.036090377050    12.000000000000
         C            2.877293452885    -0.954847435908    -0.354132822950    12.000000000000
         C            3.510696052885     1.379593764092    -0.064663622950    12.000000000000
         C           -4.217783947115     0.699074764092    -0.275716622950    12.000000000000
         H            1.132860052885     0.785971764092    -1.471554622950     1.007825032230
         H            0.876515052885     1.766123764092    -0.001297622950     1.007825032230
         H            2.332880052885     0.184576764092     1.276452377050     1.007825032230
         H           -1.638839947115     0.943427764092    -1.331958622950     1.007825032230
         H           -1.645608947115     1.595055764092     0.331505377050     1.007825032230
         H           -2.951426947115    -1.036923235908    -0.551533622950     1.007825032230
         H           -2.951753947115    -0.403041235908     1.091643377050     1.007825032230
         H            3.012665052885    -0.966101235908    -1.480307622950     1.007825032230
         H            2.193556052885    -1.841493235908    -0.181689622950     1.007825032230
         H            3.877995052885    -1.326715235908     0.022948377050     1.007825032230
         H            3.649930052885     1.535601764092    -1.139965622950     1.007825032230
         H            3.223451052885     2.334919764092     0.386037377050     1.007825032230
         H            4.474965052885     1.082609764092     0.358513377050     1.007825032230
         H           -4.252642947115     1.615153764092     0.321468377050     1.007825032230
         H           -4.252074947115     0.981115764092    -1.332335622950     1.007825032230
         H           -5.117785947115     0.119337764092    -0.053795622950     1.007825032230

  Basis Set: AUG-CC-PVTZ
    Blend: AUG-CC-PVTZ
  Basis Set: (AUG-CC-PVTZ AUX)
    Blend: AUG-CC-PVTZ-JKFIT
	 Reference Energy          =    -821.7715722099560480 [Eh]
	 Singles Energy            =      -0.0000000000000000 [Eh]
	 Same-Spin Energy          =      -0.5022319956607763 [Eh]
	 Opposite-Spin Energy      =      -1.6502920330471866 [Eh]
	 Correlation Energy        =      -2.1525240287079628 [Eh]
	 Total Energy              =    -823.9240962386639922 [Eh]

	 ================> DF-SCS-MP2 Energies <==================
	-----------------------------------------------------------
	 SCS Same-Spin Scale       =       0.3333333333333333 [-]
	 SCS Opposite-Spin Scale   =       1.2000000000000000 [-]
	 SCS Same-Spin Energy      =      -0.1674106652202587 [Eh]
	 SCS Opposite-Spin Energy  =      -1.9803504396566238 [Eh]
	 SCS Correlation Energy    =      -2.1477611048768828 [Eh]
	 SCS Total Energy          =    -823.9193333148328975 [Eh]
	-----------------------------------------------------------

  Dipole Moment: [D]
     X:    -0.2249      Y:     3.7856      Z:    -1.5663     Total:     4.1030

*** Psi4 exiting successfully. Buy a developer a beer!
