                               Psi4 1.4a3.dev225

  ==> Input File <==

--------------------------------------------------------------------------
#psi4
#
memory 32 gb

molecule  {
0 1
  S       -0.2573260    -0.3323280     0.1419150
  O       -0.2860210    -1.5224110    -0.7288200
  O       -0.1913230    -0.4820040     1.6079470
  C        1.1077430     0.7304620    -0.3526940
  C        2.4495880     0.2623560     0.2167580
  C       -1.7119910     0.6470300    -0.2467030
  C       -2.9773330    -0.1490110     0.0593080
  C        2.8936370    -1.0771870    -0.3692660
  C        3.4979800     1.3449170    -0.0414460
  C       -4.2305000     0.6643980    -0.2524990
  H        1.1201440     0.7512950    -1.4483370
  H        0.8637990     1.7314470     0.0219200
  H        2.3201640     0.1499000     1.2996700
  H       -1.6515560     0.9087510    -1.3087410
  H       -1.6583250     1.5603790     0.3547230
  H       -2.9641430    -1.0716000    -0.5283160
  H       -2.9644700    -0.4377180     1.1148610
  H        3.0183874    -1.0055783    -1.4554571
  H        2.1808400    -1.8761700    -0.1584720
  H        3.8652790    -1.3613920     0.0461660
  H        3.6372140     1.5009250    -1.1167480
  H        3.2107350     2.3002430     0.4092550
  H        4.4622490     1.0479330     0.3817310
  H       -4.2653590     1.5804770     0.3446860
  H       -4.2647910     0.9464390    -1.3091180
  H       -5.1305020     0.0846610    -0.0305780
units angstrom
no_reorient  #important for SAPT in psi4, default
symmetry c1  #important for SAPT in psi4, default
}

set PROPERTIES_ORIGIN ["COM"]
properties('MP2/aug-cc-pvtz', properties = ['dipole'])
--------------------------------------------------------------------------

    Molecular point group: c1
  Charge       = 0
  Multiplicity = 1
  Basis Set: AUG-CC-PVTZ
    Blend: AUG-CC-PVTZ
  Basis Set: (AUG-CC-PVTZ AUX)
    Blend: AUG-CC-PVTZ-JKFIT

    Orbital Energies [Eh]
    ---------------------

    Doubly Occupied:

       1A    -92.170135     2A    -20.535516     3A    -20.534729
       4A    -11.274771     5A    -11.273684     6A    -11.246732
       7A    -11.241415     8A    -11.229640     9A    -11.226853
      10A    -11.212863    11A     -9.140615    12A     -6.825003
      13A     -6.824594    14A     -6.824402    15A     -1.425827
      16A     -1.316592    17A     -1.115711    18A     -1.096060
      19A     -1.013420    20A     -0.960539    21A     -0.937721
      22A     -0.850676    23A     -0.804994    24A     -0.778832
      25A     -0.687804    26A     -0.675750    27A     -0.663450
      28A     -0.642736    29A     -0.619128    30A     -0.604998
      31A     -0.591492    32A     -0.581408    33A     -0.568181
      34A     -0.554075    35A     -0.539084    36A     -0.528503
      37A     -0.510231    38A     -0.503119    39A     -0.495758
      40A     -0.486872    41A     -0.482511    42A     -0.475646
      43A     -0.470440    44A     -0.456353    45A     -0.418234

  @DF-RHF Final Energy:  -821.78350560915146

   => Energetics <=

    Nuclear Repulsion Energy =            707.2799200795618617
    One-Electron Energy =               -2531.2926604637091259
    Two-Electron Energy =                1002.2292347749958026
    Total Energy =                       -821.7835056091514616
  Basis Set: (AUG-CC-PVTZ AUX)
    Blend: AUG-CC-PVTZ-RI
    Molecular point group: c1

    Geometry (in Angstrom), charge = 0, multiplicity = 1:

       Center              X                  Y                   Z               Mass
    ------------   -----------------  -----------------  -----------------  -----------------
         S           -0.246848379502    -0.291210806060     0.121492014288    31.972071174400
         O           -0.275543379502    -1.481293806060    -0.749242985712    15.994914619570
         O           -0.180845379502    -0.440886806060     1.587524014288    15.994914619570
         C            1.118220620498     0.771579193940    -0.373116985712    12.000000000000
         C            2.460065620498     0.303473193940     0.196335014288    12.000000000000
         C           -1.701513379502     0.688147193940    -0.267125985712    12.000000000000
         C           -2.966855379502    -0.107893806060     0.038885014288    12.000000000000
         C            2.904114620498    -1.036069806060    -0.389688985712    12.000000000000
         C            3.508457620498     1.386034193940    -0.061868985712    12.000000000000
         C           -4.220022379502     0.705515193940    -0.272921985712    12.000000000000
         H            1.130621620498     0.792412193940    -1.468759985712     1.007825032230
         H            0.874276620498     1.772564193940     0.001497014288     1.007825032230
         H            2.330641620498     0.191017193940     1.279247014288     1.007825032230
         H           -1.641078379502     0.949868193940    -1.329163985712     1.007825032230
         H           -1.647847379502     1.601496193940     0.334300014288     1.007825032230
         H           -2.953665379502    -1.030482806060    -0.548738985712     1.007825032230
         H           -2.953992379502    -0.396600806060     1.094438014288     1.007825032230
         H            3.028865020498    -0.964461106060    -1.475880085712     1.007825032230
         H            2.191317620498    -1.835052806060    -0.178894985712     1.007825032230
         H            3.875756620498    -1.320274806060     0.025743014288     1.007825032230
         H            3.647691620498     1.542042193940    -1.137170985712     1.007825032230
         H            3.221212620498     2.341360193940     0.388832014288     1.007825032230
         H            4.472726620498     1.089050193940     0.361308014288     1.007825032230
         H           -4.254881379502     1.621594193940     0.324263014288     1.007825032230
         H           -4.254313379502     0.987556193940    -1.329540985712     1.007825032230
         H           -5.120024379502     0.125778193940    -0.051000985712     1.007825032230

  Basis Set: AUG-CC-PVTZ
    Blend: AUG-CC-PVTZ
  Basis Set: (AUG-CC-PVTZ AUX)
    Blend: AUG-CC-PVTZ-JKFIT
	 Reference Energy          =    -821.7835056091514616 [Eh]
	 Singles Energy            =      -0.0000000000000000 [Eh]
	 Same-Spin Energy          =      -0.5010335410287199 [Eh]
	 Opposite-Spin Energy      =      -1.6488675499930072 [Eh]
	 Correlation Energy        =      -2.1499010910217269 [Eh]
	 Total Energy              =    -823.9334067001732365 [Eh]

	 ================> DF-SCS-MP2 Energies <==================
	-----------------------------------------------------------
	 SCS Same-Spin Scale       =       0.3333333333333333 [-]
	 SCS Opposite-Spin Scale   =       1.2000000000000000 [-]
	 SCS Same-Spin Energy      =      -0.1670111803429066 [Eh]
	 SCS Opposite-Spin Energy  =      -1.9786410599916087 [Eh]
	 SCS Correlation Energy    =      -2.1456522403345151 [Eh]
	 SCS Total Energy          =    -823.9291578494859323 [Eh]
	-----------------------------------------------------------

  Dipole Moment: [D]
     X:    -0.1977      Y:     3.7996      Z:    -1.5771     Total:     4.1187

*** Psi4 exiting successfully. Buy a developer a beer!
