                               Psi4 1.4a3.dev225

  ==> Input File <==

--------------------------------------------------------------------------
#psi4
#
memory 32 gb

molecule  {
0 1
  S       -0.2573260    -0.3323280     0.1419150
  O       -0.2860210    -1.5224110    -0.7288200
  O       -0.1913230    -0.4820040     1.6079470
  C        1.1077430     0.7304620    -0.3526940
  C        2.4495880     0.2623560     0.2167580
  C       -1.7119910     0.6470300    -0.2467030
  C       -2.9773330    -0.1490110     0.0593080
  C        2.8936370    -1.0771870    -0.3692660
  C        3.4979800     1.3449170    -0.0414460
  C       -4.2305000     0.6643980    -0.2524990
  H        1.1201440     0.7512950    -1.4483370
  H        0.8637990     1.7314470     0.0219200
  H        2.3201640     0.1499000     1.2996700
  H       -1.6515560     0.9087510    -1.3087410
  H       -1.6583250     1.5603790     0.3547230
  H       -2.9641430    -1.0716000    -0.5283160
  H       -2.9644700    -0.4377180     1.1148610
  H        2.9259278    -0.9818241    -1.4603044
  H        2.1808400    -1.8761700    -0.1584720
  H        3.8652790    -1.3613920     0.0461660
  H        3.6372140     1.5009250    -1.1167480
  H        3.2107350     2.3002430     0.4092550
  H        4.4622490     1.0479330     0.3817310
  H       -4.2653590     1.5804770     0.3446860
  H       -4.2647910     0.9464390    -1.3091180
  H       -5.1305020     0.0846610    -0.0305780
units angstrom
no_reorient  #important for SAPT in psi4, default
symmetry c1  #important for SAPT in psi4, default
}

set PROPERTIES_ORIGIN ["COM"]
properties('MP2/aug-cc-pvtz', properties = ['dipole'])
--------------------------------------------------------------------------

    Molecular point group: c1
  Charge       = 0
  Multiplicity = 1
  Basis Set: AUG-CC-PVTZ
    Blend: AUG-CC-PVTZ
  Basis Set: (AUG-CC-PVTZ AUX)
    Blend: AUG-CC-PVTZ-JKFIT

    Orbital Energies [Eh]
    ---------------------

    Doubly Occupied:

       1A    -92.170223     2A    -20.535518     3A    -20.534859
       4A    -11.274838     5A    -11.273823     6A    -11.246084
       7A    -11.241468     8A    -11.229683     9A    -11.226726
      10A    -11.213089    11A     -9.140696    12A     -6.825085
      13A     -6.824676    14A     -6.824485    15A     -1.425890
      16A     -1.316659    17A     -1.115949    18A     -1.096151
      19A     -1.013452    20A     -0.960497    21A     -0.937919
      22A     -0.850533    23A     -0.804744    24A     -0.778419
      25A     -0.687859    26A     -0.675909    27A     -0.664045
      28A     -0.642628    29A     -0.619859    30A     -0.605918
      31A     -0.591479    32A     -0.579781    33A     -0.568234
      34A     -0.552804    35A     -0.542455    36A     -0.528638
      37A     -0.510300    38A     -0.502718    39A     -0.495565
      40A     -0.488365    41A     -0.481972    42A     -0.473894
      43A     -0.470099    44A     -0.456412    45A     -0.418314

  @DF-RHF Final Energy:  -821.78286164369752

   => Energetics <=

    Nuclear Repulsion Energy =            707.4680488124978410
    One-Electron Energy =               -2531.6643993611082806
    Two-Electron Energy =                1002.4134889049130379
    Total Energy =                       -821.7828616436975153
  Basis Set: (AUG-CC-PVTZ AUX)
    Blend: AUG-CC-PVTZ-RI
    Molecular point group: c1

    Geometry (in Angstrom), charge = 0, multiplicity = 1:

       Center              X                  Y                   Z               Mass
    ------------   -----------------  -----------------  -----------------  -----------------
         S           -0.246280491479    -0.291356704655     0.121521786465    31.972071174400
         O           -0.274975491479    -1.481439704655    -0.749213213535    15.994914619570
         O           -0.180277491479    -0.441032704655     1.587553786465    15.994914619570
         C            1.118788508521     0.771433295345    -0.373087213535    12.000000000000
         C            2.460633508521     0.303327295345     0.196364786465    12.000000000000
         C           -1.700945491479     0.688001295345    -0.267096213535    12.000000000000
         C           -2.966287491479    -0.108039704655     0.038914786465    12.000000000000
         C            2.904682508521    -1.036215704655    -0.389659213535    12.000000000000
         C            3.509025508521     1.385888295345    -0.061839213535    12.000000000000
         C           -4.219454491479     0.705369295345    -0.272892213535    12.000000000000
         H            1.131189508521     0.792266295345    -1.468730213535     1.007825032230
         H            0.874844508521     1.772418295345     0.001526786465     1.007825032230
         H            2.331209508521     0.190871295345     1.279276786465     1.007825032230
         H           -1.640510491479     0.949722295345    -1.329134213535     1.007825032230
         H           -1.647279491479     1.601350295345     0.334329786465     1.007825032230
         H           -2.953097491479    -1.030628704655    -0.548709213535     1.007825032230
         H           -2.953424491479    -0.396746704655     1.094467786465     1.007825032230
         H            2.936973308521    -0.940852804655    -1.480697613535     1.007825032230
         H            2.191885508521    -1.835198704655    -0.178865213535     1.007825032230
         H            3.876324508521    -1.320420704655     0.025772786465     1.007825032230
         H            3.648259508521     1.541896295345    -1.137141213535     1.007825032230
         H            3.221780508521     2.341214295345     0.388861786465     1.007825032230
         H            4.473294508521     1.088904295345     0.361337786465     1.007825032230
         H           -4.254313491479     1.621448295345     0.324292786465     1.007825032230
         H           -4.253745491479     0.987410295345    -1.329511213535     1.007825032230
         H           -5.119456491479     0.125632295345    -0.050971213535     1.007825032230

  Basis Set: AUG-CC-PVTZ
    Blend: AUG-CC-PVTZ
  Basis Set: (AUG-CC-PVTZ AUX)
    Blend: AUG-CC-PVTZ-JKFIT
	 Reference Energy          =    -821.7828616436975153 [Eh]
	 Singles Energy            =      -0.0000000000000000 [Eh]
	 Same-Spin Energy          =      -0.5011226901823609 [Eh]
	 Opposite-Spin Energy      =      -1.6490063723527402 [Eh]
	 Correlation Energy        =      -2.1501290625351013 [Eh]
	 Total Energy              =    -823.9329907062326583 [Eh]

	 ================> DF-SCS-MP2 Energies <==================
	-----------------------------------------------------------
	 SCS Same-Spin Scale       =       0.3333333333333333 [-]
	 SCS Opposite-Spin Scale   =       1.2000000000000000 [-]
	 SCS Same-Spin Energy      =      -0.1670408967274536 [Eh]
	 SCS Opposite-Spin Energy  =      -1.9788076468232880 [Eh]
	 SCS Correlation Energy    =      -2.1458485435507417 [Eh]
	 SCS Total Energy          =    -823.9287101872482708 [Eh]
	-----------------------------------------------------------

  Dipole Moment: [D]
     X:    -0.2243      Y:     3.7965      Z:    -1.5627     Total:     4.1117

*** Psi4 exiting successfully. Buy a developer a beer!
