                               Psi4 1.4a3.dev225

  ==> Input File <==

--------------------------------------------------------------------------
#psi4
#
memory 32 gb

molecule  {
0 1
  S       -0.2573260    -0.3323280     0.1419150
  O       -0.2860210    -1.5224110    -0.7288200
  O       -0.3206569    -0.3978962     1.6142258
  C        1.1077430     0.7304620    -0.3526940
  C        2.4495880     0.2623560     0.2167580
  C       -1.7119910     0.6470300    -0.2467030
  C       -2.9773330    -0.1490110     0.0593080
  C        2.8936370    -1.0771870    -0.3692660
  C        3.4979800     1.3449170    -0.0414460
  C       -4.2305000     0.6643980    -0.2524990
  H        1.1201440     0.7512950    -1.4483370
  H        0.8637990     1.7314470     0.0219200
  H        2.3201640     0.1499000     1.2996700
  H       -1.6515560     0.9087510    -1.3087410
  H       -1.6583250     1.5603790     0.3547230
  H       -2.9641430    -1.0716000    -0.5283160
  H       -2.9644700    -0.4377180     1.1148610
  H        2.9999490    -1.0007780    -1.4570900
  H        2.1808400    -1.8761700    -0.1584720
  H        3.8652790    -1.3613920     0.0461660
  H        3.6372140     1.5009250    -1.1167480
  H        3.2107350     2.3002430     0.4092550
  H        4.4622490     1.0479330     0.3817310
  H       -4.2653590     1.5804770     0.3446860
  H       -4.2647910     0.9464390    -1.3091180
  H       -5.1305020     0.0846610    -0.0305780
units angstrom
no_reorient  #important for SAPT in psi4, default
symmetry c1  #important for SAPT in psi4, default
}

set PROPERTIES_ORIGIN ["COM"]
properties('MP2/aug-cc-pvtz', properties = ['dipole'])
--------------------------------------------------------------------------

    Molecular point group: c1
  Charge       = 0
  Multiplicity = 1
  Basis Set: AUG-CC-PVTZ
    Blend: AUG-CC-PVTZ
  Basis Set: (AUG-CC-PVTZ AUX)
    Blend: AUG-CC-PVTZ-JKFIT

    Orbital Energies [Eh]
    ---------------------

    Doubly Occupied:

       1A    -92.170577     2A    -20.539507     3A    -20.535712
       4A    -11.277039     5A    -11.267410     6A    -11.249878
       7A    -11.237000     8A    -11.228956     9A    -11.226414
      10A    -11.215901    11A     -9.141022    12A     -6.825396
      13A     -6.825064    14A     -6.824746    15A     -1.426853
      16A     -1.320998    17A     -1.118035    18A     -1.090935
      19A     -1.012647    20A     -0.958689    21A     -0.940425
      22A     -0.848723    23A     -0.803447    24A     -0.781229
      25A     -0.688102    26A     -0.674617    27A     -0.661447
      28A     -0.643788    29A     -0.621047    30A     -0.606939
      31A     -0.588682    32A     -0.582932    33A     -0.565158
      34A     -0.555864    35A     -0.541888    36A     -0.526277
      37A     -0.509083    38A     -0.503491    39A     -0.493717
      40A     -0.488617    41A     -0.484572    42A     -0.477225
      43A     -0.470521    44A     -0.459260    45A     -0.416292

  @DF-RHF Final Energy:  -821.78007802997854

   => Energetics <=

    Nuclear Repulsion Energy =            707.3278307118033581
    One-Electron Energy =               -2531.3635755600967059
    Two-Electron Energy =                1002.2556668183146940
    Total Energy =                       -821.7800780299785401
  Basis Set: (AUG-CC-PVTZ AUX)
    Blend: AUG-CC-PVTZ-RI
    Molecular point group: c1

    Geometry (in Angstrom), charge = 0, multiplicity = 1:

       Center              X                  Y                   Z               Mass
    ------------   -----------------  -----------------  -----------------  -----------------
         S           -0.234127895338    -0.299438966194     0.120889997482    31.972071174400
         O           -0.262822895338    -1.489521966194    -0.749845002518    15.994914619570
         O           -0.297458795338    -0.365007166194     1.593200797482    15.994914619570
         C            1.130941104662     0.763351033806    -0.373719002518    12.000000000000
         C            2.472786104662     0.295245033806     0.195732997482    12.000000000000
         C           -1.688792895338     0.679919033806    -0.267728002518    12.000000000000
         C           -2.954134895338    -0.116121966194     0.038282997482    12.000000000000
         C            2.916835104662    -1.044297966194    -0.390291002518    12.000000000000
         C            3.521178104662     1.377806033806    -0.062471002518    12.000000000000
         C           -4.207301895338     0.697287033806    -0.273524002518    12.000000000000
         H            1.143342104662     0.784184033806    -1.469362002518     1.007825032230
         H            0.886997104662     1.764336033806     0.000894997482     1.007825032230
         H            2.343362104662     0.182789033806     1.278644997482     1.007825032230
         H           -1.628357895338     0.941640033806    -1.329766002518     1.007825032230
         H           -1.635126895338     1.593268033806     0.333697997482     1.007825032230
         H           -2.940944895338    -1.038710966194    -0.549341002518     1.007825032230
         H           -2.941271895338    -0.404828966194     1.093835997482     1.007825032230
         H            3.023147104662    -0.967888966194    -1.478115002518     1.007825032230
         H            2.204038104662    -1.843280966194    -0.179497002518     1.007825032230
         H            3.888477104662    -1.328502966194     0.025140997482     1.007825032230
         H            3.660412104662     1.533814033806    -1.137773002518     1.007825032230
         H            3.233933104662     2.333132033806     0.388229997482     1.007825032230
         H            4.485447104662     1.080822033806     0.360705997482     1.007825032230
         H           -4.242160895338     1.613366033806     0.323660997482     1.007825032230
         H           -4.241592895338     0.979328033806    -1.330143002518     1.007825032230
         H           -5.107303895338     0.117550033806    -0.051603002518     1.007825032230

  Basis Set: AUG-CC-PVTZ
    Blend: AUG-CC-PVTZ
  Basis Set: (AUG-CC-PVTZ AUX)
    Blend: AUG-CC-PVTZ-JKFIT
	 Reference Energy          =    -821.7800780299785401 [Eh]
	 Singles Energy            =      -0.0000000000000000 [Eh]
	 Same-Spin Energy          =      -0.5012701341847337 [Eh]
	 Opposite-Spin Energy      =      -1.6494698808301642 [Eh]
	 Correlation Energy        =      -2.1507400150148976 [Eh]
	 Total Energy              =    -823.9308180449934298 [Eh]

	 ================> DF-SCS-MP2 Energies <==================
	-----------------------------------------------------------
	 SCS Same-Spin Scale       =       0.3333333333333333 [-]
	 SCS Opposite-Spin Scale   =       1.2000000000000000 [-]
	 SCS Same-Spin Energy      =      -0.1670900447282445 [Eh]
	 SCS Opposite-Spin Energy  =      -1.9793638569961969 [Eh]
	 SCS Correlation Energy    =      -2.1464539017244415 [Eh]
	 SCS Total Energy          =    -823.9265319317029252 [Eh]
	-----------------------------------------------------------

  Dipole Moment: [D]
     X:     0.2604      Y:     3.5961      Z:    -1.5984     Total:     3.9439

*** Psi4 exiting successfully. Buy a developer a beer!
