                               Psi4 1.4a3.dev225

  ==> Input File <==

--------------------------------------------------------------------------
#psi4
#
memory 32 gb

molecule  {
0 1
  S       -0.2573260    -0.3323280     0.1419150
  O       -0.2860210    -1.5224110    -0.7288200
  O       -0.1913230    -0.4820040     1.6079470
  C        1.1077430     0.7304620    -0.3526940
  C        2.4495880     0.2623560     0.2167580
  C       -1.7119910     0.6470300    -0.2467030
  C       -2.9773330    -0.1490110     0.0593080
  C        2.8936370    -1.0771870    -0.3692660
  C        3.4979800     1.3449170    -0.0414460
  C       -4.2305000     0.6643980    -0.2524990
  H        1.1201440     0.7512950    -1.4483370
  H        0.8637990     1.7314470     0.0219200
  H        2.3201640     0.1499000     1.2996700
  H       -1.6515560     0.9087510    -1.3087410
  H       -1.6583250     1.5603790     0.3547230
  H       -2.9641430    -1.0716000    -0.5283160
  H       -2.9644700    -0.4377180     1.1148610
  H        2.9902461    -1.0077517    -1.3578065
  H        2.1808400    -1.8761700    -0.1584720
  H        3.8652790    -1.3613920     0.0461660
  H        3.6372140     1.5009250    -1.1167480
  H        3.2107350     2.3002430     0.4092550
  H        4.4622490     1.0479330     0.3817310
  H       -4.2653590     1.5804770     0.3446860
  H       -4.2647910     0.9464390    -1.3091180
  H       -5.1305020     0.0846610    -0.0305780
units angstrom
no_reorient  #important for SAPT in psi4, default
symmetry c1  #important for SAPT in psi4, default
}

set PROPERTIES_ORIGIN ["COM"]
properties('MP2/aug-cc-pvtz', properties = ['dipole'])
--------------------------------------------------------------------------

    Molecular point group: c1
  Charge       = 0
  Multiplicity = 1
  Basis Set: AUG-CC-PVTZ
    Blend: AUG-CC-PVTZ
  Basis Set: (AUG-CC-PVTZ AUX)
    Blend: AUG-CC-PVTZ-JKFIT

    Orbital Energies [Eh]
    ---------------------

    Doubly Occupied:

       1A    -92.170038     2A    -20.535316     3A    -20.534682
       4A    -11.274705     5A    -11.273610     6A    -11.245476
       7A    -11.241361     8A    -11.229603     9A    -11.226708
      10A    -11.200091    11A     -9.140513    12A     -6.824901
      13A     -6.824492    14A     -6.824301    15A     -1.425698
      16A     -1.316470    17A     -1.116366    18A     -1.096191
      19A     -1.014251    20A     -0.961194    21A     -0.944379
      22A     -0.851208    23A     -0.805977    24A     -0.781346
      25A     -0.687954    26A     -0.675647    27A     -0.663575
      28A     -0.642832    29A     -0.619677    30A     -0.605161
      31A     -0.591681    32A     -0.585208    33A     -0.568148
      34A     -0.558461    35A     -0.545133    36A     -0.528244
      37A     -0.510024    38A     -0.502870    39A     -0.495635
      40A     -0.488087    41A     -0.482600    42A     -0.476041
      43A     -0.470527    44A     -0.456252    45A     -0.418072

  @DF-RHF Final Energy:  -821.77745049420525

   => Energetics <=

    Nuclear Repulsion Energy =            707.7999264521608893
    One-Electron Energy =               -2532.2933442946605282
    Two-Electron Energy =                1002.7159673482943845
    Total Energy =                       -821.7774504942052545
  Basis Set: (AUG-CC-PVTZ AUX)
    Blend: AUG-CC-PVTZ-RI
    Molecular point group: c1

    Geometry (in Angstrom), charge = 0, multiplicity = 1:

       Center              X                  Y                   Z               Mass
    ------------   -----------------  -----------------  -----------------  -----------------
         S           -0.246675535285    -0.291197457010     0.120892243078    31.972071174400
         O           -0.275370535285    -1.481280457010    -0.749842756922    15.994914619570
         O           -0.180672535285    -0.440873457010     1.586924243078    15.994914619570
         C            1.118393464715     0.771592542990    -0.373716756922    12.000000000000
         C            2.460238464715     0.303486542990     0.195735243078    12.000000000000
         C           -1.701340535285     0.688160542990    -0.267725756922    12.000000000000
         C           -2.966682535285    -0.107880457010     0.038285243078    12.000000000000
         C            2.904287464715    -1.036056457010    -0.390288756922    12.000000000000
         C            3.508630464715     1.386047542990    -0.062468756922    12.000000000000
         C           -4.219849535285     0.705528542990    -0.273521756922    12.000000000000
         H            1.130794464715     0.792425542990    -1.469359756922     1.007825032230
         H            0.874449464715     1.772577542990     0.000897243078     1.007825032230
         H            2.330814464715     0.191030542990     1.278647243078     1.007825032230
         H           -1.640905535285     0.949881542990    -1.329763756922     1.007825032230
         H           -1.647674535285     1.601509542990     0.333700243078     1.007825032230
         H           -2.953492535285    -1.030469457010    -0.549338756922     1.007825032230
         H           -2.953819535285    -0.396587457010     1.093838243078     1.007825032230
         H            3.000896564715    -0.966621157010    -1.378829256922     1.007825032230
         H            2.191490464715    -1.835039457010    -0.179494756922     1.007825032230
         H            3.875929464715    -1.320261457010     0.025143243078     1.007825032230
         H            3.647864464715     1.542055542990    -1.137770756922     1.007825032230
         H            3.221385464715     2.341373542990     0.388232243078     1.007825032230
         H            4.472899464715     1.089063542990     0.360708243078     1.007825032230
         H           -4.254708535285     1.621607542990     0.323663243078     1.007825032230
         H           -4.254140535285     0.987569542990    -1.330140756922     1.007825032230
         H           -5.119851535285     0.125791542990    -0.051600756922     1.007825032230

  Basis Set: AUG-CC-PVTZ
    Blend: AUG-CC-PVTZ
  Basis Set: (AUG-CC-PVTZ AUX)
    Blend: AUG-CC-PVTZ-JKFIT
	 Reference Energy          =    -821.7774504942052545 [Eh]
	 Singles Energy            =      -0.0000000000000000 [Eh]
	 Same-Spin Energy          =      -0.5010670149985017 [Eh]
	 Opposite-Spin Energy      =      -1.6484261886784219 [Eh]
	 Correlation Energy        =      -2.1494932036769239 [Eh]
	 Total Energy              =    -823.9269436978821659 [Eh]

	 ================> DF-SCS-MP2 Energies <==================
	-----------------------------------------------------------
	 SCS Same-Spin Scale       =       0.3333333333333333 [-]
	 SCS Opposite-Spin Scale   =       1.2000000000000000 [-]
	 SCS Same-Spin Energy      =      -0.1670223383328339 [Eh]
	 SCS Opposite-Spin Energy  =      -1.9781114264141062 [Eh]
	 SCS Correlation Energy    =      -2.1451337647469400 [Eh]
	 SCS Total Energy          =    -823.9225842589521562 [Eh]
	-----------------------------------------------------------

  Dipole Moment: [D]
     X:    -0.1906      Y:     3.7946      Z:    -1.6248     Total:     4.1322

*** Psi4 exiting successfully. Buy a developer a beer!
