                               Psi4 1.4a3.dev225

  ==> Input File <==

--------------------------------------------------------------------------
#psi4
#
memory 32 gb

molecule  {
0 1
  S       -0.2573260    -0.3323280     0.1419150
  O       -0.2860210    -1.5224110    -0.7288200
  O       -0.1913230    -0.4820040     1.6079470
  C        1.1077430     0.7304620    -0.3526940
  C        2.4495880     0.2623560     0.2167580
  C       -1.7119910     0.6470300    -0.2467030
  C       -2.9773330    -0.1490110     0.0593080
  C        2.8936370    -1.0771870    -0.3692660
  C        3.4979800     1.3449170    -0.0414460
  C       -4.2305000     0.6643980    -0.2524990
  H        1.1201440     0.7512950    -1.4483370
  H        0.8637990     1.7314470     0.0219200
  H        2.3201640     0.1499000     1.2996700
  H       -1.6515560     0.9087510    -1.3087410
  H       -1.6583250     1.5603790     0.3547230
  H       -2.9641430    -1.0716000    -0.5283160
  H       -2.9644700    -0.4377180     1.1148610
  H        2.9999490    -1.0007780    -1.4570900
  H        2.1808400    -1.8761700    -0.1584720
  H        3.8652790    -1.3613920     0.0461660
  H        3.6372140     1.5009250    -1.1167480
  H        3.2107350     2.3002430     0.4092550
  H        4.4622490     1.0479330     0.3817310
  H       -4.1984773     1.6001570     0.3135182
  H       -4.2647910     0.9464390    -1.3091180
  H       -5.1305020     0.0846610    -0.0305780
units angstrom
no_reorient  #important for SAPT in psi4, default
symmetry c1  #important for SAPT in psi4, default
}

set PROPERTIES_ORIGIN ["COM"]
properties('MP2/aug-cc-pvtz', properties = ['dipole'])
--------------------------------------------------------------------------

    Molecular point group: c1
  Charge       = 0
  Multiplicity = 1
  Basis Set: AUG-CC-PVTZ
    Blend: AUG-CC-PVTZ
  Basis Set: (AUG-CC-PVTZ AUX)
    Blend: AUG-CC-PVTZ-JKFIT

    Orbital Energies [Eh]
    ---------------------

    Doubly Occupied:

       1A    -92.170228     2A    -20.535550     3A    -20.534751
       4A    -11.274899     5A    -11.273764     6A    -11.246634
       7A    -11.240914     8A    -11.229872     9A    -11.226858
      10A    -11.212929    11A     -9.140699    12A     -6.825088
      13A     -6.824679    14A     -6.824486    15A     -1.425857
      16A     -1.316618    17A     -1.115811    18A     -1.096381
      19A     -1.013574    20A     -0.960491    21A     -0.937771
      22A     -0.850088    23A     -0.805044    24A     -0.778792
      25A     -0.687722    26A     -0.675663    27A     -0.664020
      28A     -0.642492    29A     -0.619496    30A     -0.605049
      31A     -0.594499    32A     -0.581503    33A     -0.566296
      34A     -0.553661    35A     -0.539545    36A     -0.527846
      37A     -0.511906    38A     -0.503582    39A     -0.493813
      40A     -0.487340    41A     -0.482382    42A     -0.475383
      43A     -0.470195    44A     -0.456381    45A     -0.418365

  @DF-RHF Final Energy:  -821.78290604263623

   => Energetics <=

    Nuclear Repulsion Energy =            707.4293076803551230
    One-Electron Energy =               -2531.5865951310411219
    Two-Electron Energy =                1002.3743814080497714
    Total Energy =                       -821.7829060426362275
  Basis Set: (AUG-CC-PVTZ AUX)
    Blend: AUG-CC-PVTZ-RI
    Molecular point group: c1

    Geometry (in Angstrom), charge = 0, multiplicity = 1:

       Center              X                  Y                   Z               Mass
    ------------   -----------------  -----------------  -----------------  -----------------
         S           -0.247145918859    -0.291361164370     0.121693476599    31.972071174400
         O           -0.275840918859    -1.481444164370    -0.749041523401    15.994914619570
         O           -0.181142918859    -0.441037164370     1.587725476599    15.994914619570
         C            1.117923081141     0.771428835630    -0.372915523401    12.000000000000
         C            2.459768081141     0.303322835630     0.196536476599    12.000000000000
         C           -1.701810918859     0.687996835630    -0.266924523401    12.000000000000
         C           -2.967152918859    -0.108044164370     0.039086476599    12.000000000000
         C            2.903817081141    -1.036220164370    -0.389487523401    12.000000000000
         C            3.508160081141     1.385883835630    -0.061667523401    12.000000000000
         C           -4.220319918859     0.705364835630    -0.272720523401    12.000000000000
         H            1.130324081141     0.792261835630    -1.468558523401     1.007825032230
         H            0.873979081141     1.772413835630     0.001698476599     1.007825032230
         H            2.330344081141     0.190866835630     1.279448476599     1.007825032230
         H           -1.641375918859     0.949717835630    -1.328962523401     1.007825032230
         H           -1.648144918859     1.601345835630     0.334501476599     1.007825032230
         H           -2.953962918859    -1.030633164370    -0.548537523401     1.007825032230
         H           -2.954289918859    -0.396751164370     1.094639476599     1.007825032230
         H            3.010129081141    -0.959811164370    -1.477311523401     1.007825032230
         H            2.191020081141    -1.835203164370    -0.178693523401     1.007825032230
         H            3.875459081141    -1.320425164370     0.025944476599     1.007825032230
         H            3.647394081141     1.541891835630    -1.136969523401     1.007825032230
         H            3.220915081141     2.341209835630     0.389033476599     1.007825032230
         H            4.472429081141     1.088899835630     0.361509476599     1.007825032230
         H           -4.188297218859     1.641123835630     0.293296676599     1.007825032230
         H           -4.254610918859     0.987405835630    -1.329339523401     1.007825032230
         H           -5.120321918859     0.125627835630    -0.050799523401     1.007825032230

  Basis Set: AUG-CC-PVTZ
    Blend: AUG-CC-PVTZ
  Basis Set: (AUG-CC-PVTZ AUX)
    Blend: AUG-CC-PVTZ-JKFIT
	 Reference Energy          =    -821.7829060426362275 [Eh]
	 Singles Energy            =      -0.0000000000000000 [Eh]
	 Same-Spin Energy          =      -0.5010975551912276 [Eh]
	 Opposite-Spin Energy      =      -1.6489866640735806 [Eh]
	 Correlation Energy        =      -2.1500842192648082 [Eh]
	 Total Energy              =    -823.9329902619010682 [Eh]

	 ================> DF-SCS-MP2 Energies <==================
	-----------------------------------------------------------
	 SCS Same-Spin Scale       =       0.3333333333333333 [-]
	 SCS Opposite-Spin Scale   =       1.2000000000000000 [-]
	 SCS Same-Spin Energy      =      -0.1670325183970758 [Eh]
	 SCS Opposite-Spin Energy  =      -1.9787839968882968 [Eh]
	 SCS Correlation Energy    =      -2.1458165152853725 [Eh]
	 SCS Total Energy          =    -823.9287225579215601 [Eh]
	-----------------------------------------------------------

  Dipole Moment: [D]
     X:    -0.1864      Y:     3.7962      Z:    -1.5909     Total:     4.1203

*** Psi4 exiting successfully. Buy a developer a beer!
