                               Psi4 1.4a3.dev225

  ==> Input File <==

--------------------------------------------------------------------------
#psi4
#
memory 32 gb

molecule  {
0 1
  S       -0.2573260    -0.3323280     0.1419150
  O       -0.2860210    -1.5224110    -0.7288200
  O       -0.1913230    -0.4820040     1.6079470
  C        1.1077430     0.7304620    -0.3526940
  C        2.4470559     0.2394365     0.2032571
  C       -1.7119910     0.6470300    -0.2467030
  C       -2.9773330    -0.1490110     0.0593080
  C        2.8936370    -1.0771870    -0.3692660
  C        3.4979800     1.3449170    -0.0414460
  C       -4.2305000     0.6643980    -0.2524990
  H        1.1201440     0.7512950    -1.4483370
  H        0.8637990     1.7314470     0.0219200
  H        2.3201640     0.1499000     1.2996700
  H       -1.6515560     0.9087510    -1.3087410
  H       -1.6583250     1.5603790     0.3547230
  H       -2.9641430    -1.0716000    -0.5283160
  H       -2.9644700    -0.4377180     1.1148610
  H        2.9999490    -1.0007780    -1.4570900
  H        2.1808400    -1.8761700    -0.1584720
  H        3.8652790    -1.3613920     0.0461660
  H        3.6372140     1.5009250    -1.1167480
  H        3.2107350     2.3002430     0.4092550
  H        4.4622490     1.0479330     0.3817310
  H       -4.2653590     1.5804770     0.3446860
  H       -4.2647910     0.9464390    -1.3091180
  H       -5.1305020     0.0846610    -0.0305780
units angstrom
no_reorient  #important for SAPT in psi4, default
symmetry c1  #important for SAPT in psi4, default
}

set PROPERTIES_ORIGIN ["COM"]
properties('MP2/aug-cc-pvtz', properties = ['dipole'])
--------------------------------------------------------------------------

    Molecular point group: c1
  Charge       = 0
  Multiplicity = 1
  Basis Set: AUG-CC-PVTZ
    Blend: AUG-CC-PVTZ
  Basis Set: (AUG-CC-PVTZ AUX)
    Blend: AUG-CC-PVTZ-JKFIT

    Orbital Energies [Eh]
    ---------------------

    Doubly Occupied:

       1A    -92.169860     2A    -20.535439     3A    -20.534740
       4A    -11.274629     5A    -11.273988     6A    -11.247221
       7A    -11.241339     8A    -11.229581     9A    -11.227289
      10A    -11.212318    11A     -9.140381    12A     -6.824773
      13A     -6.824347    14A     -6.824166    15A     -1.425789
      16A     -1.316549    17A     -1.116267    18A     -1.096110
      19A     -1.013662    20A     -0.960571    21A     -0.939240
      22A     -0.850435    23A     -0.804373    24A     -0.777587
      25A     -0.687740    26A     -0.675969    27A     -0.663706
      28A     -0.642794    29A     -0.619417    30A     -0.605915
      31A     -0.591364    32A     -0.581167    33A     -0.568116
      34A     -0.552646    35A     -0.540202    36A     -0.529234
      37A     -0.510122    38A     -0.501858    39A     -0.495233
      40A     -0.491847    41A     -0.482707    42A     -0.475490
      43A     -0.467497    44A     -0.456299    45A     -0.417189

  @DF-RHF Final Energy:  -821.78261559338705

   => Energetics <=

    Nuclear Repulsion Energy =            707.4759132109570601
    One-Electron Energy =               -2531.6827275591126636
    Two-Electron Energy =                1002.4241987547685540
    Total Energy =                       -821.7826155933870496
  Basis Set: (AUG-CC-PVTZ AUX)
    Blend: AUG-CC-PVTZ-RI
    Molecular point group: c1

    Geometry (in Angstrom), charge = 0, multiplicity = 1:

       Center              X                  Y                   Z               Mass
    ------------   -----------------  -----------------  -----------------  -----------------
         S           -0.246549953357    -0.289564143185     0.122489389929    31.972071174400
         O           -0.275244953357    -1.479647143185    -0.748245610071    15.994914619570
         O           -0.180546953357    -0.439240143185     1.588521389929    15.994914619570
         C            1.118519046643     0.773225856815    -0.372119610071    12.000000000000
         C            2.457831946643     0.282200356815     0.183831489929    12.000000000000
         C           -1.701214953357     0.689793856815    -0.266128610071    12.000000000000
         C           -2.966556953357    -0.106247143185     0.039882389929    12.000000000000
         C            2.904413046643    -1.034423143185    -0.388691610071    12.000000000000
         C            3.508756046643     1.387680856815    -0.060871610071    12.000000000000
         C           -4.219723953357     0.707161856815    -0.271924610071    12.000000000000
         H            1.130920046643     0.794058856815    -1.467762610071     1.007825032230
         H            0.874575046643     1.774210856815     0.002494389929     1.007825032230
         H            2.330940046643     0.192663856815     1.280244389929     1.007825032230
         H           -1.640779953357     0.951514856815    -1.328166610071     1.007825032230
         H           -1.647548953357     1.603142856815     0.335297389929     1.007825032230
         H           -2.953366953357    -1.028836143185    -0.547741610071     1.007825032230
         H           -2.953693953357    -0.394954143185     1.095435389929     1.007825032230
         H            3.010725046643    -0.958014143185    -1.476515610071     1.007825032230
         H            2.191616046643    -1.833406143185    -0.177897610071     1.007825032230
         H            3.876055046643    -1.318628143185     0.026740389929     1.007825032230
         H            3.647990046643     1.543688856815    -1.136173610071     1.007825032230
         H            3.221511046643     2.343006856815     0.389829389929     1.007825032230
         H            4.473025046643     1.090696856815     0.362305389929     1.007825032230
         H           -4.254582953357     1.623240856815     0.325260389929     1.007825032230
         H           -4.254014953357     0.989202856815    -1.328543610071     1.007825032230
         H           -5.119725953357     0.127424856815    -0.050003610071     1.007825032230

  Basis Set: AUG-CC-PVTZ
    Blend: AUG-CC-PVTZ
  Basis Set: (AUG-CC-PVTZ AUX)
    Blend: AUG-CC-PVTZ-JKFIT
	 Reference Energy          =    -821.7826155933870496 [Eh]
	 Singles Energy            =      -0.0000000000000000 [Eh]
	 Same-Spin Energy          =      -0.5011731134843284 [Eh]
	 Opposite-Spin Energy      =      -1.6490430377017535 [Eh]
	 Correlation Energy        =      -2.1502161511860818 [Eh]
	 Total Energy              =    -823.9328317445731500 [Eh]

	 ================> DF-SCS-MP2 Energies <==================
	-----------------------------------------------------------
	 SCS Same-Spin Scale       =       0.3333333333333333 [-]
	 SCS Opposite-Spin Scale   =       1.2000000000000000 [-]
	 SCS Same-Spin Energy      =      -0.1670577044947761 [Eh]
	 SCS Opposite-Spin Energy  =      -1.9788516452421041 [Eh]
	 SCS Correlation Energy    =      -2.1459093497368804 [Eh]
	 SCS Total Energy          =    -823.9285249431238753 [Eh]
	-----------------------------------------------------------

  Dipole Moment: [D]
     X:    -0.1959      Y:     3.7848      Z:    -1.5784     Total:     4.1054

*** Psi4 exiting successfully. Buy a developer a beer!
