                               Psi4 1.4a3.dev225

  ==> Input File <==

--------------------------------------------------------------------------
#psi4
#
memory 32 gb

molecule  {
0 1
  S       -0.2573260    -0.3323280     0.1419150
  O       -0.2860210    -1.5224110    -0.7288200
  O       -0.1913230    -0.4820040     1.6079470
  C        1.1077430     0.7304620    -0.3526940
  C        2.4938081     0.2846289     0.1969259
  C       -1.7119910     0.6470300    -0.2467030
  C       -2.9773330    -0.1490110     0.0593080
  C        2.8936370    -1.0771870    -0.3692660
  C        3.4979800     1.3449170    -0.0414460
  C       -4.2305000     0.6643980    -0.2524990
  H        1.1201440     0.7512950    -1.4483370
  H        0.8637990     1.7314470     0.0219200
  H        2.3201640     0.1499000     1.2996700
  H       -1.6515560     0.9087510    -1.3087410
  H       -1.6583250     1.5603790     0.3547230
  H       -2.9641430    -1.0716000    -0.5283160
  H       -2.9644700    -0.4377180     1.1148610
  H        2.9999490    -1.0007780    -1.4570900
  H        2.1808400    -1.8761700    -0.1584720
  H        3.8652790    -1.3613920     0.0461660
  H        3.6372140     1.5009250    -1.1167480
  H        3.2107350     2.3002430     0.4092550
  H        4.4622490     1.0479330     0.3817310
  H       -4.2653590     1.5804770     0.3446860
  H       -4.2647910     0.9464390    -1.3091180
  H       -5.1305020     0.0846610    -0.0305780
units angstrom
no_reorient  #important for SAPT in psi4, default
symmetry c1  #important for SAPT in psi4, default
}

set PROPERTIES_ORIGIN ["COM"]
properties('MP2/aug-cc-pvtz', properties = ['dipole'])
--------------------------------------------------------------------------

    Molecular point group: c1
  Charge       = 0
  Multiplicity = 1
  Basis Set: AUG-CC-PVTZ
    Blend: AUG-CC-PVTZ
  Basis Set: (AUG-CC-PVTZ AUX)
    Blend: AUG-CC-PVTZ-JKFIT

    Orbital Energies [Eh]
    ---------------------

    Doubly Occupied:

       1A    -92.170662     2A    -20.535146     3A    -20.534583
       4A    -11.275019     5A    -11.273225     6A    -11.248351
       7A    -11.241543     8A    -11.229728     9A    -11.225545
      10A    -11.213244    11A     -9.140987    12A     -6.825360
      13A     -6.825010    14A     -6.824786    15A     -1.425542
      16A     -1.316357    17A     -1.116284    18A     -1.096636
      19A     -1.015427    20A     -0.961165    21A     -0.941202
      22A     -0.849698    23A     -0.803739    24A     -0.775031
      25A     -0.687543    26A     -0.675406    27A     -0.662544
      28A     -0.643056    29A     -0.619458    30A     -0.608033
      31A     -0.591801    32A     -0.582222    33A     -0.568221
      34A     -0.556708    35A     -0.539858    36A     -0.528738
      37A     -0.512116    38A     -0.507295    39A     -0.496346
      40A     -0.482520    41A     -0.479192    42A     -0.473515
      43A     -0.466763    44A     -0.455836    45A     -0.419980

  @DF-RHF Final Energy:  -821.78029074038363

   => Energetics <=

    Nuclear Repulsion Energy =            706.8779670343810722
    One-Electron Energy =               -2530.4736782368086097
    Two-Electron Energy =                1001.8154204620439032
    Total Energy =                       -821.7802907403836343
  Basis Set: (AUG-CC-PVTZ AUX)
    Blend: AUG-CC-PVTZ-RI
    Molecular point group: c1

    Geometry (in Angstrom), charge = 0, multiplicity = 1:

       Center              X                  Y                   Z               Mass
    ------------   -----------------  -----------------  -----------------  -----------------
         S           -0.249969030157    -0.292869148861     0.122952402558    31.972071174400
         O           -0.278664030157    -1.482952148861    -0.747782597442    15.994914619570
         O           -0.183966030157    -0.442545148861     1.588984402558    15.994914619570
         C            1.115099969843     0.769920851139    -0.371656597442    12.000000000000
         C            2.501165069843     0.324087751139     0.177963302558    12.000000000000
         C           -1.704634030157     0.686488851139    -0.265665597442    12.000000000000
         C           -2.969976030157    -0.109552148861     0.040345402558    12.000000000000
         C            2.900993969843    -1.037728148861    -0.388228597442    12.000000000000
         C            3.505336969843     1.384375851139    -0.060408597442    12.000000000000
         C           -4.223143030157     0.703856851139    -0.271461597442    12.000000000000
         H            1.127500969843     0.790753851139    -1.467299597442     1.007825032230
         H            0.871155969843     1.770905851139     0.002957402558     1.007825032230
         H            2.327520969843     0.189358851139     1.280707402558     1.007825032230
         H           -1.644199030157     0.948209851139    -1.327703597442     1.007825032230
         H           -1.650968030157     1.599837851139     0.335760402558     1.007825032230
         H           -2.956786030157    -1.032141148861    -0.547278597442     1.007825032230
         H           -2.957113030157    -0.398259148861     1.095898402558     1.007825032230
         H            3.007305969843    -0.961319148861    -1.476052597442     1.007825032230
         H            2.188196969843    -1.836711148861    -0.177434597442     1.007825032230
         H            3.872635969843    -1.321933148861     0.027203402558     1.007825032230
         H            3.644570969843     1.540383851139    -1.135710597442     1.007825032230
         H            3.218091969843     2.339701851139     0.390292402558     1.007825032230
         H            4.469605969843     1.087391851139     0.362768402558     1.007825032230
         H           -4.258002030157     1.619935851139     0.325723402558     1.007825032230
         H           -4.257434030157     0.985897851139    -1.328080597442     1.007825032230
         H           -5.123145030157     0.124119851139    -0.049540597442     1.007825032230

  Basis Set: AUG-CC-PVTZ
    Blend: AUG-CC-PVTZ
  Basis Set: (AUG-CC-PVTZ AUX)
    Blend: AUG-CC-PVTZ-JKFIT
	 Reference Energy          =    -821.7802907403836343 [Eh]
	 Singles Energy            =      -0.0000000000000000 [Eh]
	 Same-Spin Energy          =      -0.5012467257929343 [Eh]
	 Opposite-Spin Energy      =      -1.6491556948291541 [Eh]
	 Correlation Energy        =      -2.1504024206220884 [Eh]
	 Total Energy              =    -823.9306931610057063 [Eh]

	 ================> DF-SCS-MP2 Energies <==================
	-----------------------------------------------------------
	 SCS Same-Spin Scale       =       0.3333333333333333 [-]
	 SCS Opposite-Spin Scale   =       1.2000000000000000 [-]
	 SCS Same-Spin Energy      =      -0.1670822419309781 [Eh]
	 SCS Opposite-Spin Energy  =      -1.9789868337949850 [Eh]
	 SCS Correlation Energy    =      -2.1460690757259631 [Eh]
	 SCS Total Energy          =    -823.9263598161096525 [Eh]
	-----------------------------------------------------------

  Dipole Moment: [D]
     X:    -0.1891      Y:     3.8119      Z:    -1.5745     Total:     4.1286

*** Psi4 exiting successfully. Buy a developer a beer!
