                               Psi4 1.4a3.dev225

  ==> Input File <==

--------------------------------------------------------------------------
#psi4
#
memory 32 gb

molecule  {
0 1
  S       -0.2573260    -0.3323280     0.1419150
  O       -0.2860210    -1.5224110    -0.7288200
  O       -0.1913230    -0.4820040     1.6079470
  C        1.1077430     0.7304620    -0.3526940
  C        2.4495880     0.2623560     0.2167580
  C       -1.7119910     0.6470300    -0.2467030
  C       -2.9773330    -0.1490110     0.0593080
  C        2.8936370    -1.0771870    -0.3692660
  C        3.4979800     1.3449170    -0.0414460
  C       -4.2305000     0.6643980    -0.2524990
  H        1.1201440     0.7512950    -1.4483370
  H        0.8637990     1.7314470     0.0219200
  H        2.3201640     0.1499000     1.2996700
  H       -1.6515560     0.9087510    -1.3087410
  H       -1.6583250     1.5603790     0.3547230
  H       -2.9641430    -1.0716000    -0.5283160
  H       -2.9644700    -0.4377180     1.1148610
  H        2.9999490    -1.0007780    -1.4570900
  H        2.1808400    -1.8761700    -0.1584720
  H        3.8652790    -1.3613920     0.0461660
  H        3.6372140     1.5009250    -1.1167480
  H        3.2107350     2.3002430     0.4092550
  H        4.4622490     1.0479330     0.3817310
  H       -4.2653590     1.5804770     0.3446860
  H       -4.2647910     0.9464390    -1.3091180
  H       -5.1305020     0.0846610    -0.0305780
units angstrom
no_reorient  #important for SAPT in psi4, default
symmetry c1  #important for SAPT in psi4, default
}

set PROPERTIES_ORIGIN ["COM"]
properties('MP2/aug-cc-pvtz', properties = ['dipole'])
--------------------------------------------------------------------------

    Molecular point group: c1
  Charge       = 0
  Multiplicity = 1
  Basis Set: AUG-CC-PVTZ
    Blend: AUG-CC-PVTZ
  Basis Set: (AUG-CC-PVTZ AUX)
    Blend: AUG-CC-PVTZ-JKFIT

    Orbital Energies [Eh]
    ---------------------

    Doubly Occupied:

       1A    -92.170150     2A    -20.535515     3A    -20.534752
       4A    -11.274783     5A    -11.273710     6A    -11.246598
       7A    -11.241424     8A    -11.229648     9A    -11.226826
      10A    -11.212907    11A     -9.140629    12A     -6.825017
      13A     -6.824608    14A     -6.824416    15A     -1.425837
      16A     -1.316603    17A     -1.115751    18A     -1.096076
      19A     -1.013423    20A     -0.960528    21A     -0.937744
      22A     -0.850644    23A     -0.804940    24A     -0.778745
      25A     -0.687812    26A     -0.675775    27A     -0.663557
      28A     -0.642710    29A     -0.619257    30A     -0.605154
      31A     -0.591486    32A     -0.581073    33A     -0.568190
      34A     -0.553821    35A     -0.539691    36A     -0.528612
      37A     -0.510245    38A     -0.503028    39A     -0.495710
      40A     -0.487204    41A     -0.482418    42A     -0.475335
      43A     -0.470418    44A     -0.456363    45A     -0.418248

  @DF-RHF Final Energy:  -821.78351839565516

   => Energetics <=

    Nuclear Repulsion Energy =            707.3161581654211432
    One-Electron Energy =               -2531.3645918748256918
    Two-Electron Energy =                1002.2649153137492704
    Total Energy =                       -821.7835183956551646
  Basis Set: (AUG-CC-PVTZ AUX)
    Blend: AUG-CC-PVTZ-RI
    Molecular point group: c1

    Geometry (in Angstrom), charge = 0, multiplicity = 1:

       Center              X                  Y                   Z               Mass
    ------------   -----------------  -----------------  -----------------  -----------------
         S           -0.246735130618    -0.291240289563     0.121502043580    31.972071174400
         O           -0.275430130618    -1.481323289563    -0.749232956420    15.994914619570
         O           -0.180732130618    -0.440916289563     1.587534043580    15.994914619570
         C            1.118333869382     0.771549710437    -0.373106956420    12.000000000000
         C            2.460178869382     0.303443710437     0.196345043580    12.000000000000
         C           -1.701400130618     0.688117710437    -0.267115956420    12.000000000000
         C           -2.966742130618    -0.107923289563     0.038895043580    12.000000000000
         C            2.904227869382    -1.036099289563    -0.389678956420    12.000000000000
         C            3.508570869382     1.386004710437    -0.061858956420    12.000000000000
         C           -4.219909130618     0.705485710437    -0.272911956420    12.000000000000
         H            1.130734869382     0.792382710437    -1.468749956420     1.007825032230
         H            0.874389869382     1.772534710437     0.001507043580     1.007825032230
         H            2.330754869382     0.190987710437     1.279257043580     1.007825032230
         H           -1.640965130618     0.949838710437    -1.329153956420     1.007825032230
         H           -1.647734130618     1.601466710437     0.334310043580     1.007825032230
         H           -2.953552130618    -1.030512289563    -0.548728956420     1.007825032230
         H           -2.953879130618    -0.396630289563     1.094448043580     1.007825032230
         H            3.010539869382    -0.959690289563    -1.477502956420     1.007825032230
         H            2.191430869382    -1.835082289563    -0.178884956420     1.007825032230
         H            3.875869869382    -1.320304289563     0.025753043580     1.007825032230
         H            3.647804869382     1.542012710437    -1.137160956420     1.007825032230
         H            3.221325869382     2.341330710437     0.388842043580     1.007825032230
         H            4.472839869382     1.089020710437     0.361318043580     1.007825032230
         H           -4.254768130618     1.621564710437     0.324273043580     1.007825032230
         H           -4.254200130618     0.987526710437    -1.329530956420     1.007825032230
         H           -5.119911130618     0.125748710437    -0.050990956420     1.007825032230

  Basis Set: AUG-CC-PVTZ
    Blend: AUG-CC-PVTZ
  Basis Set: (AUG-CC-PVTZ AUX)
    Blend: AUG-CC-PVTZ-JKFIT
	 Reference Energy          =    -821.7835183956551646 [Eh]
	 Singles Energy            =      -0.0000000000000000 [Eh]
	 Same-Spin Energy          =      -0.5010440425916383 [Eh]
	 Opposite-Spin Energy      =      -1.6488849898254476 [Eh]
	 Correlation Energy        =      -2.1499290324170861 [Eh]
	 Total Energy              =    -823.9334474280722134 [Eh]

	 ================> DF-SCS-MP2 Energies <==================
	-----------------------------------------------------------
	 SCS Same-Spin Scale       =       0.3333333333333333 [-]
	 SCS Opposite-Spin Scale   =       1.2000000000000000 [-]
	 SCS Same-Spin Energy      =      -0.1670146808638794 [Eh]
	 SCS Opposite-Spin Energy  =      -1.9786619877905371 [Eh]
	 SCS Correlation Energy    =      -2.1456766686544166 [Eh]
	 SCS Total Energy          =    -823.9291950643096243 [Eh]
	-----------------------------------------------------------

  Dipole Moment: [D]
     X:    -0.2031      Y:     3.7990      Z:    -1.5746     Total:     4.1174

*** Psi4 exiting successfully. Buy a developer a beer!
