                               Psi4 1.4a3.dev225

  ==> Input File <==

--------------------------------------------------------------------------
#psi4
#
memory 32 gb

molecule  {
0 1
  S       -0.2573260    -0.3323280     0.1419150
  O       -0.2860210    -1.5224110    -0.7288200
  O       -0.1913230    -0.4820040     1.6079470
  C        1.1077430     0.7304620    -0.3526940
  C        2.4495880     0.2623560     0.2167580
  C       -1.7119910     0.6470300    -0.2467030
  C       -2.9773330    -0.1490110     0.0593080
  C        2.8710373    -1.0882693    -0.3604515
  C        3.4979800     1.3449170    -0.0414460
  C       -4.2305000     0.6643980    -0.2524990
  H        1.1201440     0.7512950    -1.4483370
  H        0.8637990     1.7314470     0.0219200
  H        2.3201640     0.1499000     1.2996700
  H       -1.6515560     0.9087510    -1.3087410
  H       -1.6583250     1.5603790     0.3547230
  H       -2.9641430    -1.0716000    -0.5283160
  H       -2.9644700    -0.4377180     1.1148610
  H        2.9999490    -1.0007780    -1.4570900
  H        2.1808400    -1.8761700    -0.1584720
  H        3.8652790    -1.3613920     0.0461660
  H        3.6372140     1.5009250    -1.1167480
  H        3.2107350     2.3002430     0.4092550
  H        4.4622490     1.0479330     0.3817310
  H       -4.2653590     1.5804770     0.3446860
  H       -4.2647910     0.9464390    -1.3091180
  H       -5.1305020     0.0846610    -0.0305780
units angstrom
no_reorient  #important for SAPT in psi4, default
symmetry c1  #important for SAPT in psi4, default
}

set PROPERTIES_ORIGIN ["COM"]
properties('MP2/aug-cc-pvtz', properties = ['dipole'])
--------------------------------------------------------------------------

    Molecular point group: c1
  Charge       = 0
  Multiplicity = 1
  Basis Set: AUG-CC-PVTZ
    Blend: AUG-CC-PVTZ
  Basis Set: (AUG-CC-PVTZ AUX)
    Blend: AUG-CC-PVTZ-JKFIT

    Orbital Energies [Eh]
    ---------------------

    Doubly Occupied:

       1A    -92.170161     2A    -20.535551     3A    -20.534826
       4A    -11.274784     5A    -11.273415     6A    -11.246772
       7A    -11.241430     8A    -11.229653     9A    -11.227412
      10A    -11.213317    11A     -9.140646    12A     -6.825033
      13A     -6.824625    14A     -6.824434    15A     -1.425905
      16A     -1.316670    17A     -1.115784    18A     -1.096085
      19A     -1.013195    20A     -0.960309    21A     -0.938703
      22A     -0.850548    23A     -0.804902    24A     -0.778645
      25A     -0.688006    26A     -0.675762    27A     -0.663300
      28A     -0.643000    29A     -0.619039    30A     -0.606606
      31A     -0.591511    32A     -0.581567    33A     -0.568199
      34A     -0.554189    35A     -0.537347    36A     -0.527999
      37A     -0.510159    38A     -0.505338    39A     -0.496051
      40A     -0.486190    41A     -0.482318    42A     -0.474615
      43A     -0.470949    44A     -0.456411    45A     -0.418575

  @DF-RHF Final Energy:  -821.78267940768137

   => Energetics <=

    Nuclear Repulsion Energy =            707.5184337977025280
    One-Electron Energy =               -2531.7623495437824204
    Two-Electron Energy =                1002.4612363383985212
    Total Energy =                       -821.7826794076813712
  Basis Set: (AUG-CC-PVTZ AUX)
    Blend: AUG-CC-PVTZ-RI
    Molecular point group: c1

    Geometry (in Angstrom), charge = 0, multiplicity = 1:

       Center              X                  Y                   Z               Mass
    ------------   -----------------  -----------------  -----------------  -----------------
         S           -0.245082371819    -0.290429820006     0.120857422526    31.972071174400
         O           -0.273777371819    -1.480512820006    -0.749877577474    15.994914619570
         O           -0.179079371819    -0.440105820006     1.586889422526    15.994914619570
         C            1.119986628181     0.772360179994    -0.373751577474    12.000000000000
         C            2.461831628181     0.304254179994     0.195700422526    12.000000000000
         C           -1.699747371819     0.688928179994    -0.267760577474    12.000000000000
         C           -2.965089371819    -0.107112820006     0.038250422526    12.000000000000
         C            2.883280928181    -1.046371120006    -0.381509077474    12.000000000000
         C            3.510223628181     1.386815179994    -0.062503577474    12.000000000000
         C           -4.218256371819     0.706296179994    -0.273556577474    12.000000000000
         H            1.132387628181     0.793193179994    -1.469394577474     1.007825032230
         H            0.876042628181     1.773345179994     0.000862422526     1.007825032230
         H            2.332407628181     0.191798179994     1.278612422526     1.007825032230
         H           -1.639312371819     0.950649179994    -1.329798577474     1.007825032230
         H           -1.646081371819     1.602277179994     0.333665422526     1.007825032230
         H           -2.951899371819    -1.029701820006    -0.549373577474     1.007825032230
         H           -2.952226371819    -0.395819820006     1.093803422526     1.007825032230
         H            3.012192628181    -0.958879820006    -1.478147577474     1.007825032230
         H            2.193083628181    -1.834271820006    -0.179529577474     1.007825032230
         H            3.877522628181    -1.319493820006     0.025108422526     1.007825032230
         H            3.649457628181     1.542823179994    -1.137805577474     1.007825032230
         H            3.222978628181     2.342141179994     0.388197422526     1.007825032230
         H            4.474492628181     1.089831179994     0.360673422526     1.007825032230
         H           -4.253115371819     1.622375179994     0.323628422526     1.007825032230
         H           -4.252547371819     0.988337179994    -1.330175577474     1.007825032230
         H           -5.118258371819     0.126559179994    -0.051635577474     1.007825032230

  Basis Set: AUG-CC-PVTZ
    Blend: AUG-CC-PVTZ
  Basis Set: (AUG-CC-PVTZ AUX)
    Blend: AUG-CC-PVTZ-JKFIT
	 Reference Energy          =    -821.7826794076813712 [Eh]
	 Singles Energy            =      -0.0000000000000000 [Eh]
	 Same-Spin Energy          =      -0.5010527026107000 [Eh]
	 Opposite-Spin Energy      =      -1.6489250245213707 [Eh]
	 Correlation Energy        =      -2.1499777271320708 [Eh]
	 Total Energy              =    -823.9326571348134394 [Eh]

	 ================> DF-SCS-MP2 Energies <==================
	-----------------------------------------------------------
	 SCS Same-Spin Scale       =       0.3333333333333333 [-]
	 SCS Opposite-Spin Scale   =       1.2000000000000000 [-]
	 SCS Same-Spin Energy      =      -0.1670175675369000 [Eh]
	 SCS Opposite-Spin Energy  =      -1.9787100294256448 [Eh]
	 SCS Correlation Energy    =      -2.1457275969625447 [Eh]
	 SCS Total Energy          =    -823.9284070046438728 [Eh]
	-----------------------------------------------------------

  Dipole Moment: [D]
     X:    -0.2020      Y:     3.8071      Z:    -1.5693     Total:     4.1228

*** Psi4 exiting successfully. Buy a developer a beer!
