                               Psi4 1.4a3.dev225

  ==> Input File <==

--------------------------------------------------------------------------
#psi4
#
memory 32 gb

molecule  {
0 1
  S       -0.2573260    -0.3323280     0.1419150
  O       -0.2860210    -1.5224110    -0.7288200
  O       -0.1913230    -0.4820040     1.6079470
  C        1.1077430     0.7304620    -0.3526940
  C        2.4495880     0.2623560     0.2167580
  C       -1.7119910     0.6470300    -0.2467030
  C       -3.1431801    -0.2533473     0.0994165
  C        2.8936370    -1.0771870    -0.3692660
  C        3.4979800     1.3449170    -0.0414460
  C       -4.2305000     0.6643980    -0.2524990
  H        1.1201440     0.7512950    -1.4483370
  H        0.8637990     1.7314470     0.0219200
  H        2.3201640     0.1499000     1.2996700
  H       -1.6515560     0.9087510    -1.3087410
  H       -1.6583250     1.5603790     0.3547230
  H       -2.9641430    -1.0716000    -0.5283160
  H       -2.9644700    -0.4377180     1.1148610
  H        2.9999490    -1.0007780    -1.4570900
  H        2.1808400    -1.8761700    -0.1584720
  H        3.8652790    -1.3613920     0.0461660
  H        3.6372140     1.5009250    -1.1167480
  H        3.2107350     2.3002430     0.4092550
  H        4.4622490     1.0479330     0.3817310
  H       -4.2653590     1.5804770     0.3446860
  H       -4.2647910     0.9464390    -1.3091180
  H       -5.1305020     0.0846610    -0.0305780
units angstrom
no_reorient  #important for SAPT in psi4, default
symmetry c1  #important for SAPT in psi4, default
}

set PROPERTIES_ORIGIN ["COM"]
properties('MP2/aug-cc-pvtz', properties = ['dipole'])
--------------------------------------------------------------------------

    Molecular point group: c1
  Charge       = 0
  Multiplicity = 1
  Basis Set: AUG-CC-PVTZ
    Blend: AUG-CC-PVTZ
  Basis Set: (AUG-CC-PVTZ AUX)
    Blend: AUG-CC-PVTZ-JKFIT

    Orbital Energies [Eh]
    ---------------------

    Doubly Occupied:

       1A    -92.166898     2A    -20.532696     3A    -20.531943
       4A    -11.273008     5A    -11.270670     6A    -11.249859
       7A    -11.244425     8A    -11.230796     9A    -11.225211
      10A    -11.211329    11A     -9.137141    12A     -6.821507
      13A     -6.821148    14A     -6.821001    15A     -1.422665
      16A     -1.313948    17A     -1.112561    18A     -1.084140
      19A     -1.018051    20A     -0.957479    21A     -0.936086
      22A     -0.853308    23A     -0.807128    24A     -0.775672
      25A     -0.681479    26A     -0.673246    27A     -0.661245
      28A     -0.641693    29A     -0.620572    30A     -0.602770
      31A     -0.589932    32A     -0.579618    33A     -0.571460
      34A     -0.560305    35A     -0.548679    36A     -0.536606
      37A     -0.519061    38A     -0.503830    39A     -0.488827
      40A     -0.480777    41A     -0.475421    42A     -0.470228
      43A     -0.454741    44A     -0.454012    45A     -0.408767

  @DF-RHF Final Energy:  -821.75575738598991

   => Energetics <=

    Nuclear Repulsion Energy =            704.3462868684065370
    One-Electron Energy =               -2525.5202142208368059
    Two-Electron Energy =                 999.4181699664404732
    Total Energy =                       -821.7557573859899094
  Basis Set: (AUG-CC-PVTZ AUX)
    Blend: AUG-CC-PVTZ-RI
    Molecular point group: c1

    Geometry (in Angstrom), charge = 0, multiplicity = 1:

       Center              X                  Y                   Z               Mass
    ------------   -----------------  -----------------  -----------------  -----------------
         S           -0.234606418558    -0.283609978631     0.118568833125    31.972071174400
         O           -0.263301418558    -1.473692978631    -0.752166166875    15.994914619570
         O           -0.168603418558    -0.433285978631     1.584600833125    15.994914619570
         C            1.130462581442     0.779180021369    -0.376040166875    12.000000000000
         C            2.472307581442     0.311074021369     0.193411833125    12.000000000000
         C           -1.689271418558     0.695748021369    -0.270049166875    12.000000000000
         C           -3.120460518558    -0.204629278631     0.076070333125    12.000000000000
         C            2.916356581442    -1.028468978631    -0.392612166875    12.000000000000
         C            3.520699581442     1.393635021369    -0.064792166875    12.000000000000
         C           -4.207780418558     0.713116021369    -0.275845166875    12.000000000000
         H            1.142863581442     0.800013021369    -1.471683166875     1.007825032230
         H            0.886518581442     1.780165021369    -0.001426166875     1.007825032230
         H            2.342883581442     0.198618021369     1.276323833125     1.007825032230
         H           -1.628836418558     0.957469021369    -1.332087166875     1.007825032230
         H           -1.635605418558     1.609097021369     0.331376833125     1.007825032230
         H           -2.941423418558    -1.022881978631    -0.551662166875     1.007825032230
         H           -2.941750418558    -0.388999978631     1.091514833125     1.007825032230
         H            3.022668581442    -0.952059978631    -1.480436166875     1.007825032230
         H            2.203559581442    -1.827451978631    -0.181818166875     1.007825032230
         H            3.887998581442    -1.312673978631     0.022819833125     1.007825032230
         H            3.659933581442     1.549643021369    -1.140094166875     1.007825032230
         H            3.233454581442     2.348961021369     0.385908833125     1.007825032230
         H            4.484968581442     1.096651021369     0.358384833125     1.007825032230
         H           -4.242639418558     1.629195021369     0.321339833125     1.007825032230
         H           -4.242071418558     0.995157021369    -1.332464166875     1.007825032230
         H           -5.107782418558     0.133379021369    -0.053924166875     1.007825032230

  Basis Set: AUG-CC-PVTZ
    Blend: AUG-CC-PVTZ
  Basis Set: (AUG-CC-PVTZ AUX)
    Blend: AUG-CC-PVTZ-JKFIT
	 Reference Energy          =    -821.7557573859899094 [Eh]
	 Singles Energy            =      -0.0000000000000000 [Eh]
	 Same-Spin Energy          =      -0.5013548650739830 [Eh]
	 Opposite-Spin Energy      =      -1.6501249668857225 [Eh]
	 Correlation Energy        =      -2.1514798319597057 [Eh]
	 Total Energy              =    -823.9072372179496142 [Eh]

	 ================> DF-SCS-MP2 Energies <==================
	-----------------------------------------------------------
	 SCS Same-Spin Scale       =       0.3333333333333333 [-]
	 SCS Opposite-Spin Scale   =       1.2000000000000000 [-]
	 SCS Same-Spin Energy      =      -0.1671182883579943 [Eh]
	 SCS Opposite-Spin Energy  =      -1.9801499602628669 [Eh]
	 SCS Correlation Energy    =      -2.1472682486208612 [Eh]
	 SCS Total Energy          =    -823.9030256346107990 [Eh]
	-----------------------------------------------------------

  Dipole Moment: [D]
     X:    -0.5133      Y:     3.8024      Z:    -1.5741     Total:     4.1472

*** Psi4 exiting successfully. Buy a developer a beer!
