                               Psi4 1.4a3.dev225

  ==> Input File <==

--------------------------------------------------------------------------
#psi4
#
memory 32 gb

molecule  {
0 1
  S       -0.2573260    -0.3323280     0.1419150
  O       -0.2860210    -1.5224110    -0.7288200
  O       -0.1913230    -0.4820040     1.6079470
  C        1.1077430     0.7304620    -0.3526940
  C        2.4059089     0.2384510     0.2358761
  C       -1.7119910     0.6470300    -0.2467030
  C       -2.9773330    -0.1490110     0.0593080
  C        2.8936370    -1.0771870    -0.3692660
  C        3.4979800     1.3449170    -0.0414460
  C       -4.2305000     0.6643980    -0.2524990
  H        1.1201440     0.7512950    -1.4483370
  H        0.8637990     1.7314470     0.0219200
  H        2.3201640     0.1499000     1.2996700
  H       -1.6515560     0.9087510    -1.3087410
  H       -1.6583250     1.5603790     0.3547230
  H       -2.9641430    -1.0716000    -0.5283160
  H       -2.9644700    -0.4377180     1.1148610
  H        2.9999490    -1.0007780    -1.4570900
  H        2.1808400    -1.8761700    -0.1584720
  H        3.8652790    -1.3613920     0.0461660
  H        3.6372140     1.5009250    -1.1167480
  H        3.2107350     2.3002430     0.4092550
  H        4.4622490     1.0479330     0.3817310
  H       -4.2653590     1.5804770     0.3446860
  H       -4.2647910     0.9464390    -1.3091180
  H       -5.1305020     0.0846610    -0.0305780
units angstrom
no_reorient  #important for SAPT in psi4, default
symmetry c1  #important for SAPT in psi4, default
}

set PROPERTIES_ORIGIN ["COM"]
properties('MP2/aug-cc-pvtz', properties = ['dipole'])
--------------------------------------------------------------------------

    Molecular point group: c1
  Charge       = 0
  Multiplicity = 1
  Basis Set: AUG-CC-PVTZ
    Blend: AUG-CC-PVTZ
  Basis Set: (AUG-CC-PVTZ AUX)
    Blend: AUG-CC-PVTZ-JKFIT

    Orbital Energies [Eh]
    ---------------------

    Doubly Occupied:

       1A    -92.169545     2A    -20.535874     3A    -20.534917
       4A    -11.274469     5A    -11.274318     6A    -11.245584
       7A    -11.241254     8A    -11.229529     9A    -11.227951
      10A    -11.212975    11A     -9.140193    12A     -6.824598
      13A     -6.824122    14A     -6.823967    15A     -1.426136
      16A     -1.316845    17A     -1.116257    18A     -1.095669
      19A     -1.011598    20A     -0.960140    21A     -0.934281
      22A     -0.851529    23A     -0.806222    24A     -0.782280
      25A     -0.688008    26A     -0.676253    27A     -0.664761
      28A     -0.642651    29A     -0.619765    30A     -0.602559
      31A     -0.591220    32A     -0.580158    33A     -0.568127
      34A     -0.551508    35A     -0.539844    36A     -0.528742
      37A     -0.510985    38A     -0.500993    39A     -0.496909
      40A     -0.491824    41A     -0.485255    42A     -0.477107
      43A     -0.465729    44A     -0.456678    45A     -0.415180

  @DF-RHF Final Energy:  -821.78100709598584

   => Energetics <=

    Nuclear Repulsion Energy =            707.7735962376910948
    One-Electron Energy =               -2532.2801863760828383
    Two-Electron Energy =                1002.7255830424060150
    Total Energy =                       -821.7810070959858422
  Basis Set: (AUG-CC-PVTZ AUX)
    Blend: AUG-CC-PVTZ-RI
    Molecular point group: c1

    Geometry (in Angstrom), charge = 0, multiplicity = 1:

       Center              X                  Y                   Z               Mass
    ------------   -----------------  -----------------  -----------------  -----------------
         S           -0.243540795433    -0.289492071706     0.120103900773    31.972071174400
         O           -0.272235795433    -1.479575071706    -0.750631099227    15.994914619570
         O           -0.177537795433    -0.439168071706     1.586135900773    15.994914619570
         C            1.121528204567     0.773297928294    -0.374505099227    12.000000000000
         C            2.419694104567     0.281286928294     0.214065000773    12.000000000000
         C           -1.698205795433     0.689865928294    -0.268514099227    12.000000000000
         C           -2.963547795433    -0.106175071706     0.037496900773    12.000000000000
         C            2.907422204567    -1.034351071706    -0.391077099227    12.000000000000
         C            3.511765204567     1.387752928294    -0.063257099227    12.000000000000
         C           -4.216714795433     0.707233928294    -0.274310099227    12.000000000000
         H            1.133929204567     0.794130928294    -1.470148099227     1.007825032230
         H            0.877584204567     1.774282928294     0.000108900773     1.007825032230
         H            2.333949204567     0.192735928294     1.277858900773     1.007825032230
         H           -1.637770795433     0.951586928294    -1.330552099227     1.007825032230
         H           -1.644539795433     1.603214928294     0.332911900773     1.007825032230
         H           -2.950357795433    -1.028764071706    -0.550127099227     1.007825032230
         H           -2.950684795433    -0.394882071706     1.093049900773     1.007825032230
         H            3.013734204567    -0.957942071706    -1.478901099227     1.007825032230
         H            2.194625204567    -1.833334071706    -0.180283099227     1.007825032230
         H            3.879064204567    -1.318556071706     0.024354900773     1.007825032230
         H            3.650999204567     1.543760928294    -1.138559099227     1.007825032230
         H            3.224520204567     2.343078928294     0.387443900773     1.007825032230
         H            4.476034204567     1.090768928294     0.359919900773     1.007825032230
         H           -4.251573795433     1.623312928294     0.322874900773     1.007825032230
         H           -4.251005795433     0.989274928294    -1.330929099227     1.007825032230
         H           -5.116716795433     0.127496928294    -0.052389099227     1.007825032230

  Basis Set: AUG-CC-PVTZ
    Blend: AUG-CC-PVTZ
  Basis Set: (AUG-CC-PVTZ AUX)
    Blend: AUG-CC-PVTZ-JKFIT
	 Reference Energy          =    -821.7810070959858422 [Eh]
	 Singles Energy            =      -0.0000000000000000 [Eh]
	 Same-Spin Energy          =      -0.5010806688524907 [Eh]
	 Opposite-Spin Energy      =      -1.6490558026686357 [Eh]
	 Correlation Energy        =      -2.1501364715211264 [Eh]
	 Total Energy              =    -823.9311435675069788 [Eh]

	 ================> DF-SCS-MP2 Energies <==================
	-----------------------------------------------------------
	 SCS Same-Spin Scale       =       0.3333333333333333 [-]
	 SCS Opposite-Spin Scale   =       1.2000000000000000 [-]
	 SCS Same-Spin Energy      =      -0.1670268896174969 [Eh]
	 SCS Opposite-Spin Energy  =      -1.9788669632023628 [Eh]
	 SCS Correlation Energy    =      -2.1458938528198597 [Eh]
	 SCS Total Energy          =    -823.9269009488057236 [Eh]
	-----------------------------------------------------------

  Dipole Moment: [D]
     X:    -0.2089      Y:     3.7856      Z:    -1.5763     Total:     4.1060

*** Psi4 exiting successfully. Buy a developer a beer!
