                               Psi4 1.4a3.dev225

  ==> Input File <==

--------------------------------------------------------------------------
#psi4
#
memory 32 gb

molecule  {
0 1
  S       -0.2573260    -0.3323280     0.1419150
  O       -0.2860210    -1.5224110    -0.7288200
  O       -0.1913230    -0.4820040     1.6079470
  C        1.1077430     0.7304620    -0.3526940
  C        2.4495880     0.2623560     0.2167580
  C       -1.7119910     0.6470300    -0.2467030
  C       -2.9773330    -0.1490110     0.0593080
  C        2.8936370    -1.0771870    -0.3692660
  C        3.4979800     1.3449170    -0.0414460
  C       -4.2305000     0.6643980    -0.2524990
  H        1.1201440     0.7512950    -1.4483370
  H        0.8637990     1.7314470     0.0219200
  H        2.3201640     0.1499000     1.2996700
  H       -1.6515560     0.9087510    -1.3087410
  H       -1.6583250     1.5603790     0.3547230
  H       -2.9641430    -1.0716000    -0.5283160
  H       -2.9644700    -0.4377180     1.1148610
  H        2.9999490    -1.0007780    -1.4570900
  H        2.3114753    -1.7297393    -0.1971045
  H        3.8652790    -1.3613920     0.0461660
  H        3.6372140     1.5009250    -1.1167480
  H        3.2107350     2.3002430     0.4092550
  H        4.4622490     1.0479330     0.3817310
  H       -4.2653590     1.5804770     0.3446860
  H       -4.2647910     0.9464390    -1.3091180
  H       -5.1305020     0.0846610    -0.0305780
units angstrom
no_reorient  #important for SAPT in psi4, default
symmetry c1  #important for SAPT in psi4, default
}

set PROPERTIES_ORIGIN ["COM"]
properties('MP2/aug-cc-pvtz', properties = ['dipole'])
--------------------------------------------------------------------------

    Molecular point group: c1
  Charge       = 0
  Multiplicity = 1
  Basis Set: AUG-CC-PVTZ
    Blend: AUG-CC-PVTZ
  Basis Set: (AUG-CC-PVTZ AUX)
    Blend: AUG-CC-PVTZ-JKFIT

    Orbital Energies [Eh]
    ---------------------

    Doubly Occupied:

       1A    -92.170322     2A    -20.535771     3A    -20.535411
       4A    -11.274882     5A    -11.273661     6A    -11.245600
       7A    -11.241518     8A    -11.229713     9A    -11.225932
      10A    -11.190069    11A     -9.140810    12A     -6.825198
      13A     -6.824787    14A     -6.824600    15A     -1.426115
      16A     -1.316894    17A     -1.117662    18A     -1.096626
      19A     -1.015680    20A     -0.964002    21A     -0.954272
      22A     -0.851748    23A     -0.806840    24A     -0.781943
      25A     -0.688752    26A     -0.676794    27A     -0.664180
      28A     -0.647237    29A     -0.623629    30A     -0.616465
      31A     -0.591746    32A     -0.584856    33A     -0.568311
      34A     -0.555487    35A     -0.539833    36A     -0.532290
      37A     -0.512282    38A     -0.507307    39A     -0.496814
      40A     -0.487954    41A     -0.483716    42A     -0.475824
      43A     -0.471701    44A     -0.456621    45A     -0.419635

  @DF-RHF Final Energy:  -821.74916672514121

   => Energetics <=

    Nuclear Repulsion Energy =            708.1004055105544239
    One-Electron Energy =               -2532.7561613031643901
    Two-Electron Energy =                1002.9065890674686443
    Total Energy =                       -821.7491667251412082
  Basis Set: (AUG-CC-PVTZ AUX)
    Blend: AUG-CC-PVTZ-RI
    Molecular point group: c1

    Geometry (in Angstrom), charge = 0, multiplicity = 1:

       Center              X                  Y                   Z               Mass
    ------------   -----------------  -----------------  -----------------  -----------------
         S           -0.247537494270    -0.292139668759     0.121739324880    31.972071174400
         O           -0.276232494270    -1.482222668759    -0.748995675120    15.994914619570
         O           -0.181534494270    -0.441815668759     1.587771324880    15.994914619570
         C            1.117531505730     0.770650331241    -0.372869675120    12.000000000000
         C            2.459376505730     0.302544331241     0.196582324880    12.000000000000
         C           -1.702202494270     0.687218331241    -0.266878675120    12.000000000000
         C           -2.967544494270    -0.108822668759     0.039132324880    12.000000000000
         C            2.903425505730    -1.036998668759    -0.389441675120    12.000000000000
         C            3.507768505730     1.385105331241    -0.061621675120    12.000000000000
         C           -4.220711494270     0.704586331241    -0.272674675120    12.000000000000
         H            1.129932505730     0.791483331241    -1.468512675120     1.007825032230
         H            0.873587505730     1.771635331241     0.001744324880     1.007825032230
         H            2.329952505730     0.190088331241     1.279494324880     1.007825032230
         H           -1.641767494270     0.948939331241    -1.328916675120     1.007825032230
         H           -1.648536494270     1.600567331241     0.334547324880     1.007825032230
         H           -2.954354494270    -1.031411668759    -0.548491675120     1.007825032230
         H           -2.954681494270    -0.397529668759     1.094685324880     1.007825032230
         H            3.009737505730    -0.960589668759    -1.477265675120     1.007825032230
         H            2.321263805730    -1.689550968759    -0.217280175120     1.007825032230
         H            3.875067505730    -1.321203668759     0.025990324880     1.007825032230
         H            3.647002505730     1.541113331241    -1.136923675120     1.007825032230
         H            3.220523505730     2.340431331241     0.389079324880     1.007825032230
         H            4.472037505730     1.088121331241     0.361555324880     1.007825032230
         H           -4.255570494270     1.620665331241     0.324510324880     1.007825032230
         H           -4.255002494270     0.986627331241    -1.329293675120     1.007825032230
         H           -5.120713494270     0.124849331241    -0.050753675120     1.007825032230

  Basis Set: AUG-CC-PVTZ
    Blend: AUG-CC-PVTZ
  Basis Set: (AUG-CC-PVTZ AUX)
    Blend: AUG-CC-PVTZ-JKFIT
	 Reference Energy          =    -821.7491667251412082 [Eh]
	 Singles Energy            =      -0.0000000000000000 [Eh]
	 Same-Spin Energy          =      -0.5008946144725985 [Eh]
	 Opposite-Spin Energy      =      -1.6480386240515394 [Eh]
	 Correlation Energy        =      -2.1489332385241378 [Eh]
	 Total Energy              =    -823.8980999636653451 [Eh]

	 ================> DF-SCS-MP2 Energies <==================
	-----------------------------------------------------------
	 SCS Same-Spin Scale       =       0.3333333333333333 [-]
	 SCS Opposite-Spin Scale   =       1.2000000000000000 [-]
	 SCS Same-Spin Energy      =      -0.1669648714908662 [Eh]
	 SCS Opposite-Spin Energy  =      -1.9776463488618472 [Eh]
	 SCS Correlation Energy    =      -2.1446112203527132 [Eh]
	 SCS Total Energy          =    -823.8937779454938664 [Eh]
	-----------------------------------------------------------

  Dipole Moment: [D]
     X:    -0.2068      Y:     3.7585      Z:    -1.5715     Total:     4.0791

*** Psi4 exiting successfully. Buy a developer a beer!
