                               Psi4 1.4a3.dev225

  ==> Input File <==

--------------------------------------------------------------------------
#psi4
#
memory 32 gb

molecule  {
0 1
  S       -0.2573260    -0.3323280     0.1419150
  O       -0.2860210    -1.5224110    -0.7288200
  O       -0.1913230    -0.4820040     1.6079470
  C        1.1077430     0.7304620    -0.3526940
  C        2.4495880     0.2623560     0.2167580
  C       -1.7119910     0.6470300    -0.2467030
  C       -2.9773330    -0.1490110     0.0593080
  C        2.8936370    -1.0771870    -0.3692660
  C        3.4979800     1.3449170    -0.0414460
  C       -4.2305000     0.6643980    -0.2524990
  H        1.1201440     0.7512950    -1.4483370
  H        0.8637990     1.7314470     0.0219200
  H        2.3201640     0.1499000     1.2996700
  H       -1.6515560     0.9087510    -1.3087410
  H       -1.6583250     1.5603790     0.3547230
  H       -2.9641430    -1.0716000    -0.5283160
  H       -2.9644700    -0.4377180     1.1148610
  H        3.0124564    -0.9865118    -1.4546975
  H        2.1808400    -1.8761700    -0.1584720
  H        3.8652790    -1.3613920     0.0461660
  H        3.6372140     1.5009250    -1.1167480
  H        3.2107350     2.3002430     0.4092550
  H        4.4622490     1.0479330     0.3817310
  H       -4.2653590     1.5804770     0.3446860
  H       -4.2647910     0.9464390    -1.3091180
  H       -5.1305020     0.0846610    -0.0305780
units angstrom
no_reorient  #important for SAPT in psi4, default
symmetry c1  #important for SAPT in psi4, default
}

set PROPERTIES_ORIGIN ["COM"]
properties('MP2/aug-cc-pvtz', properties = ['dipole'])
--------------------------------------------------------------------------

    Molecular point group: c1
  Charge       = 0
  Multiplicity = 1
  Basis Set: AUG-CC-PVTZ
    Blend: AUG-CC-PVTZ
  Basis Set: (AUG-CC-PVTZ AUX)
    Blend: AUG-CC-PVTZ-JKFIT

    Orbital Energies [Eh]
    ---------------------

    Doubly Occupied:

       1A    -92.170141     2A    -20.535518     3A    -20.534740
       4A    -11.274774     5A    -11.273689     6A    -11.246474
       7A    -11.241418     8A    -11.229643     9A    -11.226860
      10A    -11.212983    11A     -9.140621    12A     -6.825009
      13A     -6.824600    14A     -6.824409    15A     -1.425833
      16A     -1.316598    17A     -1.115788    18A     -1.096080
      19A     -1.013456    20A     -0.960549    21A     -0.937703
      22A     -0.850642    23A     -0.804910    24A     -0.778637
      25A     -0.687865    26A     -0.675773    27A     -0.663573
      28A     -0.642651    29A     -0.619309    30A     -0.604957
      31A     -0.591501    32A     -0.581544    33A     -0.568185
      34A     -0.553942    35A     -0.539478    36A     -0.528566
      37A     -0.510240    38A     -0.503181    39A     -0.495753
      40A     -0.487356    41A     -0.481954    42A     -0.475333
      43A     -0.470561    44A     -0.456353    45A     -0.418235

  @DF-RHF Final Energy:  -821.78346533991612

   => Energetics <=

    Nuclear Repulsion Energy =            707.3163897266841786
    One-Electron Energy =               -2531.3649316723949596
    Two-Electron Energy =                1002.2650766057947749
    Total Energy =                       -821.7834653399161198
  Basis Set: (AUG-CC-PVTZ AUX)
    Blend: AUG-CC-PVTZ-RI
    Molecular point group: c1

    Geometry (in Angstrom), charge = 0, multiplicity = 1:

       Center              X                  Y                   Z               Mass
    ------------   -----------------  -----------------  -----------------  -----------------
         S           -0.246811951226    -0.291327912743     0.121487348815    31.972071174400
         O           -0.275506951226    -1.481410912743    -0.749247651185    15.994914619570
         O           -0.180808951226    -0.441003912743     1.587519348815    15.994914619570
         C            1.118257048774     0.771462087257    -0.373121651185    12.000000000000
         C            2.460102048774     0.303356087257     0.196330348815    12.000000000000
         C           -1.701476951226     0.688030087257    -0.267130651185    12.000000000000
         C           -2.966818951226    -0.108010912743     0.038880348815    12.000000000000
         C            2.904151048774    -1.036186912743    -0.389693651185    12.000000000000
         C            3.508494048774     1.385917087257    -0.061873651185    12.000000000000
         C           -4.219985951226     0.705398087257    -0.272926651185    12.000000000000
         H            1.130658048774     0.792295087257    -1.468764651185     1.007825032230
         H            0.874313048774     1.772447087257     0.001492348815     1.007825032230
         H            2.330678048774     0.190900087257     1.279242348815     1.007825032230
         H           -1.641041951226     0.949751087257    -1.329168651185     1.007825032230
         H           -1.647810951226     1.601379087257     0.334295348815     1.007825032230
         H           -2.953628951226    -1.030599912743    -0.548743651185     1.007825032230
         H           -2.953955951226    -0.396717912743     1.094433348815     1.007825032230
         H            3.022970448774    -0.945511712743    -1.475125151185     1.007825032230
         H            2.191354048774    -1.835169912743    -0.178899651185     1.007825032230
         H            3.875793048774    -1.320391912743     0.025738348815     1.007825032230
         H            3.647728048774     1.541925087257    -1.137175651185     1.007825032230
         H            3.221249048774     2.341243087257     0.388827348815     1.007825032230
         H            4.472763048774     1.088933087257     0.361303348815     1.007825032230
         H           -4.254844951226     1.621477087257     0.324258348815     1.007825032230
         H           -4.254276951226     0.987439087257    -1.329545651185     1.007825032230
         H           -5.119987951226     0.125661087257    -0.051005651185     1.007825032230

  Basis Set: AUG-CC-PVTZ
    Blend: AUG-CC-PVTZ
  Basis Set: (AUG-CC-PVTZ AUX)
    Blend: AUG-CC-PVTZ-JKFIT
	 Reference Energy          =    -821.7834653399161198 [Eh]
	 Singles Energy            =      -0.0000000000000000 [Eh]
	 Same-Spin Energy          =      -0.5010543352543397 [Eh]
	 Opposite-Spin Energy      =      -1.6489031132992755 [Eh]
	 Correlation Energy        =      -2.1499574485536153 [Eh]
	 Total Energy              =    -823.9334227884697839 [Eh]

	 ================> DF-SCS-MP2 Energies <==================
	-----------------------------------------------------------
	 SCS Same-Spin Scale       =       0.3333333333333333 [-]
	 SCS Opposite-Spin Scale   =       1.2000000000000000 [-]
	 SCS Same-Spin Energy      =      -0.1670181117514466 [Eh]
	 SCS Opposite-Spin Energy  =      -1.9786837359591305 [Eh]
	 SCS Correlation Energy    =      -2.1457018477105771 [Eh]
	 SCS Total Energy          =    -823.9291671876267174 [Eh]
	-----------------------------------------------------------

  Dipole Moment: [D]
     X:    -0.1989      Y:     3.8020      Z:    -1.5722     Total:     4.1190

*** Psi4 exiting successfully. Buy a developer a beer!
