                               Psi4 1.4a3.dev225

  ==> Input File <==

--------------------------------------------------------------------------
#psi4
#
memory 32 gb

molecule  {
0 1
  S       -0.2573260    -0.3323280     0.1419150
  O       -0.2860210    -1.5224110    -0.7288200
  O       -0.1913230    -0.4820040     1.6079470
  C        1.1077430     0.7304620    -0.3526940
  C        2.4495880     0.2623560     0.2167580
  C       -1.7119910     0.6470300    -0.2467030
  C       -2.9773330    -0.1490110     0.0593080
  C        2.8936370    -1.0771870    -0.3692660
  C        3.4979800     1.3449170    -0.0414460
  C       -4.2305000     0.6643980    -0.2524990
  H        1.1201440     0.7512950    -1.4483370
  H        0.8637990     1.7314470     0.0219200
  H        2.3201640     0.1499000     1.2996700
  H       -1.6515560     0.9087510    -1.3087410
  H       -1.6583250     1.5603790     0.3547230
  H       -2.9641430    -1.0716000    -0.5283160
  H       -2.9644700    -0.4377180     1.1148610
  H        3.0367878    -1.0104004    -1.4534934
  H        2.1808400    -1.8761700    -0.1584720
  H        3.8652790    -1.3613920     0.0461660
  H        3.6372140     1.5009250    -1.1167480
  H        3.2107350     2.3002430     0.4092550
  H        4.4622490     1.0479330     0.3817310
  H       -4.2653590     1.5804770     0.3446860
  H       -4.2647910     0.9464390    -1.3091180
  H       -5.1305020     0.0846610    -0.0305780
units angstrom
no_reorient  #important for SAPT in psi4, default
symmetry c1  #important for SAPT in psi4, default
}

set PROPERTIES_ORIGIN ["COM"]
properties('MP2/aug-cc-pvtz', properties = ['dipole'])
--------------------------------------------------------------------------

    Molecular point group: c1
  Charge       = 0
  Multiplicity = 1
  Basis Set: AUG-CC-PVTZ
    Blend: AUG-CC-PVTZ
  Basis Set: (AUG-CC-PVTZ AUX)
    Blend: AUG-CC-PVTZ-JKFIT

    Orbital Energies [Eh]
    ---------------------

    Doubly Occupied:

       1A    -92.170120     2A    -20.535518     3A    -20.534707
       4A    -11.274760     5A    -11.273658     6A    -11.246867
       7A    -11.241406     8A    -11.229632     9A    -11.226880
      10A    -11.212821    11A     -9.140602    12A     -6.824990
      13A     -6.824581    14A     -6.824389    15A     -1.425818
      16A     -1.316582    17A     -1.115673    18A     -1.096046
      19A     -1.013419    20A     -0.960551    21A     -0.937707
      22A     -0.850709    23A     -0.805050    24A     -0.778921
      25A     -0.687798    26A     -0.675728    27A     -0.663349
      28A     -0.642765    29A     -0.619007    30A     -0.604859
      31A     -0.591499    32A     -0.581746    33A     -0.568172
      34A     -0.554330    35A     -0.538527    36A     -0.528341
      37A     -0.510217    38A     -0.503214    39A     -0.495808
      40A     -0.486534    41A     -0.482579    42A     -0.475931
      43A     -0.470448    44A     -0.456343    45A     -0.418220

  @DF-RHF Final Energy:  -821.78342222588276

   => Energetics <=

    Nuclear Repulsion Energy =            707.2443712264104079
    One-Electron Energy =               -2531.2219374755195531
    Two-Electron Energy =                1002.1941440232264995
    Total Energy =                       -821.7834222258827594
  Basis Set: (AUG-CC-PVTZ AUX)
    Blend: AUG-CC-PVTZ-RI
    Molecular point group: c1

    Geometry (in Angstrom), charge = 0, multiplicity = 1:

       Center              X                  Y                   Z               Mass
    ------------   -----------------  -----------------  -----------------  -----------------
         S           -0.246961394990    -0.291181188662     0.121479953218    31.972071174400
         O           -0.275656394990    -1.481264188662    -0.749255046782    15.994914619570
         O           -0.180958394990    -0.440857188662     1.587511953218    15.994914619570
         C            1.118107605010     0.771608811338    -0.373129046782    12.000000000000
         C            2.459952605010     0.303502811338     0.196322953218    12.000000000000
         C           -1.701626394990     0.688176811338    -0.267138046782    12.000000000000
         C           -2.966968394990    -0.107864188662     0.038872953218    12.000000000000
         C            2.904001605010    -1.036040188662    -0.389701046782    12.000000000000
         C            3.508344605010     1.386063811338    -0.061881046782    12.000000000000
         C           -4.220135394990     0.705544811338    -0.272934046782    12.000000000000
         H            1.130508605010     0.792441811338    -1.468772046782     1.007825032230
         H            0.874163605010     1.772593811338     0.001484953218     1.007825032230
         H            2.330528605010     0.191046811338     1.279234953218     1.007825032230
         H           -1.641191394990     0.949897811338    -1.329176046782     1.007825032230
         H           -1.647960394990     1.601525811338     0.334287953218     1.007825032230
         H           -2.953778394990    -1.030453188662    -0.548751046782     1.007825032230
         H           -2.954105394990    -0.396571188662     1.094425953218     1.007825032230
         H            3.047152405010    -0.969253588662    -1.473928446782     1.007825032230
         H            2.191204605010    -1.835023188662    -0.178907046782     1.007825032230
         H            3.875643605010    -1.320245188662     0.025730953218     1.007825032230
         H            3.647578605010     1.542071811338    -1.137183046782     1.007825032230
         H            3.221099605010     2.341389811338     0.388819953218     1.007825032230
         H            4.472613605010     1.089079811338     0.361295953218     1.007825032230
         H           -4.254994394990     1.621623811338     0.324250953218     1.007825032230
         H           -4.254426394990     0.987585811338    -1.329553046782     1.007825032230
         H           -5.120137394990     0.125807811338    -0.051013046782     1.007825032230

  Basis Set: AUG-CC-PVTZ
    Blend: AUG-CC-PVTZ
  Basis Set: (AUG-CC-PVTZ AUX)
    Blend: AUG-CC-PVTZ-JKFIT
	 Reference Energy          =    -821.7834222258827594 [Eh]
	 Singles Energy            =      -0.0000000000000000 [Eh]
	 Same-Spin Energy          =      -0.5010266968275896 [Eh]
	 Opposite-Spin Energy      =      -1.6488553470883507 [Eh]
	 Correlation Energy        =      -2.1498820439159401 [Eh]
	 Total Energy              =    -823.9333042697986684 [Eh]

	 ================> DF-SCS-MP2 Energies <==================
	-----------------------------------------------------------
	 SCS Same-Spin Scale       =       0.3333333333333333 [-]
	 SCS Opposite-Spin Scale   =       1.2000000000000000 [-]
	 SCS Same-Spin Energy      =      -0.1670088989425298 [Eh]
	 SCS Opposite-Spin Energy  =      -1.9786264165060208 [Eh]
	 SCS Correlation Energy    =      -2.1456353154485508 [Eh]
	 SCS Total Energy          =    -823.9290575413313036 [Eh]
	-----------------------------------------------------------

  Dipole Moment: [D]
     X:    -0.1922      Y:     3.8002      Z:    -1.5794     Total:     4.1199

*** Psi4 exiting successfully. Buy a developer a beer!
