                               Psi4 1.4a3.dev225

  ==> Input File <==

--------------------------------------------------------------------------
#psi4
#
memory 32 gb

molecule  {
0 1
  S       -0.2573260    -0.3323280     0.1419150
  O       -0.2860210    -1.5224110    -0.7288200
  O       -0.1913230    -0.4820040     1.6079470
  C        1.1077430     0.7304620    -0.3526940
  C        2.3619427     0.2929313     0.1795631
  C       -1.7119910     0.6470300    -0.2467030
  C       -2.9773330    -0.1490110     0.0593080
  C        2.8936370    -1.0771870    -0.3692660
  C        3.4979800     1.3449170    -0.0414460
  C       -4.2305000     0.6643980    -0.2524990
  H        1.1201440     0.7512950    -1.4483370
  H        0.8637990     1.7314470     0.0219200
  H        2.3201640     0.1499000     1.2996700
  H       -1.6515560     0.9087510    -1.3087410
  H       -1.6583250     1.5603790     0.3547230
  H       -2.9641430    -1.0716000    -0.5283160
  H       -2.9644700    -0.4377180     1.1148610
  H        2.9999490    -1.0007780    -1.4570900
  H        2.1808400    -1.8761700    -0.1584720
  H        3.8652790    -1.3613920     0.0461660
  H        3.6372140     1.5009250    -1.1167480
  H        3.2107350     2.3002430     0.4092550
  H        4.4622490     1.0479330     0.3817310
  H       -4.2653590     1.5804770     0.3446860
  H       -4.2647910     0.9464390    -1.3091180
  H       -5.1305020     0.0846610    -0.0305780
units angstrom
no_reorient  #important for SAPT in psi4, default
symmetry c1  #important for SAPT in psi4, default
}

set PROPERTIES_ORIGIN ["COM"]
properties('MP2/aug-cc-pvtz', properties = ['dipole'])
--------------------------------------------------------------------------

    Molecular point group: c1
  Charge       = 0
  Multiplicity = 1
  Basis Set: AUG-CC-PVTZ
    Blend: AUG-CC-PVTZ
  Basis Set: (AUG-CC-PVTZ AUX)
    Blend: AUG-CC-PVTZ-JKFIT

    Orbital Energies [Eh]
    ---------------------

    Doubly Occupied:

       1A    -92.171402     2A    -20.536771     3A    -20.536077
       4A    -11.275962     5A    -11.272516     6A    -11.245495
       7A    -11.242253     8A    -11.230254     9A    -11.228142
      10A    -11.214180    11A     -9.142019    12A     -6.826419
      13A     -6.825973    14A     -6.825766    15A     -1.427279
      16A     -1.317767    17A     -1.125843    18A     -1.097222
      19A     -1.010803    20A     -0.962744    21A     -0.931786
      22A     -0.855962    23A     -0.807431    24A     -0.775531
      25A     -0.691955    26A     -0.678911    27A     -0.666627
      28A     -0.645247    29A     -0.619998    30A     -0.603336
      31A     -0.592361    32A     -0.579097    33A     -0.569020
      34A     -0.552718    35A     -0.539256    36A     -0.529014
      37A     -0.520953    38A     -0.506140    39A     -0.498823
      40A     -0.490272    41A     -0.479012    42A     -0.464258
      43A     -0.461798    44A     -0.455998    45A     -0.417593

  @DF-RHF Final Energy:  -821.77214886465822

   => Energetics <=

    Nuclear Repulsion Energy =            708.5720440227408972
    One-Electron Energy =               -2533.7924192927025615
    Two-Electron Energy =                1003.4482264053033305
    Total Energy =                       -821.7721488646582202
  Basis Set: (AUG-CC-PVTZ AUX)
    Blend: AUG-CC-PVTZ-RI
    Molecular point group: c1

    Geometry (in Angstrom), charge = 0, multiplicity = 1:

       Center              X                  Y                   Z               Mass
    ------------   -----------------  -----------------  -----------------  -----------------
         S           -0.240325464081    -0.293476319074     0.124222176958    31.972071174400
         O           -0.269020464081    -1.483559319074    -0.746512823042    15.994914619570
         O           -0.174322464081    -0.443152319074     1.590254176958    15.994914619570
         C            1.124743535919     0.769313680926    -0.370386823042    12.000000000000
         C            2.378943235919     0.331782980926     0.161870276958    12.000000000000
         C           -1.694990464081     0.685881680926    -0.264395823042    12.000000000000
         C           -2.960332464081    -0.110159319074     0.041615176958    12.000000000000
         C            2.910637535919    -1.038335319074    -0.386958823042    12.000000000000
         C            3.514980535919     1.383768680926    -0.059138823042    12.000000000000
         C           -4.213499464081     0.703249680926    -0.270191823042    12.000000000000
         H            1.137144535919     0.790146680926    -1.466029823042     1.007825032230
         H            0.880799535919     1.770298680926     0.004227176958     1.007825032230
         H            2.337164535919     0.188751680926     1.281977176958     1.007825032230
         H           -1.634555464081     0.947602680926    -1.326433823042     1.007825032230
         H           -1.641324464081     1.599230680926     0.337030176958     1.007825032230
         H           -2.947142464081    -1.032748319074    -0.546008823042     1.007825032230
         H           -2.947469464081    -0.398866319074     1.097168176958     1.007825032230
         H            3.016949535919    -0.961926319074    -1.474782823042     1.007825032230
         H            2.197840535919    -1.837318319074    -0.176164823042     1.007825032230
         H            3.882279535919    -1.322540319074     0.028473176958     1.007825032230
         H            3.654214535919     1.539776680926    -1.134440823042     1.007825032230
         H            3.227735535919     2.339094680926     0.391562176958     1.007825032230
         H            4.479249535919     1.086784680926     0.364038176958     1.007825032230
         H           -4.248358464081     1.619328680926     0.326993176958     1.007825032230
         H           -4.247790464081     0.985290680926    -1.326810823042     1.007825032230
         H           -5.113501464081     0.123512680926    -0.048270823042     1.007825032230

  Basis Set: AUG-CC-PVTZ
    Blend: AUG-CC-PVTZ
  Basis Set: (AUG-CC-PVTZ AUX)
    Blend: AUG-CC-PVTZ-JKFIT
	 Reference Energy          =    -821.7721488646582202 [Eh]
	 Singles Energy            =      -0.0000000000000000 [Eh]
	 Same-Spin Energy          =      -0.5018526076182850 [Eh]
	 Opposite-Spin Energy      =      -1.6502037621362451 [Eh]
	 Correlation Energy        =      -2.1520563697545301 [Eh]
	 Total Energy              =    -823.9242052344127387 [Eh]

	 ================> DF-SCS-MP2 Energies <==================
	-----------------------------------------------------------
	 SCS Same-Spin Scale       =       0.3333333333333333 [-]
	 SCS Opposite-Spin Scale   =       1.2000000000000000 [-]
	 SCS Same-Spin Energy      =      -0.1672842025394283 [Eh]
	 SCS Opposite-Spin Energy  =      -1.9802445145634939 [Eh]
	 SCS Correlation Energy    =      -2.1475287171029223 [Eh]
	 SCS Total Energy          =    -823.9196775817611069 [Eh]
	-----------------------------------------------------------

  Dipole Moment: [D]
     X:    -0.3116      Y:     3.7895      Z:    -1.5685     Total:     4.1131

*** Psi4 exiting successfully. Buy a developer a beer!
