                               Psi4 1.4a3.dev225

  ==> Input File <==

--------------------------------------------------------------------------
#psi4
#
memory 32 gb

molecule  {
0 1
  S       -0.2573260    -0.3323280     0.1419150
  O       -0.2840754    -1.4417214    -0.6697827
  O       -0.1913230    -0.4820040     1.6079470
  C        1.1077430     0.7304620    -0.3526940
  C        2.4495880     0.2623560     0.2167580
  C       -1.7119910     0.6470300    -0.2467030
  C       -2.9773330    -0.1490110     0.0593080
  C        2.8936370    -1.0771870    -0.3692660
  C        3.4979800     1.3449170    -0.0414460
  C       -4.2305000     0.6643980    -0.2524990
  H        1.1201440     0.7512950    -1.4483370
  H        0.8637990     1.7314470     0.0219200
  H        2.3201640     0.1499000     1.2996700
  H       -1.6515560     0.9087510    -1.3087410
  H       -1.6583250     1.5603790     0.3547230
  H       -2.9641430    -1.0716000    -0.5283160
  H       -2.9644700    -0.4377180     1.1148610
  H        2.9999490    -1.0007780    -1.4570900
  H        2.1808400    -1.8761700    -0.1584720
  H        3.8652790    -1.3613920     0.0461660
  H        3.6372140     1.5009250    -1.1167480
  H        3.2107350     2.3002430     0.4092550
  H        4.4622490     1.0479330     0.3817310
  H       -4.2653590     1.5804770     0.3446860
  H       -4.2647910     0.9464390    -1.3091180
  H       -5.1305020     0.0846610    -0.0305780
units angstrom
no_reorient  #important for SAPT in psi4, default
symmetry c1  #important for SAPT in psi4, default
}

set PROPERTIES_ORIGIN ["COM"]
properties('MP2/aug-cc-pvtz', properties = ['dipole'])
--------------------------------------------------------------------------

    Molecular point group: c1
  Charge       = 0
  Multiplicity = 1
  Basis Set: AUG-CC-PVTZ
    Blend: AUG-CC-PVTZ
  Basis Set: (AUG-CC-PVTZ AUX)
    Blend: AUG-CC-PVTZ-JKFIT

    Orbital Energies [Eh]
    ---------------------

    Doubly Occupied:

       1A    -92.160470     2A    -20.537268     3A    -20.527479
       4A    -11.267762     5A    -11.266874     6A    -11.244483
       7A    -11.239913     8A    -11.228260     9A    -11.225084
      10A    -11.213433    11A     -9.133208    12A     -6.818137
      13A     -6.817286    14A     -6.816793    15A     -1.470386
      16A     -1.332381    17A     -1.112765    18A     -1.093260
      19A     -1.009067    20A     -0.958266    21A     -0.937167
      22A     -0.847401    23A     -0.800876    24A     -0.775785
      25A     -0.697019    26A     -0.674713    27A     -0.669432
      28A     -0.648057    29A     -0.627652    30A     -0.604933
      31A     -0.591447    32A     -0.582776    33A     -0.568100
      34A     -0.554196    35A     -0.539344    36A     -0.531225
      37A     -0.512170    38A     -0.506494    39A     -0.494522
      40A     -0.486644    41A     -0.483927    42A     -0.477543
      43A     -0.472412    44A     -0.461722    45A     -0.415404

  @DF-RHF Final Energy:  -821.78199461842223

   => Energetics <=

    Nuclear Repulsion Energy =            712.3182405395931482
    One-Electron Energy =               -2541.3334003639424736
    Two-Electron Energy =                1007.2331652059269800
    Total Energy =                       -821.7819946184222317
  Basis Set: (AUG-CC-PVTZ AUX)
    Blend: AUG-CC-PVTZ-RI
    Molecular point group: c1

    Geometry (in Angstrom), charge = 0, multiplicity = 1:

       Center              X                  Y                   Z               Mass
    ------------   -----------------  -----------------  -----------------  -----------------
         S           -0.246924784197    -0.299105766224     0.115747194067    31.972071174400
         O           -0.273674184197    -1.408499166224    -0.695950505933    15.994914619570
         O           -0.180921784197    -0.448781766224     1.581779194067    15.994914619570
         C            1.118144215803     0.763684233776    -0.378861805933    12.000000000000
         C            2.459989215803     0.295578233776     0.190590194067    12.000000000000
         C           -1.701589784197     0.680252233776    -0.272870805933    12.000000000000
         C           -2.966931784197    -0.115788766224     0.033140194067    12.000000000000
         C            2.904038215803    -1.043964766224    -0.395433805933    12.000000000000
         C            3.508381215803     1.378139233776    -0.067613805933    12.000000000000
         C           -4.220098784197     0.697620233776    -0.278666805933    12.000000000000
         H            1.130545215803     0.784517233776    -1.474504805933     1.007825032230
         H            0.874200215803     1.764669233776    -0.004247805933     1.007825032230
         H            2.330565215803     0.183122233776     1.273502194067     1.007825032230
         H           -1.641154784197     0.941973233776    -1.334908805933     1.007825032230
         H           -1.647923784197     1.593601233776     0.328555194067     1.007825032230
         H           -2.953741784197    -1.038377766224    -0.554483805933     1.007825032230
         H           -2.954068784197    -0.404495766224     1.088693194067     1.007825032230
         H            3.010350215803    -0.967555766224    -1.483257805933     1.007825032230
         H            2.191241215803    -1.842947766224    -0.184639805933     1.007825032230
         H            3.875680215803    -1.328169766224     0.019998194067     1.007825032230
         H            3.647615215803     1.534147233776    -1.142915805933     1.007825032230
         H            3.221136215803     2.333465233776     0.383087194067     1.007825032230
         H            4.472650215803     1.081155233776     0.355563194067     1.007825032230
         H           -4.254957784197     1.613699233776     0.318518194067     1.007825032230
         H           -4.254389784197     0.979661233776    -1.335285805933     1.007825032230
         H           -5.120100784197     0.117883233776    -0.056745805933     1.007825032230

  Basis Set: AUG-CC-PVTZ
    Blend: AUG-CC-PVTZ
  Basis Set: (AUG-CC-PVTZ AUX)
    Blend: AUG-CC-PVTZ-JKFIT
	 Reference Energy          =    -821.7819946184222317 [Eh]
	 Singles Energy            =      -0.0000000000000000 [Eh]
	 Same-Spin Energy          =      -0.4989040429758818 [Eh]
	 Opposite-Spin Energy      =      -1.6437465228375592 [Eh]
	 Correlation Energy        =      -2.1426505658134412 [Eh]
	 Total Energy              =    -823.9246451842357146 [Eh]

	 ================> DF-SCS-MP2 Energies <==================
	-----------------------------------------------------------
	 SCS Same-Spin Scale       =       0.3333333333333333 [-]
	 SCS Opposite-Spin Scale   =       1.2000000000000000 [-]
	 SCS Same-Spin Energy      =      -0.1663013476586273 [Eh]
	 SCS Opposite-Spin Energy  =      -1.9724958274050710 [Eh]
	 SCS Correlation Energy    =      -2.1387971750636980 [Eh]
	 SCS Total Energy          =    -823.9207917934859324 [Eh]
	-----------------------------------------------------------

  Dipole Moment: [D]
     X:    -0.2076      Y:     3.3449      Z:    -1.8488     Total:     3.8275

*** Psi4 exiting successfully. Buy a developer a beer!
