                               Psi4 1.4a3.dev225

  ==> Input File <==

--------------------------------------------------------------------------
#psi4
#
memory 32 gb

molecule  {
0 1
  S       -0.2573260    -0.3323280     0.1419150
  O       -0.2860210    -1.5224110    -0.7288200
  O       -0.1913230    -0.4820040     1.6079470
  C        1.0925699     0.7186488    -0.3471963
  C        2.4495880     0.2623560     0.2167580
  C       -1.7119910     0.6470300    -0.2467030
  C       -2.9773330    -0.1490110     0.0593080
  C        2.8936370    -1.0771870    -0.3692660
  C        3.4979800     1.3449170    -0.0414460
  C       -4.2305000     0.6643980    -0.2524990
  H        1.1201440     0.7512950    -1.4483370
  H        0.8637990     1.7314470     0.0219200
  H        2.3201640     0.1499000     1.2996700
  H       -1.6515560     0.9087510    -1.3087410
  H       -1.6583250     1.5603790     0.3547230
  H       -2.9641430    -1.0716000    -0.5283160
  H       -2.9644700    -0.4377180     1.1148610
  H        2.9999490    -1.0007780    -1.4570900
  H        2.1808400    -1.8761700    -0.1584720
  H        3.8652790    -1.3613920     0.0461660
  H        3.6372140     1.5009250    -1.1167480
  H        3.2107350     2.3002430     0.4092550
  H        4.4622490     1.0479330     0.3817310
  H       -4.2653590     1.5804770     0.3446860
  H       -4.2647910     0.9464390    -1.3091180
  H       -5.1305020     0.0846610    -0.0305780
units angstrom
no_reorient  #important for SAPT in psi4, default
symmetry c1  #important for SAPT in psi4, default
}

set PROPERTIES_ORIGIN ["COM"]
properties('MP2/aug-cc-pvtz', properties = ['dipole'])
--------------------------------------------------------------------------

    Molecular point group: c1
  Charge       = 0
  Multiplicity = 1
  Basis Set: AUG-CC-PVTZ
    Blend: AUG-CC-PVTZ
  Basis Set: (AUG-CC-PVTZ AUX)
    Blend: AUG-CC-PVTZ-JKFIT

    Orbital Energies [Eh]
    ---------------------

    Doubly Occupied:

       1A    -92.170689     2A    -20.535519     3A    -20.534788
       4A    -11.274746     5A    -11.273494     6A    -11.247377
       7A    -11.241411     8A    -11.229647     9A    -11.227149
      10A    -11.212765    11A     -9.141266    12A     -6.825695
      13A     -6.825274    14A     -6.825056    15A     -1.426529
      16A     -1.316839    17A     -1.115441    18A     -1.095954
      19A     -1.015257    20A     -0.960887    21A     -0.937618
      22A     -0.850584    23A     -0.805505    24A     -0.777845
      25A     -0.689339    26A     -0.675621    27A     -0.663232
      28A     -0.642566    29A     -0.619104    30A     -0.604528
      31A     -0.591513    32A     -0.580091    33A     -0.568209
      34A     -0.553710    35A     -0.539579    36A     -0.528765
      37A     -0.510239    38A     -0.502897    39A     -0.495621
      40A     -0.485706    41A     -0.482330    42A     -0.475753
      43A     -0.470624    44A     -0.456192    45A     -0.420597

  @DF-RHF Final Energy:  -821.78319672880446

   => Energetics <=

    Nuclear Repulsion Energy =            707.6694280321413544
    One-Electron Energy =               -2532.0581507500542102
    Two-Electron Energy =                1002.6055259891085143
    Total Energy =                       -821.7831967288044552
  Basis Set: (AUG-CC-PVTZ AUX)
    Blend: AUG-CC-PVTZ-RI
    Molecular point group: c1

    Geometry (in Angstrom), charge = 0, multiplicity = 1:

       Center              X                  Y                   Z               Mass
    ------------   -----------------  -----------------  -----------------  -----------------
         S           -0.245625493121    -0.290376367907     0.121099986383    31.972071174400
         O           -0.274320493121    -1.480459367907    -0.749635013617    15.994914619570
         O           -0.179622493121    -0.440052367907     1.587131986383    15.994914619570
         C            1.104270406879     0.760600432093    -0.368011313617    12.000000000000
         C            2.461288506879     0.304307632093     0.195942986383    12.000000000000
         C           -1.700290493121     0.688981632093    -0.267518013617    12.000000000000
         C           -2.965632493121    -0.107059367907     0.038492986383    12.000000000000
         C            2.905337506879    -1.035235367907    -0.390081013617    12.000000000000
         C            3.509680506879     1.386868632093    -0.062261013617    12.000000000000
         C           -4.218799493121     0.706349632093    -0.273314013617    12.000000000000
         H            1.131844506879     0.793246632093    -1.469152013617     1.007825032230
         H            0.875499506879     1.773398632093     0.001104986383     1.007825032230
         H            2.331864506879     0.191851632093     1.278854986383     1.007825032230
         H           -1.639855493121     0.950702632093    -1.329556013617     1.007825032230
         H           -1.646624493121     1.602330632093     0.333907986383     1.007825032230
         H           -2.952442493121    -1.029648367907    -0.549131013617     1.007825032230
         H           -2.952769493121    -0.395766367907     1.094045986383     1.007825032230
         H            3.011649506879    -0.958826367907    -1.477905013617     1.007825032230
         H            2.192540506879    -1.834218367907    -0.179287013617     1.007825032230
         H            3.876979506879    -1.319440367907     0.025350986383     1.007825032230
         H            3.648914506879     1.542876632093    -1.137563013617     1.007825032230
         H            3.222435506879     2.342194632093     0.388439986383     1.007825032230
         H            4.473949506879     1.089884632093     0.360915986383     1.007825032230
         H           -4.253658493121     1.622428632093     0.323870986383     1.007825032230
         H           -4.253090493121     0.988390632093    -1.329933013617     1.007825032230
         H           -5.118801493121     0.126612632093    -0.051393013617     1.007825032230

  Basis Set: AUG-CC-PVTZ
    Blend: AUG-CC-PVTZ
  Basis Set: (AUG-CC-PVTZ AUX)
    Blend: AUG-CC-PVTZ-JKFIT
	 Reference Energy          =    -821.7831967288044552 [Eh]
	 Singles Energy            =      -0.0000000000000000 [Eh]
	 Same-Spin Energy          =      -0.5010566420262946 [Eh]
	 Opposite-Spin Energy      =      -1.6488337389094594 [Eh]
	 Correlation Energy        =      -2.1498903809357541 [Eh]
	 Total Energy              =    -823.9330871097401996 [Eh]

	 ================> DF-SCS-MP2 Energies <==================
	-----------------------------------------------------------
	 SCS Same-Spin Scale       =       0.3333333333333333 [-]
	 SCS Opposite-Spin Scale   =       1.2000000000000000 [-]
	 SCS Same-Spin Energy      =      -0.1670188806754315 [Eh]
	 SCS Opposite-Spin Energy  =      -1.9786004866913511 [Eh]
	 SCS Correlation Energy    =      -2.1456193673667827 [Eh]
	 SCS Total Energy          =    -823.9288160961712038 [Eh]
	-----------------------------------------------------------

  Dipole Moment: [D]
     X:    -0.1800      Y:     3.8115      Z:    -1.5775     Total:     4.1290

*** Psi4 exiting successfully. Buy a developer a beer!
