                               Psi4 1.4a3.dev225

  ==> Input File <==

--------------------------------------------------------------------------
#psi4
#
memory 32 gb

molecule  {
0 1
  S       -0.2573260    -0.3323280     0.1419150
  O       -0.2860210    -1.5224110    -0.7288200
  O       -0.1913230    -0.4820040     1.6079470
  C        1.1077430     0.7304620    -0.3526940
  C        2.4495880     0.2623560     0.2167580
  C       -1.7119910     0.6470300    -0.2467030
  C       -2.9773330    -0.1490110     0.0593080
  C        2.8936370    -1.0771870    -0.3692660
  C        3.4979800     1.3449170    -0.0414460
  C       -4.2305000     0.6643980    -0.2524990
  H        1.1201440     0.7512950    -1.4483370
  H        0.8637990     1.7314470     0.0219200
  H        2.3201640     0.1499000     1.2996700
  H       -1.6515560     0.9087510    -1.3087410
  H       -1.6583250     1.5603790     0.3547230
  H       -2.9641430    -1.0716000    -0.5283160
  H       -2.9644700    -0.4377180     1.1148610
  H        3.0734523    -1.0201041    -1.4485758
  H        2.1808400    -1.8761700    -0.1584720
  H        3.8652790    -1.3613920     0.0461660
  H        3.6372140     1.5009250    -1.1167480
  H        3.2107350     2.3002430     0.4092550
  H        4.4622490     1.0479330     0.3817310
  H       -4.2653590     1.5804770     0.3446860
  H       -4.2647910     0.9464390    -1.3091180
  H       -5.1305020     0.0846610    -0.0305780
units angstrom
no_reorient  #important for SAPT in psi4, default
symmetry c1  #important for SAPT in psi4, default
}

set PROPERTIES_ORIGIN ["COM"]
properties('MP2/aug-cc-pvtz', properties = ['dipole'])
--------------------------------------------------------------------------

    Molecular point group: c1
  Charge       = 0
  Multiplicity = 1
  Basis Set: AUG-CC-PVTZ
    Blend: AUG-CC-PVTZ
  Basis Set: (AUG-CC-PVTZ AUX)
    Blend: AUG-CC-PVTZ-JKFIT

    Orbital Energies [Eh]
    ---------------------

    Doubly Occupied:

       1A    -92.170095     2A    -20.535523     3A    -20.534668
       4A    -11.274739     5A    -11.273609     6A    -11.247143
       7A    -11.241389     8A    -11.229618     9A    -11.226938
      10A    -11.212740    11A     -9.140579    12A     -6.824967
      13A     -6.824558    14A     -6.824366    15A     -1.425802
      16A     -1.316565    17A     -1.115608    18A     -1.096019
      19A     -1.013421    20A     -0.960579    21A     -0.937706
      22A     -0.850779    23A     -0.805168    24A     -0.779106
      25A     -0.687788    26A     -0.675691    27A     -0.663163
      28A     -0.642830    29A     -0.618788    30A     -0.604635
      31A     -0.591516    32A     -0.582423    33A     -0.568155
      34A     -0.554839    35A     -0.537592    36A     -0.527843
      37A     -0.510188    38A     -0.503419    39A     -0.495918
      40A     -0.485900    41A     -0.482575    42A     -0.476425
      43A     -0.470425    44A     -0.456325    45A     -0.418195

  @DF-RHF Final Energy:  -821.78304408862050

   => Energetics <=

    Nuclear Repulsion Energy =            707.1753334325486549
    One-Electron Energy =               -2531.0841196154610770
    Two-Electron Energy =                1002.1257420942920362
    Total Energy =                       -821.7830440886204997
  Basis Set: (AUG-CC-PVTZ AUX)
    Blend: AUG-CC-PVTZ-RI
    Molecular point group: c1

    Geometry (in Angstrom), charge = 0, multiplicity = 1:

       Center              X                  Y                   Z               Mass
    ------------   -----------------  -----------------  -----------------  -----------------
         S           -0.247186588809    -0.291121588415     0.121449749257    31.972071174400
         O           -0.275881588809    -1.481204588415    -0.749285250743    15.994914619570
         O           -0.181183588809    -0.440797588415     1.587481749257    15.994914619570
         C            1.117882411191     0.771668411585    -0.373159250743    12.000000000000
         C            2.459727411191     0.303562411585     0.196292749257    12.000000000000
         C           -1.701851588809     0.688236411585    -0.267168250743    12.000000000000
         C           -2.967193588809    -0.107804588415     0.038842749257    12.000000000000
         C            2.903776411191    -1.035980588415    -0.389731250743    12.000000000000
         C            3.508119411191     1.386123411585    -0.061911250743    12.000000000000
         C           -4.220360588809     0.705604411585    -0.272964250743    12.000000000000
         H            1.130283411191     0.792501411585    -1.468802250743     1.007825032230
         H            0.873938411191     1.772653411585     0.001454749257     1.007825032230
         H            2.330303411191     0.191106411585     1.279204749257     1.007825032230
         H           -1.641416588809     0.949957411585    -1.329206250743     1.007825032230
         H           -1.648185588809     1.601585411585     0.334257749257     1.007825032230
         H           -2.954003588809    -1.030393588415    -0.548781250743     1.007825032230
         H           -2.954330588809    -0.396511588415     1.094395749257     1.007825032230
         H            3.083591711191    -0.978897688415    -1.469041050743     1.007825032230
         H            2.190979411191    -1.834963588415    -0.178937250743     1.007825032230
         H            3.875418411191    -1.320185588415     0.025700749257     1.007825032230
         H            3.647353411191     1.542131411585    -1.137213250743     1.007825032230
         H            3.220874411191     2.341449411585     0.388789749257     1.007825032230
         H            4.472388411191     1.089139411585     0.361265749257     1.007825032230
         H           -4.255219588809     1.621683411585     0.324220749257     1.007825032230
         H           -4.254651588809     0.987645411585    -1.329583250743     1.007825032230
         H           -5.120362588809     0.125867411585    -0.051043250743     1.007825032230

  Basis Set: AUG-CC-PVTZ
    Blend: AUG-CC-PVTZ
  Basis Set: (AUG-CC-PVTZ AUX)
    Blend: AUG-CC-PVTZ-JKFIT
	 Reference Energy          =    -821.7830440886204997 [Eh]
	 Singles Energy            =      -0.0000000000000000 [Eh]
	 Same-Spin Energy          =      -0.5010239922689954 [Eh]
	 Opposite-Spin Energy      =      -1.6488468655244244 [Eh]
	 Correlation Energy        =      -2.1498708577934198 [Eh]
	 Total Energy              =    -823.9329149464139164 [Eh]

	 ================> DF-SCS-MP2 Energies <==================
	-----------------------------------------------------------
	 SCS Same-Spin Scale       =       0.3333333333333333 [-]
	 SCS Opposite-Spin Scale   =       1.2000000000000000 [-]
	 SCS Same-Spin Energy      =      -0.1670079974229985 [Eh]
	 SCS Opposite-Spin Energy  =      -1.9786162386293091 [Eh]
	 SCS Correlation Energy    =      -2.1456242360523077 [Eh]
	 SCS Total Energy          =    -823.9286683246727989 [Eh]
	-----------------------------------------------------------

  Dipole Moment: [D]
     X:    -0.1809      Y:     3.8013      Z:    -1.5835     Total:     4.1219

*** Psi4 exiting successfully. Buy a developer a beer!
