                               Psi4 1.4a3.dev225

  ==> Input File <==

--------------------------------------------------------------------------
#psi4
#
memory 32 gb

molecule  {
0 1
  S       -0.2573260    -0.3323280     0.1419150
  O       -0.2860210    -1.5224110    -0.7288200
  O       -0.1913230    -0.4820040     1.6079470
  C        1.1077430     0.7304620    -0.3526940
  C        2.4495880     0.2623560     0.2167580
  C       -1.7119910     0.6470300    -0.2467030
  C       -2.9773330    -0.1490110     0.0593080
  C        2.8791072    -1.0333556    -0.3500906
  C        3.4979800     1.3449170    -0.0414460
  C       -4.2305000     0.6643980    -0.2524990
  H        1.1201440     0.7512950    -1.4483370
  H        0.8637990     1.7314470     0.0219200
  H        2.3201640     0.1499000     1.2996700
  H       -1.6515560     0.9087510    -1.3087410
  H       -1.6583250     1.5603790     0.3547230
  H       -2.9641430    -1.0716000    -0.5283160
  H       -2.9644700    -0.4377180     1.1148610
  H        2.9999490    -1.0007780    -1.4570900
  H        2.1808400    -1.8761700    -0.1584720
  H        3.8652790    -1.3613920     0.0461660
  H        3.6372140     1.5009250    -1.1167480
  H        3.2107350     2.3002430     0.4092550
  H        4.4622490     1.0479330     0.3817310
  H       -4.2653590     1.5804770     0.3446860
  H       -4.2647910     0.9464390    -1.3091180
  H       -5.1305020     0.0846610    -0.0305780
units angstrom
no_reorient  #important for SAPT in psi4, default
symmetry c1  #important for SAPT in psi4, default
}

set PROPERTIES_ORIGIN ["COM"]
properties('MP2/aug-cc-pvtz', properties = ['dipole'])
--------------------------------------------------------------------------

    Molecular point group: c1
  Charge       = 0
  Multiplicity = 1
  Basis Set: AUG-CC-PVTZ
    Blend: AUG-CC-PVTZ
  Basis Set: (AUG-CC-PVTZ AUX)
    Blend: AUG-CC-PVTZ-JKFIT

    Orbital Energies [Eh]
    ---------------------

    Doubly Occupied:

       1A    -92.170274     2A    -20.535586     3A    -20.534614
       4A    -11.274870     5A    -11.273886     6A    -11.244650
       7A    -11.241476     8A    -11.229689     9A    -11.226898
      10A    -11.215128    11A     -9.140743    12A     -6.825134
      13A     -6.824725    14A     -6.824529    15A     -1.425857
      16A     -1.316592    17A     -1.120641    18A     -1.096904
      19A     -1.014877    20A     -0.961006    21A     -0.937868
      22A     -0.850393    23A     -0.804737    24A     -0.779045
      25A     -0.688305    26A     -0.676269    27A     -0.664416
      28A     -0.644004    29A     -0.619949    30A     -0.606114
      31A     -0.591581    32A     -0.580763    33A     -0.568235
      34A     -0.554293    35A     -0.536591    36A     -0.527621
      37A     -0.509861    38A     -0.500700    39A     -0.494764
      40A     -0.493655    41A     -0.481591    42A     -0.475274
      43A     -0.467991    44A     -0.456378    45A     -0.417633

  @DF-RHF Final Energy:  -821.78035555837482

   => Energetics <=

    Nuclear Repulsion Energy =            708.1878630960339933
    One-Electron Energy =               -2533.0842135557386428
    Two-Electron Energy =                1003.1159949013297137
    Total Energy =                       -821.7803555583748221
  Basis Set: (AUG-CC-PVTZ AUX)
    Blend: AUG-CC-PVTZ-RI
    Molecular point group: c1

    Geometry (in Angstrom), charge = 0, multiplicity = 1:

       Center              X                  Y                   Z               Mass
    ------------   -----------------  -----------------  -----------------  -----------------
         S           -0.245672538867    -0.294445762736     0.120099710315    31.972071174400
         O           -0.274367538867    -1.484528762736    -0.750635289685    15.994914619570
         O           -0.179669538867    -0.444121762736     1.586131710315    15.994914619570
         C            1.119396461133     0.768344237264    -0.374509289685    12.000000000000
         C            2.461241461133     0.300238237264     0.194942710315    12.000000000000
         C           -1.700337538867     0.684912237264    -0.268518289685    12.000000000000
         C           -2.965679538867    -0.111128762736     0.037492710315    12.000000000000
         C            2.890760661133    -0.995473362736    -0.371905889685    12.000000000000
         C            3.509633461133     1.382799237264    -0.063261289685    12.000000000000
         C           -4.218846538867     0.702280237264    -0.274314289685    12.000000000000
         H            1.131797461133     0.789177237264    -1.470152289685     1.007825032230
         H            0.875452461133     1.769329237264     0.000104710315     1.007825032230
         H            2.331817461133     0.187782237264     1.277854710315     1.007825032230
         H           -1.639902538867     0.946633237264    -1.330556289685     1.007825032230
         H           -1.646671538867     1.598261237264     0.332907710315     1.007825032230
         H           -2.952489538867    -1.033717762736    -0.550131289685     1.007825032230
         H           -2.952816538867    -0.399835762736     1.093045710315     1.007825032230
         H            3.011602461133    -0.962895762736    -1.478905289685     1.007825032230
         H            2.192493461133    -1.838287762736    -0.180287289685     1.007825032230
         H            3.876932461133    -1.323509762736     0.024350710315     1.007825032230
         H            3.648867461133     1.538807237264    -1.138563289685     1.007825032230
         H            3.222388461133     2.338125237264     0.387439710315     1.007825032230
         H            4.473902461133     1.085815237264     0.359915710315     1.007825032230
         H           -4.253705538867     1.618359237264     0.322870710315     1.007825032230
         H           -4.253137538867     0.984321237264    -1.330933289685     1.007825032230
         H           -5.118848538867     0.122543237264    -0.052393289685     1.007825032230

  Basis Set: AUG-CC-PVTZ
    Blend: AUG-CC-PVTZ
  Basis Set: (AUG-CC-PVTZ AUX)
    Blend: AUG-CC-PVTZ-JKFIT
	 Reference Energy          =    -821.7803555583748221 [Eh]
	 Singles Energy            =      -0.0000000000000000 [Eh]
	 Same-Spin Energy          =      -0.5015345821566193 [Eh]
	 Opposite-Spin Energy      =      -1.6494074349700489 [Eh]
	 Correlation Energy        =      -2.1509420171266682 [Eh]
	 Total Energy              =    -823.9312975755015032 [Eh]

	 ================> DF-SCS-MP2 Energies <==================
	-----------------------------------------------------------
	 SCS Same-Spin Scale       =       0.3333333333333333 [-]
	 SCS Opposite-Spin Scale   =       1.2000000000000000 [-]
	 SCS Same-Spin Energy      =      -0.1671781940522064 [Eh]
	 SCS Opposite-Spin Energy  =      -1.9792889219640586 [Eh]
	 SCS Correlation Energy    =      -2.1464671160162649 [Eh]
	 SCS Total Energy          =    -823.9268226743911328 [Eh]
	-----------------------------------------------------------

  Dipole Moment: [D]
     X:    -0.2122      Y:     3.7904      Z:    -1.5717     Total:     4.1088

*** Psi4 exiting successfully. Buy a developer a beer!
