                               Psi4 1.4a3.dev225

  ==> Input File <==

--------------------------------------------------------------------------
#psi4
#
memory 32 gb

molecule  {
0 1
  S       -0.2573260    -0.3323280     0.1419150
  O       -0.2860210    -1.5224110    -0.7288200
  O       -0.1913230    -0.4820040     1.6079470
  C        1.1077430     0.7304620    -0.3526940
  C        2.4495880     0.2623560     0.2167580
  C       -1.7119910     0.6470300    -0.2467030
  C       -2.9773330    -0.1490110     0.0593080
  C        2.8936370    -1.0771870    -0.3692660
  C        3.4979800     1.3449170    -0.0414460
  C       -4.2305000     0.6643980    -0.2524990
  H        1.1201440     0.7512950    -1.4483370
  H        0.8637990     1.7314470     0.0219200
  H        2.3201640     0.1499000     1.2996700
  H       -1.6515560     0.9087510    -1.3087410
  H       -1.6583250     1.5603790     0.3547230
  H       -2.9641430    -1.0716000    -0.5283160
  H       -2.9644700    -0.4377180     1.1148610
  H        2.9950976    -1.0042648    -1.4074482
  H        2.1808400    -1.8761700    -0.1584720
  H        3.8652790    -1.3613920     0.0461660
  H        3.6372140     1.5009250    -1.1167480
  H        3.2107350     2.3002430     0.4092550
  H        4.4622490     1.0479330     0.3817310
  H       -4.2653590     1.5804770     0.3446860
  H       -4.2647910     0.9464390    -1.3091180
  H       -5.1305020     0.0846610    -0.0305780
units angstrom
no_reorient  #important for SAPT in psi4, default
symmetry c1  #important for SAPT in psi4, default
}

set PROPERTIES_ORIGIN ["COM"]
properties('MP2/aug-cc-pvtz', properties = ['dipole'])
--------------------------------------------------------------------------

    Molecular point group: c1
  Charge       = 0
  Multiplicity = 1
  Basis Set: AUG-CC-PVTZ
    Blend: AUG-CC-PVTZ
  Basis Set: (AUG-CC-PVTZ AUX)
    Blend: AUG-CC-PVTZ-JKFIT

    Orbital Energies [Eh]
    ---------------------

    Doubly Occupied:

       1A    -92.170087     2A    -20.535407     3A    -20.534711
       4A    -11.274739     5A    -11.273651     6A    -11.246002
       7A    -11.241389     8A    -11.229623     9A    -11.226758
      10A    -11.206542    11A     -9.140564    12A     -6.824953
      13A     -6.824544    14A     -6.824352    15A     -1.425761
      16A     -1.316530    17A     -1.115989    18A     -1.096116
      19A     -1.013761    20A     -0.960759    21A     -0.940811
      22A     -0.850898    23A     -0.805394    24A     -0.779993
      25A     -0.687867    26A     -0.675704    27A     -0.663551
      28A     -0.642735    29A     -0.619415    30A     -0.605059
      31A     -0.591537    32A     -0.582859    33A     -0.568164
      34A     -0.555771    35A     -0.543056    36A     -0.528412
      37A     -0.510123    38A     -0.502940    39A     -0.495663
      40A     -0.487593    41A     -0.482599    42A     -0.475772
      43A     -0.470518    44A     -0.456302    45A     -0.418151

  @DF-RHF Final Energy:  -821.78249734981625

   => Energetics <=

    Nuclear Repulsion Energy =            707.5510113085458670
    One-Electron Energy =               -2531.8207707089991345
    Two-Electron Energy =                1002.4872620506370140
    Total Energy =                       -821.7824973498162535
  Basis Set: (AUG-CC-PVTZ AUX)
    Blend: AUG-CC-PVTZ-RI
    Molecular point group: c1

    Geometry (in Angstrom), charge = 0, multiplicity = 1:

       Center              X                  Y                   Z               Mass
    ------------   -----------------  -----------------  -----------------  -----------------
         S           -0.246705333259    -0.291218873594     0.121197143022    31.972071174400
         O           -0.275400333259    -1.481301873594    -0.749537856978    15.994914619570
         O           -0.180702333259    -0.440894873594     1.587229143022    15.994914619570
         C            1.118363666741     0.771571126406    -0.373411856978    12.000000000000
         C            2.460208666741     0.303465126406     0.196040143022    12.000000000000
         C           -1.701370333259     0.688139126406    -0.267420856978    12.000000000000
         C           -2.966712333259    -0.107901873594     0.038590143022    12.000000000000
         C            2.904257666741    -1.036077873594    -0.389983856978    12.000000000000
         C            3.508600666741     1.386026126406    -0.062163856978    12.000000000000
         C           -4.219879333259     0.705507126406    -0.273216856978    12.000000000000
         H            1.130764666741     0.792404126406    -1.469054856978     1.007825032230
         H            0.874419666741     1.772556126406     0.001202143022     1.007825032230
         H            2.330784666741     0.191009126406     1.278952143022     1.007825032230
         H           -1.640935333259     0.949860126406    -1.329458856978     1.007825032230
         H           -1.647704333259     1.601488126406     0.334005143022     1.007825032230
         H           -2.953522333259    -1.030490873594    -0.549033856978     1.007825032230
         H           -2.953849333259    -0.396608873594     1.094143143022     1.007825032230
         H            3.005718266741    -0.963155673594    -1.428166056978     1.007825032230
         H            2.191460666741    -1.835060873594    -0.179189856978     1.007825032230
         H            3.875899666741    -1.320282873594     0.025448143022     1.007825032230
         H            3.647834666741     1.542034126406    -1.137465856978     1.007825032230
         H            3.221355666741     2.341352126406     0.388537143022     1.007825032230
         H            4.472869666741     1.089042126406     0.361013143022     1.007825032230
         H           -4.254738333259     1.621586126406     0.323968143022     1.007825032230
         H           -4.254170333259     0.987548126406    -1.329835856978     1.007825032230
         H           -5.119881333259     0.125770126406    -0.051295856978     1.007825032230

  Basis Set: AUG-CC-PVTZ
    Blend: AUG-CC-PVTZ
  Basis Set: (AUG-CC-PVTZ AUX)
    Blend: AUG-CC-PVTZ-JKFIT
	 Reference Energy          =    -821.7824973498162535 [Eh]
	 Singles Energy            =      -0.0000000000000000 [Eh]
	 Same-Spin Energy          =      -0.5010511143389131 [Eh]
	 Opposite-Spin Energy      =      -1.6486192822771952 [Eh]
	 Correlation Energy        =      -2.1496703966161084 [Eh]
	 Total Energy              =    -823.9321677464323557 [Eh]

	 ================> DF-SCS-MP2 Energies <==================
	-----------------------------------------------------------
	 SCS Same-Spin Scale       =       0.3333333333333333 [-]
	 SCS Opposite-Spin Scale   =       1.2000000000000000 [-]
	 SCS Same-Spin Energy      =      -0.1670170381129710 [Eh]
	 SCS Opposite-Spin Energy  =      -1.9783431387326342 [Eh]
	 SCS Correlation Energy    =      -2.1453601768456054 [Eh]
	 SCS Total Energy          =    -823.9278575266619100 [Eh]
	-----------------------------------------------------------

  Dipole Moment: [D]
     X:    -0.1964      Y:     3.7966      Z:    -1.6015     Total:     4.1252

*** Psi4 exiting successfully. Buy a developer a beer!
