                               Psi4 1.4a3.dev225

  ==> Input File <==

--------------------------------------------------------------------------
#psi4
#
memory 32 gb

molecule  {
0 1
  S       -0.2573260    -0.3323280     0.1419150
  O       -0.2860210    -1.5224110    -0.7288200
  O       -0.1913230    -0.4820040     1.6079470
  C        1.1077430     0.7304620    -0.3526940
  C        2.4495880     0.2623560     0.2167580
  C       -1.7119910     0.6470300    -0.2467030
  C       -2.9773330    -0.1490110     0.0593080
  C        2.8936370    -1.0771870    -0.3692660
  C        3.4979800     1.3449170    -0.0414460
  C       -4.2305000     0.6643980    -0.2524990
  H        1.1201440     0.7512950    -1.4483370
  H        0.8637990     1.7314470     0.0219200
  H        2.3201640     0.1499000     1.2996700
  H       -1.6515560     0.9087510    -1.3087410
  H       -1.6583250     1.5603790     0.3547230
  H       -2.9641430    -1.0716000    -0.5283160
  H       -2.9644700    -0.4377180     1.1148610
  H        2.9999490    -1.0007780    -1.4570900
  H        2.1808400    -1.8761700    -0.1584720
  H        3.8652790    -1.3613920     0.0461660
  H        3.6372140     1.5009250    -1.1167480
  H        3.2107350     2.3002430     0.4092550
  H        4.5503811     1.0207893     0.4204085
  H       -4.2653590     1.5804770     0.3446860
  H       -4.2647910     0.9464390    -1.3091180
  H       -5.1305020     0.0846610    -0.0305780
units angstrom
no_reorient  #important for SAPT in psi4, default
symmetry c1  #important for SAPT in psi4, default
}

set PROPERTIES_ORIGIN ["COM"]
properties('MP2/aug-cc-pvtz', properties = ['dipole'])
--------------------------------------------------------------------------

    Molecular point group: c1
  Charge       = 0
  Multiplicity = 1
  Basis Set: AUG-CC-PVTZ
    Blend: AUG-CC-PVTZ
  Basis Set: (AUG-CC-PVTZ AUX)
    Blend: AUG-CC-PVTZ-JKFIT

    Orbital Energies [Eh]
    ---------------------

    Doubly Occupied:

       1A    -92.170799     2A    -20.535991     3A    -20.535238
       4A    -11.275249     5A    -11.274627     6A    -11.247586
       7A    -11.241763     8A    -11.238616     9A    -11.229916
      10A    -11.212886    11A     -9.141257    12A     -6.825648
      13A     -6.825240    14A     -6.825042    15A     -1.426325
      16A     -1.317069    17A     -1.115835    18A     -1.096318
      19A     -1.012841    20A     -0.959707    21A     -0.933909
      22A     -0.849933    23A     -0.804109    24A     -0.778772
      25A     -0.687323    26A     -0.676264    27A     -0.663689
      28A     -0.642815    29A     -0.619587    30A     -0.603870
      31A     -0.591464    32A     -0.579400    33A     -0.568518
      34A     -0.553938    35A     -0.532318    36A     -0.525488
      37A     -0.509733    38A     -0.503632    39A     -0.495970
      40A     -0.484843    41A     -0.482874    42A     -0.475515
      43A     -0.471058    44A     -0.456795    45A     -0.418443

  @DF-RHF Final Energy:  -821.77697805937032

   => Energetics <=

    Nuclear Repulsion Energy =            706.8717658364164436
    One-Electron Energy =               -2530.4610630396587112
    Two-Electron Energy =                1001.8123191438719459
    Total Energy =                       -821.7769780593703217
  Basis Set: (AUG-CC-PVTZ AUX)
    Blend: AUG-CC-PVTZ-RI
    Molecular point group: c1

    Geometry (in Angstrom), charge = 0, multiplicity = 1:

       Center              X                  Y                   Z               Mass
    ------------   -----------------  -----------------  -----------------  -----------------
         S           -0.247276439082    -0.291073572617     0.121264485890    31.972071174400
         O           -0.275971439082    -1.481156572617    -0.749470514110    15.994914619570
         O           -0.181273439082    -0.440749572617     1.587296485890    15.994914619570
         C            1.117792560918     0.771716427383    -0.373344514110    12.000000000000
         C            2.459637560918     0.303610427383     0.196107485890    12.000000000000
         C           -1.701941439082     0.688284427383    -0.267353514110    12.000000000000
         C           -2.967283439082    -0.107756572617     0.038657485890    12.000000000000
         C            2.903686560918    -1.035932572617    -0.389916514110    12.000000000000
         C            3.508029560918     1.386171427383    -0.062096514110    12.000000000000
         C           -4.220450439082     0.705652427383    -0.273149514110    12.000000000000
         H            1.130193560918     0.792549427383    -1.468987514110     1.007825032230
         H            0.873848560918     1.772701427383     0.001269485890     1.007825032230
         H            2.330213560918     0.191154427383     1.279019485890     1.007825032230
         H           -1.641506439082     0.950005427383    -1.329391514110     1.007825032230
         H           -1.648275439082     1.601633427383     0.334072485890     1.007825032230
         H           -2.954093439082    -1.030345572617    -0.548966514110     1.007825032230
         H           -2.954420439082    -0.396463572617     1.094210485890     1.007825032230
         H            3.009998560918    -0.959523572617    -1.477740514110     1.007825032230
         H            2.190889560918    -1.834915572617    -0.179122514110     1.007825032230
         H            3.875328560918    -1.320137572617     0.025515485890     1.007825032230
         H            3.647263560918     1.542179427383    -1.137398514110     1.007825032230
         H            3.220784560918     2.341497427383     0.388604485890     1.007825032230
         H            4.560430660918     1.062043727383     0.399757985890     1.007825032230
         H           -4.255309439082     1.621731427383     0.324035485890     1.007825032230
         H           -4.254741439082     0.987693427383    -1.329768514110     1.007825032230
         H           -5.120452439082     0.125915427383    -0.051228514110     1.007825032230

  Basis Set: AUG-CC-PVTZ
    Blend: AUG-CC-PVTZ
  Basis Set: (AUG-CC-PVTZ AUX)
    Blend: AUG-CC-PVTZ-JKFIT
	 Reference Energy          =    -821.7769780593703217 [Eh]
	 Singles Energy            =      -0.0000000000000000 [Eh]
	 Same-Spin Energy          =      -0.5010671754171293 [Eh]
	 Opposite-Spin Energy      =      -1.6496365585680537 [Eh]
	 Correlation Energy        =      -2.1507037339851829 [Eh]
	 Total Energy              =    -823.9276817933555321 [Eh]

	 ================> DF-SCS-MP2 Energies <==================
	-----------------------------------------------------------
	 SCS Same-Spin Scale       =       0.3333333333333333 [-]
	 SCS Opposite-Spin Scale   =       1.2000000000000000 [-]
	 SCS Same-Spin Energy      =      -0.1670223918057098 [Eh]
	 SCS Opposite-Spin Energy  =      -1.9795638702816643 [Eh]
	 SCS Correlation Energy    =      -2.1465862620873741 [Eh]
	 SCS Total Energy          =    -823.9235643214576612 [Eh]
	-----------------------------------------------------------

  Dipole Moment: [D]
     X:    -0.2876      Y:     3.7961      Z:    -1.5927     Total:     4.1267

*** Psi4 exiting successfully. Buy a developer a beer!
