                               Psi4 1.4a3.dev225

  ==> Input File <==

--------------------------------------------------------------------------
#psi4
#
memory 32 gb

molecule  {
0 1
  S       -0.2573260    -0.3323280     0.1419150
  O       -0.2860210    -1.5224110    -0.7288200
  O       -0.1913230    -0.4820040     1.6079470
  C        1.1077430     0.7304620    -0.3526940
  C        2.4495880     0.2623560     0.2167580
  C       -1.7119910     0.6470300    -0.2467030
  C       -2.9773330    -0.1490110     0.0593080
  C        2.8936370    -1.0771870    -0.3692660
  C        3.4979800     1.3449170    -0.0414460
  C       -4.2305000     0.6643980    -0.2524990
  H        1.1201440     0.7512950    -1.4483370
  H        0.8637990     1.7314470     0.0219200
  H        2.3201640     0.1499000     1.2996700
  H       -1.6515560     0.9087510    -1.3087410
  H       -1.6573447     1.5770627     0.3657090
  H       -2.9641430    -1.0716000    -0.5283160
  H       -2.9644700    -0.4377180     1.1148610
  H        2.9999490    -1.0007780    -1.4570900
  H        2.1808400    -1.8761700    -0.1584720
  H        3.8652790    -1.3613920     0.0461660
  H        3.6372140     1.5009250    -1.1167480
  H        3.2107350     2.3002430     0.4092550
  H        4.4622490     1.0479330     0.3817310
  H       -4.2653590     1.5804770     0.3446860
  H       -4.2647910     0.9464390    -1.3091180
  H       -5.1305020     0.0846610    -0.0305780
units angstrom
no_reorient  #important for SAPT in psi4, default
symmetry c1  #important for SAPT in psi4, default
}

set PROPERTIES_ORIGIN ["COM"]
properties('MP2/aug-cc-pvtz', properties = ['dipole'])
--------------------------------------------------------------------------

    Molecular point group: c1
  Charge       = 0
  Multiplicity = 1
  Basis Set: AUG-CC-PVTZ
    Blend: AUG-CC-PVTZ
  Basis Set: (AUG-CC-PVTZ AUX)
    Blend: AUG-CC-PVTZ-JKFIT

    Orbital Energies [Eh]
    ---------------------

    Doubly Occupied:

       1A    -92.170254     2A    -20.535484     3A    -20.534901
       4A    -11.276993     5A    -11.273671     6A    -11.246581
       7A    -11.241579     8A    -11.229651     9A    -11.226812
      10A    -11.212905    11A     -9.140720    12A     -6.825110
      13A     -6.824699    14A     -6.824508    15A     -1.425880
      16A     -1.316650    17A     -1.115640    18A     -1.095470
      19A     -1.013310    20A     -0.959968    21A     -0.937733
      22A     -0.850677    23A     -0.803902    24A     -0.778559
      25A     -0.687577    26A     -0.675066    27A     -0.662854
      28A     -0.642676    29A     -0.619282    30A     -0.605134
      31A     -0.591058    32A     -0.580985    33A     -0.566906
      34A     -0.553817    35A     -0.539691    36A     -0.528669
      37A     -0.510294    38A     -0.502728    39A     -0.495582
      40A     -0.487164    41A     -0.482352    42A     -0.475333
      43A     -0.470457    44A     -0.456307    45A     -0.418292

  @DF-RHF Final Energy:  -821.78293916018356

   => Energetics <=

    Nuclear Repulsion Energy =            707.2096899049419108
    One-Electron Energy =               -2531.1574977591085371
    Two-Electron Energy =                1002.1648686939829531
    Total Energy =                       -821.7829391601835596
  Basis Set: (AUG-CC-PVTZ AUX)
    Blend: AUG-CC-PVTZ-RI
    Molecular point group: c1

    Geometry (in Angstrom), charge = 0, multiplicity = 1:

       Center              X                  Y                   Z               Mass
    ------------   -----------------  -----------------  -----------------  -----------------
         S           -0.246741151633    -0.291342761058     0.121434567431    31.972071174400
         O           -0.275436151633    -1.481425761058    -0.749300432569    15.994914619570
         O           -0.180738151633    -0.441018761058     1.587466567431    15.994914619570
         C            1.118327848367     0.771447238942    -0.373174432569    12.000000000000
         C            2.460172848367     0.303341238942     0.196277567431    12.000000000000
         C           -1.701406151633     0.688015238942    -0.267183432569    12.000000000000
         C           -2.966748151633    -0.108025761058     0.038827567431    12.000000000000
         C            2.904221848367    -1.036201761058    -0.389746432569    12.000000000000
         C            3.508564848367     1.385902238942    -0.061926432569    12.000000000000
         C           -4.219915151633     0.705383238942    -0.272979432569    12.000000000000
         H            1.130728848367     0.792280238942    -1.468817432569     1.007825032230
         H            0.874383848367     1.772432238942     0.001439567431     1.007825032230
         H            2.330748848367     0.190885238942     1.279189567431     1.007825032230
         H           -1.640971151633     0.949736238942    -1.329221432569     1.007825032230
         H           -1.646759851633     1.618047938942     0.345228567431     1.007825032230
         H           -2.953558151633    -1.030614761058    -0.548796432569     1.007825032230
         H           -2.953885151633    -0.396732761058     1.094380567431     1.007825032230
         H            3.010533848367    -0.959792761058    -1.477570432569     1.007825032230
         H            2.191424848367    -1.835184761058    -0.178952432569     1.007825032230
         H            3.875863848367    -1.320406761058     0.025685567431     1.007825032230
         H            3.647798848367     1.541910238942    -1.137228432569     1.007825032230
         H            3.221319848367     2.341228238942     0.388774567431     1.007825032230
         H            4.472833848367     1.088918238942     0.361250567431     1.007825032230
         H           -4.254774151633     1.621462238942     0.324205567431     1.007825032230
         H           -4.254206151633     0.987424238942    -1.329598432569     1.007825032230
         H           -5.119917151633     0.125646238942    -0.051058432569     1.007825032230

  Basis Set: AUG-CC-PVTZ
    Blend: AUG-CC-PVTZ
  Basis Set: (AUG-CC-PVTZ AUX)
    Blend: AUG-CC-PVTZ-JKFIT
	 Reference Energy          =    -821.7829391601835596 [Eh]
	 Singles Energy            =      -0.0000000000000000 [Eh]
	 Same-Spin Energy          =      -0.5010791060562368 [Eh]
	 Opposite-Spin Energy      =      -1.6490432137931490 [Eh]
	 Correlation Energy        =      -2.1501223198493857 [Eh]
	 Total Energy              =    -823.9330614800329613 [Eh]

	 ================> DF-SCS-MP2 Energies <==================
	-----------------------------------------------------------
	 SCS Same-Spin Scale       =       0.3333333333333333 [-]
	 SCS Opposite-Spin Scale   =       1.2000000000000000 [-]
	 SCS Same-Spin Energy      =      -0.1670263686854123 [Eh]
	 SCS Opposite-Spin Energy  =      -1.9788518565517788 [Eh]
	 SCS Correlation Energy    =      -2.1458782252371909 [Eh]
	 SCS Total Energy          =    -823.9288173854207571 [Eh]
	-----------------------------------------------------------

  Dipole Moment: [D]
     X:    -0.2052      Y:     3.7931      Z:    -1.5755     Total:     4.1124

*** Psi4 exiting successfully. Buy a developer a beer!
