                               Psi4 1.4a3.dev225

  ==> Input File <==

--------------------------------------------------------------------------
#psi4
#
memory 32 gb

molecule  {
0 1
  S       -0.2573260    -0.3323280     0.1419150
  O       -0.2860210    -1.5224110    -0.7288200
  O       -0.1913230    -0.4820040     1.6079470
  C        1.1077430     0.7304620    -0.3526940
  C        2.4495880     0.2623560     0.2167580
  C       -1.7119910     0.6470300    -0.2467030
  C       -2.9773330    -0.1490110     0.0593080
  C        2.8936370    -1.0771870    -0.3692660
  C        3.4979800     1.3449170    -0.0414460
  C       -4.2305000     0.6643980    -0.2524990
  H        1.1201440     0.7512950    -1.4483370
  H        0.8415469     1.8227550     0.0560916
  H        2.3201640     0.1499000     1.2996700
  H       -1.6515560     0.9087510    -1.3087410
  H       -1.6583250     1.5603790     0.3547230
  H       -2.9641430    -1.0716000    -0.5283160
  H       -2.9644700    -0.4377180     1.1148610
  H        2.9999490    -1.0007780    -1.4570900
  H        2.1808400    -1.8761700    -0.1584720
  H        3.8652790    -1.3613920     0.0461660
  H        3.6372140     1.5009250    -1.1167480
  H        3.2107350     2.3002430     0.4092550
  H        4.4622490     1.0479330     0.3817310
  H       -4.2653590     1.5804770     0.3446860
  H       -4.2647910     0.9464390    -1.3091180
  H       -5.1305020     0.0846610    -0.0305780
units angstrom
no_reorient  #important for SAPT in psi4, default
symmetry c1  #important for SAPT in psi4, default
}

set PROPERTIES_ORIGIN ["COM"]
properties('MP2/aug-cc-pvtz', properties = ['dipole'])
--------------------------------------------------------------------------

    Molecular point group: c1
  Charge       = 0
  Multiplicity = 1
  Basis Set: AUG-CC-PVTZ
    Blend: AUG-CC-PVTZ
  Basis Set: (AUG-CC-PVTZ AUX)
    Blend: AUG-CC-PVTZ-JKFIT

    Orbital Energies [Eh]
    ---------------------

    Doubly Occupied:

       1A    -92.170730     2A    -20.535538     3A    -20.535519
       4A    -11.284451     5A    -11.274502     6A    -11.247326
       7A    -11.241220     8A    -11.229525     9A    -11.226748
      10A    -11.213768    11A     -9.141137    12A     -6.825538
      13A     -6.825115    14A     -6.824926    15A     -1.426128
      16A     -1.316917    17A     -1.113769    18A     -1.095897
      19A     -1.011536    20A     -0.958005    21A     -0.937742
      22A     -0.849973    23A     -0.804976    24A     -0.776085
      25A     -0.687515    26A     -0.673304    27A     -0.661495
      28A     -0.637530    29A     -0.617911    30A     -0.604146
      31A     -0.591167    32A     -0.579574    33A     -0.568039
      34A     -0.551484    35A     -0.539387    36A     -0.528136
      37A     -0.510157    38A     -0.502248    39A     -0.495653
      40A     -0.487070    41A     -0.482151    42A     -0.475134
      43A     -0.469936    44A     -0.456268    45A     -0.418512

  @DF-RHF Final Energy:  -821.77662049372566

   => Energetics <=

    Nuclear Repulsion Energy =            706.7903528726911873
    One-Electron Energy =               -2530.3261687541075844
    Two-Electron Energy =                1001.7591953876908519
    Total Energy =                       -821.7766204937256589
  Basis Set: (AUG-CC-PVTZ AUX)
    Blend: AUG-CC-PVTZ-RI
    Molecular point group: c1

    Geometry (in Angstrom), charge = 0, multiplicity = 1:

       Center              X                  Y                   Z               Mass
    ------------   -----------------  -----------------  -----------------  -----------------
         S           -0.246598457941    -0.291801104445     0.121292161184    31.972071174400
         O           -0.275293457941    -1.481884104445    -0.749442838816    15.994914619570
         O           -0.180595457941    -0.441477104445     1.587324161184    15.994914619570
         C            1.118470542059     0.770988895555    -0.373316838816    12.000000000000
         C            2.460315542059     0.302882895555     0.196135161184    12.000000000000
         C           -1.701263457941     0.687556895555    -0.267325838816    12.000000000000
         C           -2.966605457941    -0.108484104445     0.038685161184    12.000000000000
         C            2.904364542059    -1.036660104445    -0.389888838816    12.000000000000
         C            3.508707542059     1.385443895555    -0.062068838816    12.000000000000
         C           -4.219772457941     0.704924895555    -0.273121838816    12.000000000000
         H            1.130871542059     0.791821895555    -1.468959838816     1.007825032230
         H            0.852274442059     1.863281895555     0.035468761184     1.007825032230
         H            2.330891542059     0.190426895555     1.279047161184     1.007825032230
         H           -1.640828457941     0.949277895555    -1.329363838816     1.007825032230
         H           -1.647597457941     1.600905895555     0.334100161184     1.007825032230
         H           -2.953415457941    -1.031073104445    -0.548938838816     1.007825032230
         H           -2.953742457941    -0.397191104445     1.094238161184     1.007825032230
         H            3.010676542059    -0.960251104445    -1.477712838816     1.007825032230
         H            2.191567542059    -1.835643104445    -0.179094838816     1.007825032230
         H            3.876006542059    -1.320865104445     0.025543161184     1.007825032230
         H            3.647941542059     1.541451895555    -1.137370838816     1.007825032230
         H            3.221462542059     2.340769895555     0.388632161184     1.007825032230
         H            4.472976542059     1.088459895555     0.361108161184     1.007825032230
         H           -4.254631457941     1.621003895555     0.324063161184     1.007825032230
         H           -4.254063457941     0.986965895555    -1.329740838816     1.007825032230
         H           -5.119774457941     0.125187895555    -0.051200838816     1.007825032230

  Basis Set: AUG-CC-PVTZ
    Blend: AUG-CC-PVTZ
  Basis Set: (AUG-CC-PVTZ AUX)
    Blend: AUG-CC-PVTZ-JKFIT
	 Reference Energy          =    -821.7766204937256589 [Eh]
	 Singles Energy            =      -0.0000000000000000 [Eh]
	 Same-Spin Energy          =      -0.5012724130824571 [Eh]
	 Opposite-Spin Energy      =      -1.6498347445200210 [Eh]
	 Correlation Energy        =      -2.1511071576024783 [Eh]
	 Total Energy              =    -823.9277276513281549 [Eh]

	 ================> DF-SCS-MP2 Energies <==================
	-----------------------------------------------------------
	 SCS Same-Spin Scale       =       0.3333333333333333 [-]
	 SCS Opposite-Spin Scale   =       1.2000000000000000 [-]
	 SCS Same-Spin Energy      =      -0.1670908043608190 [Eh]
	 SCS Opposite-Spin Energy  =      -1.9798016934240250 [Eh]
	 SCS Correlation Energy    =      -2.1468924977848438 [Eh]
	 SCS Total Energy          =    -823.9235129915105063 [Eh]
	-----------------------------------------------------------

  Dipole Moment: [D]
     X:    -0.1790      Y:     3.7580      Z:    -1.5776     Total:     4.0797

*** Psi4 exiting successfully. Buy a developer a beer!
