                               Psi4 1.4a3.dev225

  ==> Input File <==

--------------------------------------------------------------------------
#psi4
#
memory 32 gb

molecule  {
0 1
  S       -0.2573260    -0.3323280     0.1419150
  O       -0.2860210    -1.5224110    -0.7288200
  O       -0.1913230    -0.4820040     1.6079470
  C        1.1077430     0.7304620    -0.3526940
  C        2.4495880     0.2623560     0.2167580
  C       -1.7119910     0.6470300    -0.2467030
  C       -2.9773330    -0.1490110     0.0593080
  C        2.8936370    -1.0771870    -0.3692660
  C        3.4979800     1.3449170    -0.0414460
  C       -4.2305000     0.6643980    -0.2524990
  H        1.1201440     0.7512950    -1.4483370
  H        0.8637990     1.7314470     0.0219200
  H        2.3201640     0.1499000     1.2996700
  H       -1.6515560     0.9087510    -1.3087410
  H       -1.6583250     1.5603790     0.3547230
  H       -2.9641430    -1.0716000    -0.5283160
  H       -2.9644700    -0.4377180     1.1148610
  H        2.9999490    -1.0007780    -1.4570900
  H        2.1808400    -1.8761700    -0.1584720
  H        3.8652790    -1.3613920     0.0461660
  H        3.6372140     1.5009250    -1.1167480
  H        3.2107350     2.3002430     0.4092550
  H        4.4622490     1.0479330     0.3817310
  H       -4.2637659     1.5386123     0.3173947
  H       -4.2647910     0.9464390    -1.3091180
  H       -5.1305020     0.0846610    -0.0305780
units angstrom
no_reorient  #important for SAPT in psi4, default
symmetry c1  #important for SAPT in psi4, default
}

set PROPERTIES_ORIGIN ["COM"]
properties('MP2/aug-cc-pvtz', properties = ['dipole'])
--------------------------------------------------------------------------

    Molecular point group: c1
  Charge       = 0
  Multiplicity = 1
  Basis Set: AUG-CC-PVTZ
    Blend: AUG-CC-PVTZ
  Basis Set: (AUG-CC-PVTZ AUX)
    Blend: AUG-CC-PVTZ-JKFIT

    Orbital Energies [Eh]
    ---------------------

    Doubly Occupied:

       1A    -92.170080     2A    -20.535446     3A    -20.534669
       4A    -11.274704     5A    -11.273661     6A    -11.246561
       7A    -11.240845     8A    -11.226801     9A    -11.223329
      10A    -11.212868    11A     -9.140557    12A     -6.824946
      13A     -6.824536    14A     -6.824344    15A     -1.425755
      16A     -1.316523    17A     -1.115731    18A     -1.096502
      19A     -1.014315    20A     -0.962317    21A     -0.937719
      22A     -0.852889    23A     -0.805420    24A     -0.778695
      25A     -0.687812    26A     -0.675999    27A     -0.663938
      28A     -0.642719    29A     -0.619977    30A     -0.605156
      31A     -0.592602    32A     -0.581383    33A     -0.571420
      34A     -0.553791    35A     -0.539646    36A     -0.528307
      37A     -0.510988    38A     -0.503539    39A     -0.496916
      40A     -0.487321    41A     -0.482377    42A     -0.475287
      43A     -0.470374    44A     -0.456287    45A     -0.418152

  @DF-RHF Final Energy:  -821.78246111254339

   => Energetics <=

    Nuclear Repulsion Energy =            707.5296079940602567
    One-Electron Energy =               -2531.7777339069921254
    Two-Electron Energy =                1002.4656648003883674
    Total Energy =                       -821.7824611125433876
  Basis Set: (AUG-CC-PVTZ AUX)
    Blend: AUG-CC-PVTZ-RI
    Molecular point group: c1

    Geometry (in Angstrom), charge = 0, multiplicity = 1:

       Center              X                  Y                   Z               Mass
    ------------   -----------------  -----------------  -----------------  -----------------
         S           -0.246744915459    -0.290983156051     0.121669667087    31.972071174400
         O           -0.275439915459    -1.481066156051    -0.749065332913    15.994914619570
         O           -0.180741915459    -0.440659156051     1.587701667087    15.994914619570
         C            1.118324084541     0.771806843949    -0.372939332913    12.000000000000
         C            2.460169084541     0.303700843949     0.196512667087    12.000000000000
         C           -1.701409915459     0.688374843949    -0.266948332913    12.000000000000
         C           -2.966751915459    -0.107666156051     0.039062667087    12.000000000000
         C            2.904218084541    -1.035842156051    -0.389511332913    12.000000000000
         C            3.508561084541     1.386261843949    -0.061691332913    12.000000000000
         C           -4.219918915459     0.705742843949    -0.272744332913    12.000000000000
         H            1.130725084541     0.792639843949    -1.468582332913     1.007825032230
         H            0.874380084541     1.772791843949     0.001674667087     1.007825032230
         H            2.330745084541     0.191244843949     1.279424667087     1.007825032230
         H           -1.640974915459     0.950095843949    -1.328986332913     1.007825032230
         H           -1.647743915459     1.601723843949     0.334477667087     1.007825032230
         H           -2.953561915459    -1.030255156051    -0.548561332913     1.007825032230
         H           -2.953888915459    -0.396373156051     1.094615667087     1.007825032230
         H            3.010530084541    -0.959433156051    -1.477335332913     1.007825032230
         H            2.191421084541    -1.834825156051    -0.178717332913     1.007825032230
         H            3.875860084541    -1.320047156051     0.025920667087     1.007825032230
         H            3.647795084541     1.542269843949    -1.136993332913     1.007825032230
         H            3.221316084541     2.341587843949     0.389009667087     1.007825032230
         H            4.472830084541     1.089277843949     0.361485667087     1.007825032230
         H           -4.253184815459     1.579957143949     0.297149367087     1.007825032230
         H           -4.254209915459     0.987783843949    -1.329363332913     1.007825032230
         H           -5.119920915459     0.126005843949    -0.050823332913     1.007825032230

  Basis Set: AUG-CC-PVTZ
    Blend: AUG-CC-PVTZ
  Basis Set: (AUG-CC-PVTZ AUX)
    Blend: AUG-CC-PVTZ-JKFIT
	 Reference Energy          =    -821.7824611125433876 [Eh]
	 Singles Energy            =      -0.0000000000000000 [Eh]
	 Same-Spin Energy          =      -0.5010789688295664 [Eh]
	 Opposite-Spin Energy      =      -1.6486454833148232 [Eh]
	 Correlation Energy        =      -2.1497244521443895 [Eh]
	 Total Energy              =    -823.9321855646877566 [Eh]

	 ================> DF-SCS-MP2 Energies <==================
	-----------------------------------------------------------
	 SCS Same-Spin Scale       =       0.3333333333333333 [-]
	 SCS Opposite-Spin Scale   =       1.2000000000000000 [-]
	 SCS Same-Spin Energy      =      -0.1670263229431888 [Eh]
	 SCS Opposite-Spin Energy  =      -1.9783745799777877 [Eh]
	 SCS Correlation Energy    =      -2.1454009029209766 [Eh]
	 SCS Total Energy          =    -823.9278620154643704 [Eh]
	-----------------------------------------------------------

  Dipole Moment: [D]
     X:    -0.2116      Y:     3.8246      Z:    -1.5625     Total:     4.1368

*** Psi4 exiting successfully. Buy a developer a beer!
