                               Psi4 1.4a3.dev225

  ==> Input File <==

--------------------------------------------------------------------------
#psi4
#
memory 32 gb

molecule  {
0 1
  S       -0.2573260    -0.3323280     0.1419150
  O       -0.2860210    -1.5224110    -0.7288200
  O       -0.1913230    -0.4820040     1.6079470
  C        1.1077430     0.7304620    -0.3526940
  C        2.4495880     0.2623560     0.2167580
  C       -1.7119910     0.6470300    -0.2467030
  C       -2.9773330    -0.1490110     0.0593080
  C        2.8936370    -1.0771870    -0.3692660
  C        3.4979800     1.3449170    -0.0414460
  C       -4.2305000     0.6643980    -0.2524990
  H        1.1201440     0.7512950    -1.4483370
  H        0.8637990     1.7314470     0.0219200
  H        2.3201640     0.1499000     1.2996700
  H       -1.6515560     0.9087510    -1.3087410
  H       -1.6681279     1.3935416     0.2448632
  H       -2.9641430    -1.0716000    -0.5283160
  H       -2.9644700    -0.4377180     1.1148610
  H        2.9999490    -1.0007780    -1.4570900
  H        2.1808400    -1.8761700    -0.1584720
  H        3.8652790    -1.3613920     0.0461660
  H        3.6372140     1.5009250    -1.1167480
  H        3.2107350     2.3002430     0.4092550
  H        4.4622490     1.0479330     0.3817310
  H       -4.2653590     1.5804770     0.3446860
  H       -4.2647910     0.9464390    -1.3091180
  H       -5.1305020     0.0846610    -0.0305780
units angstrom
no_reorient  #important for SAPT in psi4, default
symmetry c1  #important for SAPT in psi4, default
}

set PROPERTIES_ORIGIN ["COM"]
properties('MP2/aug-cc-pvtz', properties = ['dipole'])
--------------------------------------------------------------------------

    Molecular point group: c1
  Charge       = 0
  Multiplicity = 1
  Basis Set: AUG-CC-PVTZ
    Blend: AUG-CC-PVTZ
  Basis Set: (AUG-CC-PVTZ AUX)
    Blend: AUG-CC-PVTZ-JKFIT

    Orbital Energies [Eh]
    ---------------------

    Doubly Occupied:

       1A    -92.169551     2A    -20.536003     3A    -20.533721
       4A    -11.274139     5A    -11.251777     6A    -11.246820
       7A    -11.240286     8A    -11.229637     9A    -11.226985
      10A    -11.212992    11A     -9.140121    12A     -6.824495
      13A     -6.824102    14A     -6.823909    15A     -1.425720
      16A     -1.316398    17A     -1.118662    18A     -1.104974
      19A     -1.015266    20A     -0.968567    21A     -0.937901
      22A     -0.850671    23A     -0.820398    24A     -0.780480
      25A     -0.696824    26A     -0.682069    27A     -0.667368
      28A     -0.643034    29A     -0.619170    30A     -0.605574
      31A     -0.598013    32A     -0.582239    33A     -0.575578
      34A     -0.553912    35A     -0.539751    36A     -0.528201
      37A     -0.509950    38A     -0.505602    39A     -0.496272
      40A     -0.487532    41A     -0.482886    42A     -0.475456
      43A     -0.470218    44A     -0.456853    45A     -0.418107

  @DF-RHF Final Energy:  -821.75021140111517

   => Energetics <=

    Nuclear Repulsion Energy =            708.5140414968575442
    One-Electron Energy =               -2533.5921361712839825
    Two-Electron Energy =                1003.3278832733112722
    Total Energy =                       -821.7502114011151662
  Basis Set: (AUG-CC-PVTZ AUX)
    Blend: AUG-CC-PVTZ-RI
    Molecular point group: c1

    Geometry (in Angstrom), charge = 0, multiplicity = 1:

       Center              X                  Y                   Z               Mass
    ------------   -----------------  -----------------  -----------------  -----------------
         S           -0.246674921084    -0.290215572160     0.122176803850    31.972071174400
         O           -0.275369921084    -1.480298572160    -0.748558196150    15.994914619570
         O           -0.180671921084    -0.439891572160     1.588208803850    15.994914619570
         C            1.118394078916     0.772574427840    -0.372432196150    12.000000000000
         C            2.460239078916     0.304468427840     0.197019803850    12.000000000000
         C           -1.701339921084     0.689142427840    -0.266441196150    12.000000000000
         C           -2.966681921084    -0.106898572160     0.039569803850    12.000000000000
         C            2.904288078916    -1.035074572160    -0.389004196150    12.000000000000
         C            3.508631078916     1.387029427840    -0.061184196150    12.000000000000
         C           -4.219848921084     0.706510427840    -0.272237196150    12.000000000000
         H            1.130795078916     0.793407427840    -1.468075196150     1.007825032230
         H            0.874450078916     1.773559427840     0.002181803850     1.007825032230
         H            2.330815078916     0.192012427840     1.279931803850     1.007825032230
         H           -1.640904921084     0.950863427840    -1.328479196150     1.007825032230
         H           -1.657476821084     1.435654027840     0.225125003850     1.007825032230
         H           -2.953491921084    -1.029487572160    -0.548054196150     1.007825032230
         H           -2.953818921084    -0.395605572160     1.095122803850     1.007825032230
         H            3.010600078916    -0.958665572160    -1.476828196150     1.007825032230
         H            2.191491078916    -1.834057572160    -0.178210196150     1.007825032230
         H            3.875930078916    -1.319279572160     0.026427803850     1.007825032230
         H            3.647865078916     1.543037427840    -1.136486196150     1.007825032230
         H            3.221386078916     2.342355427840     0.389516803850     1.007825032230
         H            4.472900078916     1.090045427840     0.361992803850     1.007825032230
         H           -4.254707921084     1.622589427840     0.324947803850     1.007825032230
         H           -4.254139921084     0.988551427840    -1.328856196150     1.007825032230
         H           -5.119850921084     0.126773427840    -0.050316196150     1.007825032230

  Basis Set: AUG-CC-PVTZ
    Blend: AUG-CC-PVTZ
  Basis Set: (AUG-CC-PVTZ AUX)
    Blend: AUG-CC-PVTZ-JKFIT
	 Reference Energy          =    -821.7502114011151662 [Eh]
	 Singles Energy            =      -0.0000000000000000 [Eh]
	 Same-Spin Energy          =      -0.5008478446521544 [Eh]
	 Opposite-Spin Energy      =      -1.6481199404354197 [Eh]
	 Correlation Energy        =      -2.1489677850875739 [Eh]
	 Total Energy              =    -823.8991791862027867 [Eh]

	 ================> DF-SCS-MP2 Energies <==================
	-----------------------------------------------------------
	 SCS Same-Spin Scale       =       0.3333333333333333 [-]
	 SCS Opposite-Spin Scale   =       1.2000000000000000 [-]
	 SCS Same-Spin Energy      =      -0.1669492815507181 [Eh]
	 SCS Opposite-Spin Energy  =      -1.9777439285225036 [Eh]
	 SCS Correlation Energy    =      -2.1446932100732217 [Eh]
	 SCS Total Energy          =    -823.8949046111883945 [Eh]
	-----------------------------------------------------------

  Dipole Moment: [D]
     X:    -0.1766      Y:     3.8318      Z:    -1.5744     Total:     4.1464

*** Psi4 exiting successfully. Buy a developer a beer!
