                               Psi4 1.4a3.dev225

  ==> Input File <==

--------------------------------------------------------------------------
#psi4
#
memory 32 gb

molecule  {
0 1
  S       -0.2573260    -0.3323280     0.1419150
  O       -0.2860210    -1.5224110    -0.7288200
  O       -0.1913230    -0.4820040     1.6079470
  C        1.1077430     0.7304620    -0.3526940
  C        2.4495880     0.2623560     0.2167580
  C       -1.7119910     0.6470300    -0.2467030
  C       -2.9773330    -0.1490110     0.0593080
  C        2.8936370    -1.0771870    -0.3692660
  C        3.4979800     1.3449170    -0.0414460
  C       -4.2305000     0.6643980    -0.2524990
  H        1.1224071     0.7550970    -1.6482881
  H        0.8637990     1.7314470     0.0219200
  H        2.3201640     0.1499000     1.2996700
  H       -1.6515560     0.9087510    -1.3087410
  H       -1.6583250     1.5603790     0.3547230
  H       -2.9641430    -1.0716000    -0.5283160
  H       -2.9644700    -0.4377180     1.1148610
  H        2.9999490    -1.0007780    -1.4570900
  H        2.1808400    -1.8761700    -0.1584720
  H        3.8652790    -1.3613920     0.0461660
  H        3.6372140     1.5009250    -1.1167480
  H        3.2107350     2.3002430     0.4092550
  H        4.4622490     1.0479330     0.3817310
  H       -4.2653590     1.5804770     0.3446860
  H       -4.2647910     0.9464390    -1.3091180
  H       -5.1305020     0.0846610    -0.0305780
units angstrom
no_reorient  #important for SAPT in psi4, default
symmetry c1  #important for SAPT in psi4, default
}

set PROPERTIES_ORIGIN ["COM"]
properties('MP2/aug-cc-pvtz', properties = ['dipole'])
--------------------------------------------------------------------------

    Molecular point group: c1
  Charge       = 0
  Multiplicity = 1
  Basis Set: AUG-CC-PVTZ
    Blend: AUG-CC-PVTZ
  Basis Set: (AUG-CC-PVTZ AUX)
    Blend: AUG-CC-PVTZ-JKFIT

    Orbital Energies [Eh]
    ---------------------

    Doubly Occupied:

       1A    -92.171486     2A    -20.537252     3A    -20.534449
       4A    -11.293845     5A    -11.274738     6A    -11.248453
       7A    -11.241454     8A    -11.229652     9A    -11.226910
      10A    -11.213021    11A     -9.141814    12A     -6.826226
      13A     -6.825799    14A     -6.825599    15A     -1.426430
      16A     -1.317183    17A     -1.112658    18A     -1.096007
      19A     -1.010985    20A     -0.956393    21A     -0.937773
      22A     -0.850059    23A     -0.805353    24A     -0.769925
      25A     -0.686166    26A     -0.673133    27A     -0.661484
      28A     -0.641476    29A     -0.618851    30A     -0.603708
      31A     -0.591302    32A     -0.568441    33A     -0.565304
      34A     -0.549479    35A     -0.536703    36A     -0.528369
      37A     -0.510440    38A     -0.503162    39A     -0.495448
      40A     -0.487799    41A     -0.478386    42A     -0.475813
      43A     -0.471103    44A     -0.455003    45A     -0.418878

  @DF-RHF Final Energy:  -821.76282032102017

   => Energetics <=

    Nuclear Repulsion Energy =            706.2958290367199652
    One-Electron Energy =               -2529.3294762936711777
    Two-Electron Energy =                1001.2708269359309270
    Total Energy =                       -821.7628203210201718
  Basis Set: (AUG-CC-PVTZ AUX)
    Blend: AUG-CC-PVTZ-RI
    Molecular point group: c1

    Geometry (in Angstrom), charge = 0, multiplicity = 1:

       Center              X                  Y                   Z               Mass
    ------------   -----------------  -----------------  -----------------  -----------------
         S           -0.246749030607    -0.291263641495     0.122730145745    31.972071174400
         O           -0.275444030607    -1.481346641495    -0.748004854255    15.994914619570
         O           -0.180746030607    -0.440939641495     1.588762145745    15.994914619570
         C            1.118319969393     0.771526358505    -0.371878854255    12.000000000000
         C            2.460164969393     0.303420358505     0.197573145745    12.000000000000
         C           -1.701414030607     0.688094358505    -0.265887854255    12.000000000000
         C           -2.966756030607    -0.107946641495     0.040123145745    12.000000000000
         C            2.904213969393    -1.036122641495    -0.388450854255    12.000000000000
         C            3.508556969393     1.385981358505    -0.060630854255    12.000000000000
         C           -4.219923030607     0.705462358505    -0.271683854255    12.000000000000
         H            1.132984069393     0.796161358505    -1.667472954255     1.007825032230
         H            0.874375969393     1.772511358505     0.002735145745     1.007825032230
         H            2.330740969393     0.190964358505     1.280485145745     1.007825032230
         H           -1.640979030607     0.949815358505    -1.327925854255     1.007825032230
         H           -1.647748030607     1.601443358505     0.335538145745     1.007825032230
         H           -2.953566030607    -1.030535641495    -0.547500854255     1.007825032230
         H           -2.953893030607    -0.396653641495     1.095676145745     1.007825032230
         H            3.010525969393    -0.959713641495    -1.476274854255     1.007825032230
         H            2.191416969393    -1.835105641495    -0.177656854255     1.007825032230
         H            3.875855969393    -1.320327641495     0.026981145745     1.007825032230
         H            3.647790969393     1.541989358505    -1.135932854255     1.007825032230
         H            3.221311969393     2.341307358505     0.390070145745     1.007825032230
         H            4.472825969393     1.088997358505     0.362546145745     1.007825032230
         H           -4.254782030607     1.621541358505     0.325501145745     1.007825032230
         H           -4.254214030607     0.987503358505    -1.328302854255     1.007825032230
         H           -5.119925030607     0.125725358505    -0.049762854255     1.007825032230

  Basis Set: AUG-CC-PVTZ
    Blend: AUG-CC-PVTZ
  Basis Set: (AUG-CC-PVTZ AUX)
    Blend: AUG-CC-PVTZ-JKFIT
	 Reference Energy          =    -821.7628203210201718 [Eh]
	 Singles Energy            =      -0.0000000000000000 [Eh]
	 Same-Spin Energy          =      -0.5015245175631624 [Eh]
	 Opposite-Spin Energy      =      -1.6509469761194588 [Eh]
	 Correlation Energy        =      -2.1524714936826213 [Eh]
	 Total Energy              =    -823.9152918147027549 [Eh]

	 ================> DF-SCS-MP2 Energies <==================
	-----------------------------------------------------------
	 SCS Same-Spin Scale       =       0.3333333333333333 [-]
	 SCS Opposite-Spin Scale   =       1.2000000000000000 [-]
	 SCS Same-Spin Energy      =      -0.1671748391877208 [Eh]
	 SCS Opposite-Spin Energy  =      -1.9811363713433505 [Eh]
	 SCS Correlation Energy    =      -2.1483112105310713 [Eh]
	 SCS Total Energy          =    -823.9111315315512911 [Eh]
	-----------------------------------------------------------

  Dipole Moment: [D]
     X:    -0.1934      Y:     3.7658      Z:    -1.5062     Total:     4.0604

*** Psi4 exiting successfully. Buy a developer a beer!
