                               Psi4 1.4a3.dev225

  ==> Input File <==

--------------------------------------------------------------------------
#psi4
#
memory 32 gb

molecule  {
0 1
  S       -0.2573260    -0.3323280     0.1419150
  O       -0.2860210    -1.5224110    -0.7288200
  O       -0.1913230    -0.4820040     1.6079470
  C        1.1077430     0.7304620    -0.3526940
  C        2.4495880     0.2623560     0.2167580
  C       -1.7119910     0.6470300    -0.2467030
  C       -2.9773330    -0.1490110     0.0593080
  C        2.8936370    -1.0771870    -0.3692660
  C        3.4979800     1.3449170    -0.0414460
  C       -4.2305000     0.6643980    -0.2524990
  H        1.1201440     0.7512950    -1.4483370
  H        0.8637990     1.7314470     0.0219200
  H        2.3201640     0.1499000     1.2996700
  H       -1.6515560     0.9087510    -1.3087410
  H       -1.6583250     1.5603790     0.3547230
  H       -2.9641430    -1.0716000    -0.5283160
  H       -2.9644700    -0.4377180     1.1148610
  H        2.9805432    -1.0147254    -1.2585229
  H        2.1808400    -1.8761700    -0.1584720
  H        3.8652790    -1.3613920     0.0461660
  H        3.6372140     1.5009250    -1.1167480
  H        3.2107350     2.3002430     0.4092550
  H        4.4622490     1.0479330     0.3817310
  H       -4.2653590     1.5804770     0.3446860
  H       -4.2647910     0.9464390    -1.3091180
  H       -5.1305020     0.0846610    -0.0305780
units angstrom
no_reorient  #important for SAPT in psi4, default
symmetry c1  #important for SAPT in psi4, default
}

set PROPERTIES_ORIGIN ["COM"]
properties('MP2/aug-cc-pvtz', properties = ['dipole'])
--------------------------------------------------------------------------

    Molecular point group: c1
  Charge       = 0
  Multiplicity = 1
  Basis Set: AUG-CC-PVTZ
    Blend: AUG-CC-PVTZ
  Basis Set: (AUG-CC-PVTZ AUX)
    Blend: AUG-CC-PVTZ-JKFIT

    Orbital Energies [Eh]
    ---------------------

    Doubly Occupied:

       1A    -92.169972     2A    -20.535180     3A    -20.534651
       4A    -11.274660     5A    -11.273571     6A    -11.244644
       7A    -11.241322     8A    -11.229576     9A    -11.226654
      10A    -11.187372    11A     -9.140444    12A     -6.824832
      13A     -6.824423    14A     -6.824232    15A     -1.425612
      16A     -1.316387    17A     -1.117645    18A     -1.096454
      19A     -1.015901    20A     -0.963765    21A     -0.951980
      22A     -0.851983    23A     -0.807574    24A     -0.784181
      25A     -0.688227    26A     -0.675569    27A     -0.663716
      28A     -0.643308    29A     -0.620716    30A     -0.606348
      31A     -0.593502    32A     -0.589805    33A     -0.568161
      34A     -0.563556    35A     -0.546890    36A     -0.528008
      37A     -0.509889    38A     -0.502792    39A     -0.495628
      40A     -0.489030    41A     -0.482432    42A     -0.476325
      43A     -0.470473    44A     -0.456182    45A     -0.417963

  @DF-RHF Final Energy:  -821.74973317932427

   => Energetics <=

    Nuclear Repulsion Energy =            708.3489615021320560
    One-Electron Energy =               -2533.2943158634161591
    Two-Electron Energy =                1003.1956211819597229
    Total Energy =                       -821.7497331793242665
  Basis Set: (AUG-CC-PVTZ AUX)
    Blend: AUG-CC-PVTZ-RI
    Molecular point group: c1

    Geometry (in Angstrom), charge = 0, multiplicity = 1:

       Center              X                  Y                   Z               Mass
    ------------   -----------------  -----------------  -----------------  -----------------
         S           -0.246615939951    -0.291154624457     0.120282441961    31.972071174400
         O           -0.275310939951    -1.481237624457    -0.750452558039    15.994914619570
         O           -0.180612939951    -0.440830624457     1.586314441961    15.994914619570
         C            1.118453060049     0.771635375543    -0.374326558039    12.000000000000
         C            2.460298060049     0.303529375543     0.195125441961    12.000000000000
         C           -1.701280939951     0.688203375543    -0.268335558039    12.000000000000
         C           -2.966622939951    -0.107837624457     0.037675441961    12.000000000000
         C            2.904347060049    -1.036013624457    -0.390898558039    12.000000000000
         C            3.508690060049     1.386090375543    -0.063078558039    12.000000000000
         C           -4.219789939951     0.705571375543    -0.274131558039    12.000000000000
         H            1.130854060049     0.792468375543    -1.469969558039     1.007825032230
         H            0.874509060049     1.772620375543     0.000287441961     1.007825032230
         H            2.330874060049     0.191073375543     1.278037441961     1.007825032230
         H           -1.640845939951     0.949924375543    -1.330373558039     1.007825032230
         H           -1.647614939951     1.601552375543     0.333090441961     1.007825032230
         H           -2.953432939951    -1.030426624457    -0.549948558039     1.007825032230
         H           -2.953759939951    -0.396544624457     1.093228441961     1.007825032230
         H            2.991253260049    -0.973552024457    -1.280155458039     1.007825032230
         H            2.191550060049    -1.834996624457    -0.180104558039     1.007825032230
         H            3.875989060049    -1.320218624457     0.024533441961     1.007825032230
         H            3.647924060049     1.542098375543    -1.138380558039     1.007825032230
         H            3.221445060049     2.341416375543     0.387622441961     1.007825032230
         H            4.472959060049     1.089106375543     0.360098441961     1.007825032230
         H           -4.254648939951     1.621650375543     0.323053441961     1.007825032230
         H           -4.254080939951     0.987612375543    -1.330750558039     1.007825032230
         H           -5.119791939951     0.125834375543    -0.052210558039     1.007825032230

  Basis Set: AUG-CC-PVTZ
    Blend: AUG-CC-PVTZ
  Basis Set: (AUG-CC-PVTZ AUX)
    Blend: AUG-CC-PVTZ-JKFIT
	 Reference Energy          =    -821.7497331793242665 [Eh]
	 Singles Energy            =      -0.0000000000000000 [Eh]
	 Same-Spin Energy          =      -0.5011430848215841 [Eh]
	 Opposite-Spin Energy      =      -1.6483113622878736 [Eh]
	 Correlation Energy        =      -2.1494544471094574 [Eh]
	 Total Energy              =    -823.8991876264336724 [Eh]

	 ================> DF-SCS-MP2 Energies <==================
	-----------------------------------------------------------
	 SCS Same-Spin Scale       =       0.3333333333333333 [-]
	 SCS Opposite-Spin Scale   =       1.2000000000000000 [-]
	 SCS Same-Spin Energy      =      -0.1670476949405280 [Eh]
	 SCS Opposite-Spin Energy  =      -1.9779736347454482 [Eh]
	 SCS Correlation Energy    =      -2.1450213296859761 [Eh]
	 SCS Total Energy          =    -823.8947545090102267 [Eh]
	-----------------------------------------------------------

  Dipole Moment: [D]
     X:    -0.1815      Y:     3.7918      Z:    -1.6605     Total:     4.1435

*** Psi4 exiting successfully. Buy a developer a beer!
