                               Psi4 1.4a3.dev225

  ==> Input File <==

--------------------------------------------------------------------------
#psi4
#
memory 32 gb

molecule  {
0 1
  S       -0.2573260    -0.3323280     0.1419150
  O       -0.2860210    -1.5224110    -0.7288200
  O       -0.1913230    -0.4820040     1.6079470
  C        1.0698102     0.7009290    -0.3389497
  C        2.4495880     0.2623560     0.2167580
  C       -1.7119910     0.6470300    -0.2467030
  C       -2.9773330    -0.1490110     0.0593080
  C        2.8936370    -1.0771870    -0.3692660
  C        3.4979800     1.3449170    -0.0414460
  C       -4.2305000     0.6643980    -0.2524990
  H        1.1201440     0.7512950    -1.4483370
  H        0.8637990     1.7314470     0.0219200
  H        2.3201640     0.1499000     1.2996700
  H       -1.6515560     0.9087510    -1.3087410
  H       -1.6583250     1.5603790     0.3547230
  H       -2.9641430    -1.0716000    -0.5283160
  H       -2.9644700    -0.4377180     1.1148610
  H        2.9999490    -1.0007780    -1.4570900
  H        2.1808400    -1.8761700    -0.1584720
  H        3.8652790    -1.3613920     0.0461660
  H        3.6372140     1.5009250    -1.1167480
  H        3.2107350     2.3002430     0.4092550
  H        4.4622490     1.0479330     0.3817310
  H       -4.2653590     1.5804770     0.3446860
  H       -4.2647910     0.9464390    -1.3091180
  H       -5.1305020     0.0846610    -0.0305780
units angstrom
no_reorient  #important for SAPT in psi4, default
symmetry c1  #important for SAPT in psi4, default
}

set PROPERTIES_ORIGIN ["COM"]
properties('MP2/aug-cc-pvtz', properties = ['dipole'])
--------------------------------------------------------------------------

    Molecular point group: c1
  Charge       = 0
  Multiplicity = 1
  Basis Set: AUG-CC-PVTZ
    Blend: AUG-CC-PVTZ
  Basis Set: (AUG-CC-PVTZ AUX)
    Blend: AUG-CC-PVTZ-JKFIT

    Orbital Energies [Eh]
    ---------------------

    Doubly Occupied:

       1A    -92.171226     2A    -20.535417     3A    -20.534722
       4A    -11.274585     5A    -11.273343     6A    -11.248727
       7A    -11.241313     8A    -11.229592     9A    -11.227751
      10A    -11.212617    11A     -9.142011    12A     -6.826509
      13A     -6.826051    14A     -6.825796    15A     -1.427529
      16A     -1.317095    17A     -1.115234    18A     -1.095673
      19A     -1.018196    20A     -0.961424    21A     -0.937513
      22A     -0.850411    23A     -0.806365    24A     -0.776488
      25A     -0.691636    26A     -0.675419    27A     -0.662855
      28A     -0.642299    29A     -0.618854    30A     -0.603640
      31A     -0.591524    32A     -0.578577    33A     -0.568159
      34A     -0.553565    35A     -0.539448    36A     -0.528962
      37A     -0.510203    38A     -0.502657    39A     -0.495469
      40A     -0.484099    41A     -0.481845    42A     -0.476312
      43A     -0.470619    44A     -0.455779    45A     -0.423664

  @DF-RHF Final Energy:  -821.78144157174381

   => Energetics <=

    Nuclear Repulsion Energy =            708.2117840182194186
    One-Electron Energy =               -2533.1241078696439217
    Two-Electron Energy =                1003.1308822796805771
    Total Energy =                       -821.7814415717438123
  Basis Set: (AUG-CC-PVTZ AUX)
    Blend: AUG-CC-PVTZ-RI
    Molecular point group: c1

    Geometry (in Angstrom), charge = 0, multiplicity = 1:

       Center              X                  Y                   Z               Mass
    ------------   -----------------  -----------------  -----------------  -----------------
         S           -0.243961033219    -0.289080485423     0.120496896929    31.972071174400
         O           -0.272656033219    -1.479163485423    -0.750238103071    15.994914619570
         O           -0.177958033219    -0.438756485423     1.586528896929    15.994914619570
         C            1.083175166781     0.744176514577    -0.360367803071    12.000000000000
         C            2.462952966781     0.305603514577     0.195339896929    12.000000000000
         C           -1.698626033219     0.690277514577    -0.268121103071    12.000000000000
         C           -2.963968033219    -0.105763485423     0.037889896929    12.000000000000
         C            2.907001966781    -1.033939485423    -0.390684103071    12.000000000000
         C            3.511344966781     1.388164514577    -0.062864103071    12.000000000000
         C           -4.217135033219     0.707645514577    -0.273917103071    12.000000000000
         H            1.133508966781     0.794542514577    -1.469755103071     1.007825032230
         H            0.877163966781     1.774694514577     0.000501896929     1.007825032230
         H            2.333528966781     0.193147514577     1.278251896929     1.007825032230
         H           -1.638191033219     0.951998514577    -1.330159103071     1.007825032230
         H           -1.644960033219     1.603626514577     0.333304896929     1.007825032230
         H           -2.950778033219    -1.028352485423    -0.549734103071     1.007825032230
         H           -2.951105033219    -0.394470485423     1.093442896929     1.007825032230
         H            3.013313966781    -0.957530485423    -1.478508103071     1.007825032230
         H            2.194204966781    -1.832922485423    -0.179890103071     1.007825032230
         H            3.878643966781    -1.318144485423     0.024747896929     1.007825032230
         H            3.650578966781     1.544172514577    -1.138166103071     1.007825032230
         H            3.224099966781     2.343490514577     0.387836896929     1.007825032230
         H            4.475613966781     1.091180514577     0.360312896929     1.007825032230
         H           -4.251994033219     1.623724514577     0.323267896929     1.007825032230
         H           -4.251426033219     0.989686514577    -1.330536103071     1.007825032230
         H           -5.117137033219     0.127908514577    -0.051996103071     1.007825032230

  Basis Set: AUG-CC-PVTZ
    Blend: AUG-CC-PVTZ
  Basis Set: (AUG-CC-PVTZ AUX)
    Blend: AUG-CC-PVTZ-JKFIT
	 Reference Energy          =    -821.7814415717438123 [Eh]
	 Singles Energy            =      -0.0000000000000000 [Eh]
	 Same-Spin Energy          =      -0.5011413784771561 [Eh]
	 Opposite-Spin Energy      =      -1.6488619813439316 [Eh]
	 Correlation Energy        =      -2.1500033598210875 [Eh]
	 Total Energy              =    -823.9314449315648972 [Eh]

	 ================> DF-SCS-MP2 Energies <==================
	-----------------------------------------------------------
	 SCS Same-Spin Scale       =       0.3333333333333333 [-]
	 SCS Opposite-Spin Scale   =       1.2000000000000000 [-]
	 SCS Same-Spin Energy      =      -0.1670471261590520 [Eh]
	 SCS Opposite-Spin Energy  =      -1.9786343776127178 [Eh]
	 SCS Correlation Energy    =      -2.1456815037717698 [Eh]
	 SCS Total Energy          =    -823.9271230755156239 [Eh]
	-----------------------------------------------------------

  Dipole Moment: [D]
     X:    -0.1372      Y:     3.8324      Z:    -1.5824     Total:     4.1485

*** Psi4 exiting successfully. Buy a developer a beer!
