                               Psi4 1.4a3.dev225

  ==> Input File <==

--------------------------------------------------------------------------
#psi4
#
memory 32 gb

molecule  {
0 1
  S       -0.2573260    -0.3323280     0.1419150
  O       -0.2860210    -1.5224110    -0.7288200
  O       -0.1913230    -0.4820040     1.6079470
  C        1.2594741     0.8485940    -0.4076711
  C        2.4495880     0.2623560     0.2167580
  C       -1.7119910     0.6470300    -0.2467030
  C       -2.9773330    -0.1490110     0.0593080
  C        2.8936370    -1.0771870    -0.3692660
  C        3.4979800     1.3449170    -0.0414460
  C       -4.2305000     0.6643980    -0.2524990
  H        1.1201440     0.7512950    -1.4483370
  H        0.8637990     1.7314470     0.0219200
  H        2.3201640     0.1499000     1.2996700
  H       -1.6515560     0.9087510    -1.3087410
  H       -1.6583250     1.5603790     0.3547230
  H       -2.9641430    -1.0716000    -0.5283160
  H       -2.9644700    -0.4377180     1.1148610
  H        2.9999490    -1.0007780    -1.4570900
  H        2.1808400    -1.8761700    -0.1584720
  H        3.8652790    -1.3613920     0.0461660
  H        3.6372140     1.5009250    -1.1167480
  H        3.2107350     2.3002430     0.4092550
  H        4.4622490     1.0479330     0.3817310
  H       -4.2653590     1.5804770     0.3446860
  H       -4.2647910     0.9464390    -1.3091180
  H       -5.1305020     0.0846610    -0.0305780
units angstrom
no_reorient  #important for SAPT in psi4, default
symmetry c1  #important for SAPT in psi4, default
}

set PROPERTIES_ORIGIN ["COM"]
properties('MP2/aug-cc-pvtz', properties = ['dipole'])
--------------------------------------------------------------------------

    Molecular point group: c1
  Charge       = 0
  Multiplicity = 1
  Basis Set: AUG-CC-PVTZ
    Blend: AUG-CC-PVTZ
  Basis Set: (AUG-CC-PVTZ AUX)
    Blend: AUG-CC-PVTZ-JKFIT

    Orbital Energies [Eh]
    ---------------------

    Doubly Occupied:

       1A    -92.157816     2A    -20.532669     3A    -20.531183
       4A    -11.282249     5A    -11.272234     6A    -11.243842
       7A    -11.239447     8A    -11.228155     9A    -11.227253
      10A    -11.215907    11A     -9.128727    12A     -6.812775
      13A     -6.812351    14A     -6.812272    15A     -1.417580
      16A     -1.311675    17A     -1.125363    18A     -1.094232
      19A     -0.999263    20A     -0.957850    21A     -0.941037
      22A     -0.849094    23A     -0.801171    24A     -0.785782
      25A     -0.683554    26A     -0.672543    27A     -0.665800
      28A     -0.642934    29A     -0.620679    30A     -0.610909
      31A     -0.592468    32A     -0.585019    33A     -0.566002
      34A     -0.556234    35A     -0.542488    36A     -0.526141
      37A     -0.511013    38A     -0.502957    39A     -0.501854
      40A     -0.493825    41A     -0.485524    42A     -0.472006
      43A     -0.463187    44A     -0.454403    45A     -0.384309

  @DF-RHF Final Energy:  -821.75811892206445

   => Energetics <=

    Nuclear Repulsion Energy =            704.0628793160785790
    One-Electron Energy =               -2525.0144374363653696
    Two-Electron Energy =                 999.1934391982223360
    Total Energy =                       -821.7581189220644546
  Basis Set: (AUG-CC-PVTZ AUX)
    Blend: AUG-CC-PVTZ-RI
    Molecular point group: c1

    Geometry (in Angstrom), charge = 0, multiplicity = 1:

       Center              X                  Y                   Z               Mass
    ------------   -----------------  -----------------  -----------------  -----------------
         S           -0.257831512904    -0.299879506125     0.125522622872    31.972071174400
         O           -0.286526512904    -1.489962506125    -0.745212377128    15.994914619570
         O           -0.191828512904    -0.449555506125     1.591554622872    15.994914619570
         C            1.258968587096     0.881042493875    -0.424063477128    12.000000000000
         C            2.449082487096     0.294804493875     0.200365622872    12.000000000000
         C           -1.712496512904     0.679478493875    -0.263095377128    12.000000000000
         C           -2.977838512904    -0.116562506125     0.042915622872    12.000000000000
         C            2.893131487096    -1.044738506125    -0.385658377128    12.000000000000
         C            3.497474487096     1.377365493875    -0.057838377128    12.000000000000
         C           -4.231005512904     0.696846493875    -0.268891377128    12.000000000000
         H            1.119638487096     0.783743493875    -1.464729377128     1.007825032230
         H            0.863293487096     1.763895493875     0.005527622872     1.007825032230
         H            2.319658487096     0.182348493875     1.283277622872     1.007825032230
         H           -1.652061512904     0.941199493875    -1.325133377128     1.007825032230
         H           -1.658830512904     1.592827493875     0.338330622872     1.007825032230
         H           -2.964648512904    -1.039151506125    -0.544708377128     1.007825032230
         H           -2.964975512904    -0.405269506125     1.098468622872     1.007825032230
         H            2.999443487096    -0.968329506125    -1.473482377128     1.007825032230
         H            2.180334487096    -1.843721506125    -0.174864377128     1.007825032230
         H            3.864773487096    -1.328943506125     0.029773622872     1.007825032230
         H            3.636708487096     1.533373493875    -1.133140377128     1.007825032230
         H            3.210229487096     2.332691493875     0.392862622872     1.007825032230
         H            4.461743487096     1.080381493875     0.365338622872     1.007825032230
         H           -4.265864512904     1.612925493875     0.328293622872     1.007825032230
         H           -4.265296512904     0.978887493875    -1.325510377128     1.007825032230
         H           -5.131007512904     0.117109493875    -0.046970377128     1.007825032230

  Basis Set: AUG-CC-PVTZ
    Blend: AUG-CC-PVTZ
  Basis Set: (AUG-CC-PVTZ AUX)
    Blend: AUG-CC-PVTZ-JKFIT
	 Reference Energy          =    -821.7581189220644546 [Eh]
	 Singles Energy            =      -0.0000000000000000 [Eh]
	 Same-Spin Energy          =      -0.5025720803863135 [Eh]
	 Opposite-Spin Energy      =      -1.6520744986162579 [Eh]
	 Correlation Energy        =      -2.1546465790025713 [Eh]
	 Total Energy              =    -823.9127655010670424 [Eh]

	 ================> DF-SCS-MP2 Energies <==================
	-----------------------------------------------------------
	 SCS Same-Spin Scale       =       0.3333333333333333 [-]
	 SCS Opposite-Spin Scale   =       1.2000000000000000 [-]
	 SCS Same-Spin Energy      =      -0.1675240267954378 [Eh]
	 SCS Opposite-Spin Energy  =      -1.9824893983395093 [Eh]
	 SCS Correlation Energy    =      -2.1500134251349472 [Eh]
	 SCS Total Energy          =    -823.9081323471993983 [Eh]
	-----------------------------------------------------------

  Dipole Moment: [D]
     X:    -0.2359      Y:     3.7228      Z:    -1.5515     Total:     4.0400

*** Psi4 exiting successfully. Buy a developer a beer!
