                               Psi4 1.4a3.dev225

  ==> Input File <==

--------------------------------------------------------------------------
#psi4
#
memory 32 gb

molecule  {
0 1
  S       -0.2573260    -0.3323280     0.1419150
  O       -0.2860210    -1.5224110    -0.7288200
  O       -0.1913230    -0.4820040     1.6079470
  C        1.1077430     0.7304620    -0.3526940
  C        2.4495880     0.2623560     0.2167580
  C       -1.7119910     0.6470300    -0.2467030
  C       -2.9773330    -0.1490110     0.0593080
  C        2.8936370    -1.0771870    -0.3692660
  C        3.4979800     1.3449170    -0.0414460
  C       -4.2305000     0.6643980    -0.2524990
  H        1.1201440     0.7512950    -1.4483370
  H        0.8637990     1.7314470     0.0219200
  H        2.3201640     0.1499000     1.2996700
  H       -1.6515560     0.9087510    -1.3087410
  H       -1.6583250     1.5603790     0.3547230
  H       -2.9641430    -1.0716000    -0.5283160
  H       -2.9644700    -0.4377180     1.1148610
  H        2.9874092    -1.0150675    -1.4591511
  H        2.1808400    -1.8761700    -0.1584720
  H        3.8652790    -1.3613920     0.0461660
  H        3.6372140     1.5009250    -1.1167480
  H        3.2107350     2.3002430     0.4092550
  H        4.4622490     1.0479330     0.3817310
  H       -4.2653590     1.5804770     0.3446860
  H       -4.2647910     0.9464390    -1.3091180
  H       -5.1305020     0.0846610    -0.0305780
units angstrom
no_reorient  #important for SAPT in psi4, default
symmetry c1  #important for SAPT in psi4, default
}

set PROPERTIES_ORIGIN ["COM"]
properties('MP2/aug-cc-pvtz', properties = ['dipole'])
--------------------------------------------------------------------------

    Molecular point group: c1
  Charge       = 0
  Multiplicity = 1
  Basis Set: AUG-CC-PVTZ
    Blend: AUG-CC-PVTZ
  Basis Set: (AUG-CC-PVTZ AUX)
    Blend: AUG-CC-PVTZ-JKFIT

    Orbital Energies [Eh]
    ---------------------

    Doubly Occupied:

       1A    -92.170160     2A    -20.535513     3A    -20.534766
       4A    -11.274792     5A    -11.273731     6A    -11.246725
       7A    -11.241431     8A    -11.229654     9A    -11.226793
      10A    -11.212830    11A     -9.140638    12A     -6.825026
      13A     -6.824617    14A     -6.824426    15A     -1.425842
      16A     -1.316610    17A     -1.115717    18A     -1.096073
      19A     -1.013393    20A     -0.960508    21A     -0.937792
      22A     -0.850649    23A     -0.804971    24A     -0.778855
      25A     -0.687762    26A     -0.675779    27A     -0.663542
      28A     -0.642773    29A     -0.619210    30A     -0.605388
      31A     -0.591474    32A     -0.580607    33A     -0.568197
      34A     -0.553689    35A     -0.539906    36A     -0.528641
      37A     -0.510251    38A     -0.502880    39A     -0.495668
      40A     -0.487044    41A     -0.482874    42A     -0.475309
      43A     -0.470256    44A     -0.456375    45A     -0.418260

  @DF-RHF Final Energy:  -821.78350143116120

   => Energetics <=

    Nuclear Repulsion Energy =            707.3164420430924793
    One-Electron Energy =               -2531.3650940977177015
    Two-Electron Energy =                1002.2651506234639101
    Total Energy =                       -821.7835014311611985
  Basis Set: (AUG-CC-PVTZ AUX)
    Blend: AUG-CC-PVTZ-RI
    Molecular point group: c1

    Geometry (in Angstrom), charge = 0, multiplicity = 1:

       Center              X                  Y                   Z               Mass
    ------------   -----------------  -----------------  -----------------  -----------------
         S           -0.246658111009    -0.291152523275     0.121514702882    31.972071174400
         O           -0.275353111009    -1.481235523275    -0.749220297118    15.994914619570
         O           -0.180655111009    -0.440828523275     1.587546702882    15.994914619570
         C            1.118410888991     0.771637476725    -0.373094297118    12.000000000000
         C            2.460255888991     0.303531476725     0.196357702882    12.000000000000
         C           -1.701323111009     0.688205476725    -0.267103297118    12.000000000000
         C           -2.966665111009    -0.107835523275     0.038907702882    12.000000000000
         C            2.904304888991    -1.036011523275    -0.389666297118    12.000000000000
         C            3.508647888991     1.386092476725    -0.061846297118    12.000000000000
         C           -4.219832111009     0.705573476725    -0.272899297118    12.000000000000
         H            1.130811888991     0.792470476725    -1.468737297118     1.007825032230
         H            0.874466888991     1.772622476725     0.001519702882     1.007825032230
         H            2.330831888991     0.191075476725     1.279269702882     1.007825032230
         H           -1.640888111009     0.949926476725    -1.329141297118     1.007825032230
         H           -1.647657111009     1.601554476725     0.334322702882     1.007825032230
         H           -2.953475111009    -1.030424523275    -0.548716297118     1.007825032230
         H           -2.953802111009    -0.396542523275     1.094460702882     1.007825032230
         H            2.998077088991    -0.973892023275    -1.479551397118     1.007825032230
         H            2.191507888991    -1.834994523275    -0.178872297118     1.007825032230
         H            3.875946888991    -1.320216523275     0.025765702882     1.007825032230
         H            3.647881888991     1.542100476725    -1.137148297118     1.007825032230
         H            3.221402888991     2.341418476725     0.388854702882     1.007825032230
         H            4.472916888991     1.089108476725     0.361330702882     1.007825032230
         H           -4.254691111009     1.621652476725     0.324285702882     1.007825032230
         H           -4.254123111009     0.987614476725    -1.329518297118     1.007825032230
         H           -5.119834111009     0.125836476725    -0.050978297118     1.007825032230

  Basis Set: AUG-CC-PVTZ
    Blend: AUG-CC-PVTZ
  Basis Set: (AUG-CC-PVTZ AUX)
    Blend: AUG-CC-PVTZ-JKFIT
	 Reference Energy          =    -821.7835014311611985 [Eh]
	 Singles Energy            =      -0.0000000000000000 [Eh]
	 Same-Spin Energy          =      -0.5010374208511570 [Eh]
	 Opposite-Spin Energy      =      -1.6488719103432299 [Eh]
	 Correlation Energy        =      -2.1499093311943867 [Eh]
	 Total Energy              =    -823.9334107623556065 [Eh]

	 ================> DF-SCS-MP2 Energies <==================
	-----------------------------------------------------------
	 SCS Same-Spin Scale       =       0.3333333333333333 [-]
	 SCS Opposite-Spin Scale   =       1.2000000000000000 [-]
	 SCS Same-Spin Energy      =      -0.1670124736170523 [Eh]
	 SCS Opposite-Spin Energy  =      -1.9786462924118757 [Eh]
	 SCS Correlation Energy    =      -2.1456587660289279 [Eh]
	 SCS Total Energy          =    -823.9291601971900718 [Eh]
	-----------------------------------------------------------

  Dipole Moment: [D]
     X:    -0.2075      Y:     3.7960      Z:    -1.5768     Total:     4.1158

*** Psi4 exiting successfully. Buy a developer a beer!
