                               Psi4 1.4a3.dev225

  ==> Input File <==

--------------------------------------------------------------------------
#psi4
#
memory 32 gb

molecule  {
0 1
  S       -0.2573260    -0.3323280     0.1419150
  O       -0.2860210    -1.5224110    -0.7288200
  O       -0.1913230    -0.4820040     1.6079470
  C        1.1077430     0.7304620    -0.3526940
  C        2.4495880     0.2623560     0.2167580
  C       -1.7119910     0.6470300    -0.2467030
  C       -2.9773330    -0.1490110     0.0593080
  C        2.8936370    -1.0771870    -0.3692660
  C        3.4979800     1.3449170    -0.0414460
  C       -4.2305000     0.6643980    -0.2524990
  H        1.1201440     0.7512950    -1.4483370
  H        0.8637990     1.7314470     0.0219200
  H        2.3201640     0.1499000     1.2996700
  H       -1.6515560     0.9087510    -1.3087410
  H       -1.6583250     1.5603790     0.3547230
  H       -2.9641430    -1.0716000    -0.5283160
  H       -2.9644700    -0.4377180     1.1148610
  H        3.0193548    -0.9868306    -1.6556571
  H        2.1808400    -1.8761700    -0.1584720
  H        3.8652790    -1.3613920     0.0461660
  H        3.6372140     1.5009250    -1.1167480
  H        3.2107350     2.3002430     0.4092550
  H        4.4622490     1.0479330     0.3817310
  H       -4.2653590     1.5804770     0.3446860
  H       -4.2647910     0.9464390    -1.3091180
  H       -5.1305020     0.0846610    -0.0305780
units angstrom
no_reorient  #important for SAPT in psi4, default
symmetry c1  #important for SAPT in psi4, default
}

set PROPERTIES_ORIGIN ["COM"]
properties('MP2/aug-cc-pvtz', properties = ['dipole'])
--------------------------------------------------------------------------

    Molecular point group: c1
  Charge       = 0
  Multiplicity = 1
  Basis Set: AUG-CC-PVTZ
    Blend: AUG-CC-PVTZ
  Basis Set: (AUG-CC-PVTZ AUX)
    Blend: AUG-CC-PVTZ-JKFIT

    Orbital Energies [Eh]
    ---------------------

    Doubly Occupied:

       1A    -92.170552     2A    -20.536134     3A    -20.535049
       4A    -11.275065     5A    -11.274160     6A    -11.249686
       7A    -11.241648     8A    -11.236701     9A    -11.229808
      10A    -11.227321    11A     -9.141043    12A     -6.825431
      13A     -6.825022    14A     -6.824829    15A     -1.426308
      16A     -1.317057    17A     -1.115871    18A     -1.096236
      19A     -1.013056    20A     -0.960446    21A     -0.930517
      22A     -0.850168    23A     -0.804120    24A     -0.775296
      25A     -0.687921    26A     -0.676225    27A     -0.663874
      28A     -0.643165    29A     -0.619271    30A     -0.606790
      31A     -0.591596    32A     -0.577915    33A     -0.568405
      34A     -0.552075    35A     -0.529865    36A     -0.522840
      37A     -0.510989    38A     -0.503534    39A     -0.496107
      40A     -0.488188    41A     -0.480639    42A     -0.473072
      43A     -0.462938    44A     -0.456643    45A     -0.418823

  @DF-RHF Final Energy:  -821.76397366753781

   => Energetics <=

    Nuclear Repulsion Energy =            706.4863989021381485
    One-Electron Energy =               -2529.6759497355055828
    Two-Electron Energy =                1001.4255771658295089
    Total Energy =                       -821.7639736675378117
  Basis Set: (AUG-CC-PVTZ AUX)
    Blend: AUG-CC-PVTZ-RI
    Molecular point group: c1

    Geometry (in Angstrom), charge = 0, multiplicity = 1:

       Center              X                  Y                   Z               Mass
    ------------   -----------------  -----------------  -----------------  -----------------
         S           -0.246854321285    -0.291325954669     0.122721645199    31.972071174400
         O           -0.275549321285    -1.481408954669    -0.748013354801    15.994914619570
         O           -0.180851321285    -0.441001954669     1.588753645199    15.994914619570
         C            1.118214678715     0.771464045331    -0.371887354801    12.000000000000
         C            2.460059678715     0.303358045331     0.197564645199    12.000000000000
         C           -1.701519321285     0.688032045331    -0.265896354801    12.000000000000
         C           -2.966861321285    -0.108008954669     0.040114645199    12.000000000000
         C            2.904108678715    -1.036184954669    -0.388459354801    12.000000000000
         C            3.508451678715     1.385919045331    -0.060639354801    12.000000000000
         C           -4.220028321285     0.705400045331    -0.271692354801    12.000000000000
         H            1.130615678715     0.792297045331    -1.467530354801     1.007825032230
         H            0.874270678715     1.772449045331     0.002726645199     1.007825032230
         H            2.330635678715     0.190902045331     1.280476645199     1.007825032230
         H           -1.641084321285     0.949753045331    -1.327934354801     1.007825032230
         H           -1.647853321285     1.601381045331     0.335529645199     1.007825032230
         H           -2.953671321285    -1.030597954669    -0.547509354801     1.007825032230
         H           -2.953998321285    -0.396715954669     1.095667645199     1.007825032230
         H            3.029826478715    -0.945828554669    -1.674850454801     1.007825032230
         H            2.191311678715    -1.835167954669    -0.177665354801     1.007825032230
         H            3.875750678715    -1.320389954669     0.026972645199     1.007825032230
         H            3.647685678715     1.541927045331    -1.135941354801     1.007825032230
         H            3.221206678715     2.341245045331     0.390061645199     1.007825032230
         H            4.472720678715     1.088935045331     0.362537645199     1.007825032230
         H           -4.254887321285     1.621479045331     0.325492645199     1.007825032230
         H           -4.254319321285     0.987441045331    -1.328311354801     1.007825032230
         H           -5.120030321285     0.125663045331    -0.049771354801     1.007825032230

  Basis Set: AUG-CC-PVTZ
    Blend: AUG-CC-PVTZ
  Basis Set: (AUG-CC-PVTZ AUX)
    Blend: AUG-CC-PVTZ-JKFIT
	 Reference Energy          =    -821.7639736675378117 [Eh]
	 Singles Energy            =      -0.0000000000000000 [Eh]
	 Same-Spin Energy          =      -0.5010217019345684 [Eh]
	 Opposite-Spin Energy      =      -1.6503935777970566 [Eh]
	 Correlation Energy        =      -2.1514152797316251 [Eh]
	 Total Energy              =    -823.9153889472694345 [Eh]

	 ================> DF-SCS-MP2 Energies <==================
	-----------------------------------------------------------
	 SCS Same-Spin Scale       =       0.3333333333333333 [-]
	 SCS Opposite-Spin Scale   =       1.2000000000000000 [-]
	 SCS Same-Spin Energy      =      -0.1670072339781895 [Eh]
	 SCS Opposite-Spin Energy  =      -1.9804722933564678 [Eh]
	 SCS Correlation Energy    =      -2.1474795273346574 [Eh]
	 SCS Total Energy          =    -823.9114531948724789 [Eh]
	-----------------------------------------------------------

  Dipole Moment: [D]
     X:    -0.2388      Y:     3.8142      Z:    -1.4339     Total:     4.0818

*** Psi4 exiting successfully. Buy a developer a beer!
