                               Psi4 1.4a3.dev225

  ==> Input File <==

--------------------------------------------------------------------------
#psi4
#
memory 32 gb

molecule  {
0 1
  S       -0.2573260    -0.3323280     0.1419150
  O       -0.2860210    -1.5224110    -0.7288200
  O       -0.1913230    -0.4820040     1.6079470
  C        1.1077430     0.7304620    -0.3526940
  C        2.4495880     0.2623560     0.2167580
  C       -1.7119910     0.6470300    -0.2467030
  C       -2.9773330    -0.1490110     0.0593080
  C        2.8936370    -1.0771870    -0.3692660
  C        3.4979800     1.3449170    -0.0414460
  C       -4.2305000     0.6643980    -0.2524990
  H        1.1201440     0.7512950    -1.4483370
  H        0.8593486     1.7497086     0.0287543
  H        2.3201640     0.1499000     1.2996700
  H       -1.6515560     0.9087510    -1.3087410
  H       -1.6583250     1.5603790     0.3547230
  H       -2.9641430    -1.0716000    -0.5283160
  H       -2.9644700    -0.4377180     1.1148610
  H        2.9999490    -1.0007780    -1.4570900
  H        2.1808400    -1.8761700    -0.1584720
  H        3.8652790    -1.3613920     0.0461660
  H        3.6372140     1.5009250    -1.1167480
  H        3.2107350     2.3002430     0.4092550
  H        4.4622490     1.0479330     0.3817310
  H       -4.2653590     1.5804770     0.3446860
  H       -4.2647910     0.9464390    -1.3091180
  H       -5.1305020     0.0846610    -0.0305780
units angstrom
no_reorient  #important for SAPT in psi4, default
symmetry c1  #important for SAPT in psi4, default
}

set PROPERTIES_ORIGIN ["COM"]
properties('MP2/aug-cc-pvtz', properties = ['dipole'])
--------------------------------------------------------------------------

    Molecular point group: c1
  Charge       = 0
  Multiplicity = 1
  Basis Set: AUG-CC-PVTZ
    Blend: AUG-CC-PVTZ
  Basis Set: (AUG-CC-PVTZ AUX)
    Blend: AUG-CC-PVTZ-JKFIT

    Orbital Energies [Eh]
    ---------------------

    Doubly Occupied:

       1A    -92.170251     2A    -20.535510     3A    -20.534891
       4A    -11.275928     5A    -11.274726     6A    -11.246731
       7A    -11.241382     8A    -11.229623     9A    -11.226809
      10A    -11.213065    11A     -9.140717    12A     -6.825107
      13A     -6.824696    14A     -6.824505    15A     -1.425883
      16A     -1.316656    17A     -1.115265    18A     -1.096036
      19A     -1.012977    20A     -0.959951    21A     -0.937737
      22A     -0.850482    23A     -0.804940    24A     -0.778113
      25A     -0.687674    26A     -0.675138    27A     -0.663090
      28A     -0.641663    29A     -0.619013    30A     -0.604967
      31A     -0.591426    32A     -0.580801    33A     -0.568160
      34A     -0.553385    35A     -0.539647    36A     -0.528532
      37A     -0.510231    38A     -0.502884    39A     -0.495697
      40A     -0.487168    41A     -0.482378    42A     -0.475303
      43A     -0.470348    44A     -0.456350    45A     -0.418292

  @DF-RHF Final Energy:  -821.78291700661089

   => Energetics <=

    Nuclear Repulsion Energy =            707.2072495255916920
    One-Electron Energy =               -2531.1520833843683249
    Two-Electron Energy =                1002.1619168521658594
    Total Energy =                       -821.7829170066108873
  Basis Set: (AUG-CC-PVTZ AUX)
    Blend: AUG-CC-PVTZ-RI
    Molecular point group: c1

    Geometry (in Angstrom), charge = 0, multiplicity = 1:

       Center              X                  Y                   Z               Mass
    ------------   -----------------  -----------------  -----------------  -----------------
         S           -0.246707796206    -0.291352452539     0.121460067224    31.972071174400
         O           -0.275402796206    -1.481435452539    -0.749274932776    15.994914619570
         O           -0.180704796206    -0.441028452539     1.587492067224    15.994914619570
         C            1.118361203794     0.771437547461    -0.373148932776    12.000000000000
         C            2.460206203794     0.303331547461     0.196303067224    12.000000000000
         C           -1.701372796206     0.688005547461    -0.267157932776    12.000000000000
         C           -2.966714796206    -0.108035452539     0.038853067224    12.000000000000
         C            2.904255203794    -1.036211452539    -0.389720932776    12.000000000000
         C            3.508598203794     1.385892547461    -0.061900932776    12.000000000000
         C           -4.219881796206     0.705373547461    -0.272953932776    12.000000000000
         H            1.130762203794     0.792270547461    -1.468791932776     1.007825032230
         H            0.869966803794     1.790684147461     0.008299367224     1.007825032230
         H            2.330782203794     0.190875547461     1.279215067224     1.007825032230
         H           -1.640937796206     0.949726547461    -1.329195932776     1.007825032230
         H           -1.647706796206     1.601354547461     0.334268067224     1.007825032230
         H           -2.953524796206    -1.030624452539    -0.548770932776     1.007825032230
         H           -2.953851796206    -0.396742452539     1.094406067224     1.007825032230
         H            3.010567203794    -0.959802452539    -1.477544932776     1.007825032230
         H            2.191458203794    -1.835194452539    -0.178926932776     1.007825032230
         H            3.875897203794    -1.320416452539     0.025711067224     1.007825032230
         H            3.647832203794     1.541900547461    -1.137202932776     1.007825032230
         H            3.221353203794     2.341218547461     0.388800067224     1.007825032230
         H            4.472867203794     1.088908547461     0.361276067224     1.007825032230
         H           -4.254740796206     1.621452547461     0.324231067224     1.007825032230
         H           -4.254172796206     0.987414547461    -1.329572932776     1.007825032230
         H           -5.119883796206     0.125636547461    -0.051032932776     1.007825032230

  Basis Set: AUG-CC-PVTZ
    Blend: AUG-CC-PVTZ
  Basis Set: (AUG-CC-PVTZ AUX)
    Blend: AUG-CC-PVTZ-JKFIT
	 Reference Energy          =    -821.7829170066108873 [Eh]
	 Singles Energy            =      -0.0000000000000000 [Eh]
	 Same-Spin Energy          =      -0.5010866563416333 [Eh]
	 Opposite-Spin Energy      =      -1.6490553099522887 [Eh]
	 Correlation Energy        =      -2.1501419662939218 [Eh]
	 Total Energy              =    -823.9330589729048597 [Eh]

	 ================> DF-SCS-MP2 Energies <==================
	-----------------------------------------------------------
	 SCS Same-Spin Scale       =       0.3333333333333333 [-]
	 SCS Opposite-Spin Scale   =       1.2000000000000000 [-]
	 SCS Same-Spin Energy      =      -0.1670288854472111 [Eh]
	 SCS Opposite-Spin Energy  =      -1.9788663719427464 [Eh]
	 SCS Correlation Energy    =      -2.1458952573899577 [Eh]
	 SCS Total Energy          =    -823.9288122640008396 [Eh]
	-----------------------------------------------------------

  Dipole Moment: [D]
     X:    -0.1984      Y:     3.7919      Z:    -1.5751     Total:     4.1108

*** Psi4 exiting successfully. Buy a developer a beer!
