                               Psi4 1.4a3.dev225

  ==> Input File <==

--------------------------------------------------------------------------
#psi4
#
memory 32 gb

molecule  {
0 1
  S       -0.2573260    -0.3323280     0.1419150
  O       -0.2860210    -1.5224110    -0.7288200
  O       -0.2128667    -0.4680752     1.6101129
  C        1.1077430     0.7304620    -0.3526940
  C        2.4495880     0.2623560     0.2167580
  C       -1.7119910     0.6470300    -0.2467030
  C       -2.9773330    -0.1490110     0.0593080
  C        2.8936370    -1.0771870    -0.3692660
  C        3.4979800     1.3449170    -0.0414460
  C       -4.2305000     0.6643980    -0.2524990
  H        1.1201440     0.7512950    -1.4483370
  H        0.8637990     1.7314470     0.0219200
  H        2.3201640     0.1499000     1.2996700
  H       -1.6515560     0.9087510    -1.3087410
  H       -1.6583250     1.5603790     0.3547230
  H       -2.9641430    -1.0716000    -0.5283160
  H       -2.9644700    -0.4377180     1.1148610
  H        2.9999490    -1.0007780    -1.4570900
  H        2.1808400    -1.8761700    -0.1584720
  H        3.8652790    -1.3613920     0.0461660
  H        3.6372140     1.5009250    -1.1167480
  H        3.2107350     2.3002430     0.4092550
  H        4.4622490     1.0479330     0.3817310
  H       -4.2653590     1.5804770     0.3446860
  H       -4.2647910     0.9464390    -1.3091180
  H       -5.1305020     0.0846610    -0.0305780
units angstrom
no_reorient  #important for SAPT in psi4, default
symmetry c1  #important for SAPT in psi4, default
}

set PROPERTIES_ORIGIN ["COM"]
properties('MP2/aug-cc-pvtz', properties = ['dipole'])
--------------------------------------------------------------------------

    Molecular point group: c1
  Charge       = 0
  Multiplicity = 1
  Basis Set: AUG-CC-PVTZ
    Blend: AUG-CC-PVTZ
  Basis Set: (AUG-CC-PVTZ AUX)
    Blend: AUG-CC-PVTZ-JKFIT

    Orbital Energies [Eh]
    ---------------------

    Doubly Occupied:

       1A    -92.170242     2A    -20.535596     3A    -20.535556
       4A    -11.274261     5A    -11.273579     6A    -11.247158
       7A    -11.240712     8A    -11.229125     9A    -11.227188
      10A    -11.213418    11A     -9.140706    12A     -6.825090
      13A     -6.824698    14A     -6.824486    15A     -1.425986
      16A     -1.317364    17A     -1.116099    18A     -1.095298
      19A     -1.013272    20A     -0.960277    21A     -0.938202
      22A     -0.850309    23A     -0.804695    24A     -0.779170
      25A     -0.687861    26A     -0.675499    27A     -0.663305
      28A     -0.642893    29A     -0.619563    30A     -0.605455
      31A     -0.590929    32A     -0.581494    33A     -0.567701
      34A     -0.554157    35A     -0.540053    36A     -0.528254
      37A     -0.509882    38A     -0.503230    39A     -0.495357
      40A     -0.487506    41A     -0.482785    42A     -0.475666
      43A     -0.470557    44A     -0.456936    45A     -0.418032

  @DF-RHF Final Energy:  -821.78333433012745

   => Energetics <=

    Nuclear Repulsion Energy =            707.2998314291584165
    One-Electron Energy =               -2531.3271287686366122
    Two-Electron Energy =                1002.2439630093506366
    Total Energy =                       -821.7833343301274454
  Basis Set: (AUG-CC-PVTZ AUX)
    Blend: AUG-CC-PVTZ-RI
    Molecular point group: c1

    Geometry (in Angstrom), charge = 0, multiplicity = 1:

       Center              X                  Y                   Z               Mass
    ------------   -----------------  -----------------  -----------------  -----------------
         S           -0.244635089603    -0.292598043863     0.121290915555    31.972071174400
         O           -0.273330089603    -1.482681043863    -0.749444084445    15.994914619570
         O           -0.200175789603    -0.428345243863     1.589488815555    15.994914619570
         C            1.120433910397     0.770191956137    -0.373318084445    12.000000000000
         C            2.462278910397     0.302085956137     0.196133915555    12.000000000000
         C           -1.699300089603     0.686759956137    -0.267327084445    12.000000000000
         C           -2.964642089603    -0.109281043863     0.038683915555    12.000000000000
         C            2.906327910397    -1.037457043863    -0.389890084445    12.000000000000
         C            3.510670910397     1.384646956137    -0.062070084445    12.000000000000
         C           -4.217809089603     0.704127956137    -0.273123084445    12.000000000000
         H            1.132834910397     0.791024956137    -1.468961084445     1.007825032230
         H            0.876489910397     1.771176956137     0.001295915555     1.007825032230
         H            2.332854910397     0.189629956137     1.279045915555     1.007825032230
         H           -1.638865089603     0.948480956137    -1.329365084445     1.007825032230
         H           -1.645634089603     1.600108956137     0.334098915555     1.007825032230
         H           -2.951452089603    -1.031870043863    -0.548940084445     1.007825032230
         H           -2.951779089603    -0.397988043863     1.094236915555     1.007825032230
         H            3.012639910397    -0.961048043863    -1.477714084445     1.007825032230
         H            2.193530910397    -1.836440043863    -0.179096084445     1.007825032230
         H            3.877969910397    -1.321662043863     0.025541915555     1.007825032230
         H            3.649904910397     1.540654956137    -1.137372084445     1.007825032230
         H            3.223425910397     2.339972956137     0.388630915555     1.007825032230
         H            4.474939910397     1.087662956137     0.361106915555     1.007825032230
         H           -4.252668089603     1.620206956137     0.324061915555     1.007825032230
         H           -4.252100089603     0.986168956137    -1.329742084445     1.007825032230
         H           -5.117811089603     0.124390956137    -0.051202084445     1.007825032230

  Basis Set: AUG-CC-PVTZ
    Blend: AUG-CC-PVTZ
  Basis Set: (AUG-CC-PVTZ AUX)
    Blend: AUG-CC-PVTZ-JKFIT
	 Reference Energy          =    -821.7833343301274454 [Eh]
	 Singles Energy            =      -0.0000000000000000 [Eh]
	 Same-Spin Energy          =      -0.5010613847568322 [Eh]
	 Opposite-Spin Energy      =      -1.6489426432020609 [Eh]
	 Correlation Energy        =      -2.1500040279588930 [Eh]
	 Total Energy              =    -823.9333383580863028 [Eh]

	 ================> DF-SCS-MP2 Energies <==================
	-----------------------------------------------------------
	 SCS Same-Spin Scale       =       0.3333333333333333 [-]
	 SCS Opposite-Spin Scale   =       1.2000000000000000 [-]
	 SCS Same-Spin Energy      =      -0.1670204615856107 [Eh]
	 SCS Opposite-Spin Energy  =      -1.9787311718424729 [Eh]
	 SCS Correlation Energy    =      -2.1457516334280835 [Eh]
	 SCS Total Energy          =    -823.9290859635555080 [Eh]
	-----------------------------------------------------------

  Dipole Moment: [D]
     X:    -0.1266      Y:     3.7661      Z:    -1.5815     Total:     4.0866

*** Psi4 exiting successfully. Buy a developer a beer!
