                               Psi4 1.4a3.dev225

  ==> Input File <==

--------------------------------------------------------------------------
#psi4
#
memory 32 gb

molecule  {
0 1
  S       -0.2573260    -0.3323280     0.1419150
  O       -0.2860210    -1.5224110    -0.7288200
  O       -0.1913230    -0.4820040     1.6079470
  C        1.1077430     0.7304620    -0.3526940
  C        2.4495880     0.2623560     0.2167580
  C       -1.7119910     0.6470300    -0.2467030
  C       -2.9773330    -0.1490110     0.0593080
  C        2.8936370    -1.0771870    -0.3692660
  C        3.4979800     1.3449170    -0.0414460
  C       -4.2305000     0.6643980    -0.2524990
  H        1.1201440     0.7512950    -1.4483370
  H        0.8637990     1.7314470     0.0219200
  H        2.3437729     0.1704137     1.1021306
  H       -1.6515560     0.9087510    -1.3087410
  H       -1.6583250     1.5603790     0.3547230
  H       -2.9641430    -1.0716000    -0.5283160
  H       -2.9644700    -0.4377180     1.1148610
  H        2.9999490    -1.0007780    -1.4570900
  H        2.1808400    -1.8761700    -0.1584720
  H        3.8652790    -1.3613920     0.0461660
  H        3.6372140     1.5009250    -1.1167480
  H        3.2107350     2.3002430     0.4092550
  H        4.4622490     1.0479330     0.3817310
  H       -4.2653590     1.5804770     0.3446860
  H       -4.2647910     0.9464390    -1.3091180
  H       -5.1305020     0.0846610    -0.0305780
units angstrom
no_reorient  #important for SAPT in psi4, default
symmetry c1  #important for SAPT in psi4, default
}

set PROPERTIES_ORIGIN ["COM"]
properties('MP2/aug-cc-pvtz', properties = ['dipole'])
--------------------------------------------------------------------------

    Molecular point group: c1
  Charge       = 0
  Multiplicity = 1
  Basis Set: AUG-CC-PVTZ
    Blend: AUG-CC-PVTZ
  Basis Set: (AUG-CC-PVTZ AUX)
    Blend: AUG-CC-PVTZ-JKFIT

    Orbital Energies [Eh]
    ---------------------

    Doubly Occupied:

       1A    -92.170193     2A    -20.535941     3A    -20.534702
       4A    -11.274704     5A    -11.272641     6A    -11.241405
       7A    -11.229633     8A    -11.226094     9A    -11.222918
      10A    -11.211885    11A     -9.140670    12A     -6.825053
      13A     -6.824649    14A     -6.824464    15A     -1.426001
      16A     -1.316769    17A     -1.124494    18A     -1.097201
      19A     -1.014741    20A     -0.960391    21A     -0.937232
      22A     -0.854026    23A     -0.821156    24A     -0.793606
      25A     -0.688364    26A     -0.676665    27A     -0.667517
      28A     -0.642577    29A     -0.621817    30A     -0.604832
      31A     -0.591595    32A     -0.582857    33A     -0.568188
      34A     -0.553772    35A     -0.539814    36A     -0.528588
      37A     -0.510104    38A     -0.504076    39A     -0.501016
      40A     -0.495300    41A     -0.485113    42A     -0.478273
      43A     -0.471678    44A     -0.456498    45A     -0.417956

  @DF-RHF Final Energy:  -821.75086402576994

   => Energetics <=

    Nuclear Repulsion Energy =            708.4054344489427422
    One-Electron Energy =               -2533.3782638693237459
    Two-Electron Energy =                1003.2219653946110611
    Total Energy =                       -821.7508640257699426
  Basis Set: (AUG-CC-PVTZ AUX)
    Blend: AUG-CC-PVTZ-RI
    Molecular point group: c1

    Geometry (in Angstrom), charge = 0, multiplicity = 1:

       Center              X                  Y                   Z               Mass
    ------------   -----------------  -----------------  -----------------  -----------------
         S           -0.246880136778    -0.291366284966     0.122715333053    31.972071174400
         O           -0.275575136778    -1.481449284966    -0.748019666947    15.994914619570
         O           -0.180877136778    -0.441042284966     1.588747333053    15.994914619570
         C            1.118188863222     0.771423715034    -0.371893666947    12.000000000000
         C            2.460033863222     0.303317715034     0.197558333053    12.000000000000
         C           -1.701545136778     0.687991715034    -0.265902666947    12.000000000000
         C           -2.966887136778    -0.108049284966     0.040108333053    12.000000000000
         C            2.904082863222    -1.036225284966    -0.388465666947    12.000000000000
         C            3.508425863222     1.385878715034    -0.060645666947    12.000000000000
         C           -4.220054136778     0.705359715034    -0.271698666947    12.000000000000
         H            1.130589863222     0.792256715034    -1.467536666947     1.007825032230
         H            0.874244863222     1.772408715034     0.002720333053     1.007825032230
         H            2.354218763222     0.211375415034     1.082930933053     1.007825032230
         H           -1.641110136778     0.949712715034    -1.327940666947     1.007825032230
         H           -1.647879136778     1.601340715034     0.335523333053     1.007825032230
         H           -2.953697136778    -1.030638284966    -0.547515666947     1.007825032230
         H           -2.954024136778    -0.396756284966     1.095661333053     1.007825032230
         H            3.010394863222    -0.959816284966    -1.476289666947     1.007825032230
         H            2.191285863222    -1.835208284966    -0.177671666947     1.007825032230
         H            3.875724863222    -1.320430284966     0.026966333053     1.007825032230
         H            3.647659863222     1.541886715034    -1.135947666947     1.007825032230
         H            3.221180863222     2.341204715034     0.390055333053     1.007825032230
         H            4.472694863222     1.088894715034     0.362531333053     1.007825032230
         H           -4.254913136778     1.621438715034     0.325486333053     1.007825032230
         H           -4.254345136778     0.987400715034    -1.328317666947     1.007825032230
         H           -5.120056136778     0.125622715034    -0.049777666947     1.007825032230

  Basis Set: AUG-CC-PVTZ
    Blend: AUG-CC-PVTZ
  Basis Set: (AUG-CC-PVTZ AUX)
    Blend: AUG-CC-PVTZ-JKFIT
	 Reference Energy          =    -821.7508640257699426 [Eh]
	 Singles Energy            =      -0.0000000000000000 [Eh]
	 Same-Spin Energy          =      -0.5008028506949250 [Eh]
	 Opposite-Spin Energy      =      -1.6479998645199980 [Eh]
	 Correlation Energy        =      -2.1488027152149232 [Eh]
	 Total Energy              =    -823.8996667409849124 [Eh]

	 ================> DF-SCS-MP2 Energies <==================
	-----------------------------------------------------------
	 SCS Same-Spin Scale       =       0.3333333333333333 [-]
	 SCS Opposite-Spin Scale   =       1.2000000000000000 [-]
	 SCS Same-Spin Energy      =      -0.1669342835649750 [Eh]
	 SCS Opposite-Spin Energy  =      -1.9775998374239976 [Eh]
	 SCS Correlation Energy    =      -2.1445341209889728 [Eh]
	 SCS Total Energy          =    -823.8953981467589074 [Eh]
	-----------------------------------------------------------

  Dipole Moment: [D]
     X:    -0.1961      Y:     3.8083      Z:    -1.5473     Total:     4.1153

*** Psi4 exiting successfully. Buy a developer a beer!
