                               Psi4 1.4a3.dev225

  ==> Input File <==

--------------------------------------------------------------------------
#psi4
#
memory 32 gb

molecule  {
0 1
  S       -0.2573260    -0.3323280     0.1419150
  O       -0.2860210    -1.5224110    -0.7288200
  O       -0.1913230    -0.4820040     1.6079470
  C        1.1077430     0.7304620    -0.3526940
  C        2.4495880     0.2623560     0.2167580
  C       -1.7119910     0.6470300    -0.2467030
  C       -2.9773330    -0.1490110     0.0593080
  C        2.8936370    -1.0771870    -0.3692660
  C        3.4979800     1.3449170    -0.0414460
  C       -4.2305000     0.6643980    -0.2524990
  H        1.1201440     0.7512950    -1.4483370
  H        0.8637990     1.7314470     0.0219200
  H        2.3201640     0.1499000     1.2996700
  H       -1.6515560     0.9087510    -1.3087410
  H       -1.6583250     1.5603790     0.3547230
  H       -2.9641430    -1.0716000    -0.5283160
  H       -2.9644700    -0.4377180     1.1148610
  H        2.9999490    -1.0007780    -1.4570900
  H        2.1808400    -1.8761700    -0.1584720
  H        3.8652790    -1.3613920     0.0461660
  H        3.6372140     1.5009250    -1.1167480
  H        3.2107350     2.3002430     0.4092550
  H        4.4622490     1.0479330     0.3817310
  H       -4.3652614     1.5426248     0.3859389
  H       -4.2647910     0.9464390    -1.3091180
  H       -5.1305020     0.0846610    -0.0305780
units angstrom
no_reorient  #important for SAPT in psi4, default
symmetry c1  #important for SAPT in psi4, default
}

set PROPERTIES_ORIGIN ["COM"]
properties('MP2/aug-cc-pvtz', properties = ['dipole'])
--------------------------------------------------------------------------

    Molecular point group: c1
  Charge       = 0
  Multiplicity = 1
  Basis Set: AUG-CC-PVTZ
    Blend: AUG-CC-PVTZ
  Basis Set: (AUG-CC-PVTZ AUX)
    Blend: AUG-CC-PVTZ-JKFIT

    Orbital Energies [Eh]
    ---------------------

    Doubly Occupied:

       1A    -92.170059     2A    -20.535481     3A    -20.534761
       4A    -11.274637     5A    -11.273644     6A    -11.246554
       7A    -11.242245     8A    -11.229350     9A    -11.226783
      10A    -11.212879    11A     -9.140550    12A     -6.824936
      13A     -6.824528    14A     -6.824338    15A     -1.425821
      16A     -1.316594    17A     -1.115682    18A     -1.095751
      19A     -1.013292    20A     -0.960724    21A     -0.937711
      22A     -0.851630    23A     -0.804862    24A     -0.778693
      25A     -0.688100    26A     -0.675963    27A     -0.662973
      28A     -0.643128    29A     -0.619070    30A     -0.605447
      31A     -0.588414    32A     -0.580165    33A     -0.570430
      34A     -0.553983    35A     -0.539945    36A     -0.529944
      37A     -0.508129    38A     -0.501262    39A     -0.497363
      40A     -0.486753    41A     -0.482438    42A     -0.475228
      43A     -0.470654    44A     -0.456348    45A     -0.418069

  @DF-RHF Final Energy:  -821.78230285621351

   => Energetics <=

    Nuclear Repulsion Energy =            707.1609000575872415
    One-Electron Energy =               -2531.0557863127010023
    Two-Electron Energy =                1002.1125833989002558
    Total Energy =                       -821.7823028562135050
  Basis Set: (AUG-CC-PVTZ AUX)
    Blend: AUG-CC-PVTZ-RI
    Molecular point group: c1

    Geometry (in Angstrom), charge = 0, multiplicity = 1:

       Center              X                  Y                   Z               Mass
    ------------   -----------------  -----------------  -----------------  -----------------
         S           -0.246121528824    -0.291007800876     0.121248667751    31.972071174400
         O           -0.274816528824    -1.481090800876    -0.749486332249    15.994914619570
         O           -0.180118528824    -0.440683800876     1.587280667751    15.994914619570
         C            1.118947471176     0.771782199124    -0.373360332249    12.000000000000
         C            2.460792471176     0.303676199124     0.196091667751    12.000000000000
         C           -1.700786528824     0.688350199124    -0.267369332249    12.000000000000
         C           -2.966128528824    -0.107690800876     0.038641667751    12.000000000000
         C            2.904841471176    -1.035866800876    -0.389932332249    12.000000000000
         C            3.509184471176     1.386237199124    -0.062112332249    12.000000000000
         C           -4.219295528824     0.705718199124    -0.273165332249    12.000000000000
         H            1.131348471176     0.792615199124    -1.469003332249     1.007825032230
         H            0.875003471176     1.772767199124     0.001253667751     1.007825032230
         H            2.331368471176     0.191220199124     1.279003667751     1.007825032230
         H           -1.640351528824     0.950071199124    -1.329407332249     1.007825032230
         H           -1.647120528824     1.601699199124     0.334056667751     1.007825032230
         H           -2.952938528824    -1.030279800876    -0.548982332249     1.007825032230
         H           -2.953265528824    -0.396397800876     1.094194667751     1.007825032230
         H            3.011153471176    -0.959457800876    -1.477756332249     1.007825032230
         H            2.192044471176    -1.834849800876    -0.179138332249     1.007825032230
         H            3.876483471176    -1.320071800876     0.025499667751     1.007825032230
         H            3.648418471176     1.542245199124    -1.137414332249     1.007825032230
         H            3.221939471176     2.341563199124     0.388588667751     1.007825032230
         H            4.473453471176     1.089253199124     0.361064667751     1.007825032230
         H           -4.354056928824     1.583944999124     0.365272567751     1.007825032230
         H           -4.253586528824     0.987759199124    -1.329784332249     1.007825032230
         H           -5.119297528824     0.125981199124    -0.051244332249     1.007825032230

  Basis Set: AUG-CC-PVTZ
    Blend: AUG-CC-PVTZ
  Basis Set: (AUG-CC-PVTZ AUX)
    Blend: AUG-CC-PVTZ-JKFIT
	 Reference Energy          =    -821.7823028562135050 [Eh]
	 Singles Energy            =      -0.0000000000000000 [Eh]
	 Same-Spin Energy          =      -0.5010657976593660 [Eh]
	 Opposite-Spin Energy      =      -1.6488781749863608 [Eh]
	 Correlation Energy        =      -2.1499439726457270 [Eh]
	 Total Energy              =    -823.9322468288592063 [Eh]

	 ================> DF-SCS-MP2 Energies <==================
	-----------------------------------------------------------
	 SCS Same-Spin Scale       =       0.3333333333333333 [-]
	 SCS Opposite-Spin Scale   =       1.2000000000000000 [-]
	 SCS Same-Spin Energy      =      -0.1670219325531220 [Eh]
	 SCS Opposite-Spin Energy  =      -1.9786538099836328 [Eh]
	 SCS Correlation Energy    =      -2.1456757425367550 [Eh]
	 SCS Total Energy          =    -823.9279785987503146 [Eh]
	-----------------------------------------------------------

  Dipole Moment: [D]
     X:    -0.2303      Y:     3.7969      Z:    -1.5507     Total:     4.1078

*** Psi4 exiting successfully. Buy a developer a beer!
