                               Psi4 1.4a3.dev225

  ==> Input File <==

--------------------------------------------------------------------------
#psi4
#
memory 32 gb

molecule  {
0 1
  S       -0.2573260    -0.3323280     0.1419150
  O       -0.2860210    -1.5224110    -0.7288200
  O       -0.1913230    -0.4820040     1.6079470
  C        1.1077430     0.7304620    -0.3526940
  C        2.4495880     0.2623560     0.2167580
  C       -1.7119910     0.6470300    -0.2467030
  C       -2.9773330    -0.1490110     0.0593080
  C        2.8936370    -1.0771870    -0.3692660
  C        3.4979800     1.3449170    -0.0414460
  C       -4.2305000     0.6643980    -0.2524990
  H        1.1190124     0.7493940    -1.3483615
  H        0.8637990     1.7314470     0.0219200
  H        2.3201640     0.1499000     1.2996700
  H       -1.6515560     0.9087510    -1.3087410
  H       -1.6583250     1.5603790     0.3547230
  H       -2.9641430    -1.0716000    -0.5283160
  H       -2.9644700    -0.4377180     1.1148610
  H        2.9999490    -1.0007780    -1.4570900
  H        2.1808400    -1.8761700    -0.1584720
  H        3.8652790    -1.3613920     0.0461660
  H        3.6372140     1.5009250    -1.1167480
  H        3.2107350     2.3002430     0.4092550
  H        4.4622490     1.0479330     0.3817310
  H       -4.2653590     1.5804770     0.3446860
  H       -4.2647910     0.9464390    -1.3091180
  H       -5.1305020     0.0846610    -0.0305780
units angstrom
no_reorient  #important for SAPT in psi4, default
symmetry c1  #important for SAPT in psi4, default
}

set PROPERTIES_ORIGIN ["COM"]
properties('MP2/aug-cc-pvtz', properties = ['dipole'])
--------------------------------------------------------------------------

    Molecular point group: c1
  Charge       = 0
  Multiplicity = 1
  Basis Set: AUG-CC-PVTZ
    Blend: AUG-CC-PVTZ
  Basis Set: (AUG-CC-PVTZ AUX)
    Blend: AUG-CC-PVTZ-JKFIT

    Orbital Energies [Eh]
    ---------------------

    Doubly Occupied:

       1A    -92.169758     2A    -20.535035     3A    -20.534935
       4A    -11.274874     5A    -11.262404     6A    -11.245929
       7A    -11.241464     8A    -11.229681     9A    -11.226819
      10A    -11.212899    11A     -9.140291    12A     -6.824672
      13A     -6.824269    14A     -6.824080    15A     -1.425746
      16A     -1.316485    17A     -1.119001    18A     -1.096227
      19A     -1.015875    20A     -0.963903    21A     -0.937785
      22A     -0.851494    23A     -0.804853    24A     -0.785895
      25A     -0.690508    26A     -0.677402    27A     -0.664716
      28A     -0.643600    29A     -0.619977    30A     -0.607108
      31A     -0.592107    32A     -0.587949    33A     -0.568275
      34A     -0.554477    35A     -0.540213    36A     -0.528659
      37A     -0.510230    38A     -0.503074    39A     -0.495833
      40A     -0.487119    41A     -0.483371    42A     -0.475228
      43A     -0.470177    44A     -0.456725    45A     -0.418114

  @DF-RHF Final Energy:  -821.77788129665475

   => Energetics <=

    Nuclear Repulsion Energy =            707.8977131882902540
    One-Electron Energy =               -2532.4727213123460388
    Two-Electron Energy =                1002.7971268274010299
    Total Energy =                       -821.7778812966547548
  Basis Set: (AUG-CC-PVTZ AUX)
    Blend: AUG-CC-PVTZ-RI
    Molecular point group: c1

    Geometry (in Angstrom), charge = 0, multiplicity = 1:

       Center              X                  Y                   Z               Mass
    ------------   -----------------  -----------------  -----------------  -----------------
         S           -0.246728180317    -0.291228613597     0.120887992805    31.972071174400
         O           -0.275423180317    -1.481311613597    -0.749847007195    15.994914619570
         O           -0.180725180317    -0.440904613597     1.586919992805    15.994914619570
         C            1.118340819683     0.771561386403    -0.373721007195    12.000000000000
         C            2.460185819683     0.303455386403     0.195730992805    12.000000000000
         C           -1.701393180317     0.688129386403    -0.267730007195    12.000000000000
         C           -2.966735180317    -0.107911613597     0.038280992805    12.000000000000
         C            2.904234819683    -1.036087613597    -0.390293007195    12.000000000000
         C            3.508577819683     1.386016386403    -0.062473007195    12.000000000000
         C           -4.219902180317     0.705497386403    -0.273526007195    12.000000000000
         H            1.129610219683     0.790493386403    -1.369388507195     1.007825032230
         H            0.874396819683     1.772546386403     0.000892992805     1.007825032230
         H            2.330761819683     0.190999386403     1.278642992805     1.007825032230
         H           -1.640958180317     0.949850386403    -1.329768007195     1.007825032230
         H           -1.647727180317     1.601478386403     0.333695992805     1.007825032230
         H           -2.953545180317    -1.030500613597    -0.549343007195     1.007825032230
         H           -2.953872180317    -0.396618613597     1.093833992805     1.007825032230
         H            3.010546819683    -0.959678613597    -1.478117007195     1.007825032230
         H            2.191437819683    -1.835070613597    -0.179499007195     1.007825032230
         H            3.875876819683    -1.320292613597     0.025138992805     1.007825032230
         H            3.647811819683     1.542024386403    -1.137775007195     1.007825032230
         H            3.221332819683     2.341342386403     0.388227992805     1.007825032230
         H            4.472846819683     1.089032386403     0.360703992805     1.007825032230
         H           -4.254761180317     1.621576386403     0.323658992805     1.007825032230
         H           -4.254193180317     0.987538386403    -1.330145007195     1.007825032230
         H           -5.119904180317     0.125760386403    -0.051605007195     1.007825032230

  Basis Set: AUG-CC-PVTZ
    Blend: AUG-CC-PVTZ
  Basis Set: (AUG-CC-PVTZ AUX)
    Blend: AUG-CC-PVTZ-JKFIT
	 Reference Energy          =    -821.7778812966547548 [Eh]
	 Singles Energy            =      -0.0000000000000000 [Eh]
	 Same-Spin Energy          =      -0.5008707452369880 [Eh]
	 Opposite-Spin Energy      =      -1.6482591778203677 [Eh]
	 Correlation Energy        =      -2.1491299230573557 [Eh]
	 Total Energy              =    -823.9270112197120852 [Eh]

	 ================> DF-SCS-MP2 Energies <==================
	-----------------------------------------------------------
	 SCS Same-Spin Scale       =       0.3333333333333333 [-]
	 SCS Opposite-Spin Scale   =       1.2000000000000000 [-]
	 SCS Same-Spin Energy      =      -0.1669569150789960 [Eh]
	 SCS Opposite-Spin Energy  =      -1.9779110133844411 [Eh]
	 SCS Correlation Energy    =      -2.1448679284634369 [Eh]
	 SCS Total Energy          =    -823.9227492251181957 [Eh]
	-----------------------------------------------------------

  Dipole Moment: [D]
     X:    -0.2118      Y:     3.8091      Z:    -1.5921     Total:     4.1339

*** Psi4 exiting successfully. Buy a developer a beer!
