                               Psi4 1.4a3.dev225

  ==> Input File <==

--------------------------------------------------------------------------
#psi4
#
memory 32 gb

molecule  {
0 1
  S       -0.2573260    -0.3323280     0.1419150
  O       -0.2860210    -1.5224110    -0.7288200
  O       -0.1913230    -0.4820040     1.6079470
  C        1.1077430     0.7304620    -0.3526940
  C        2.4495880     0.2623560     0.2167580
  C       -1.7119910     0.6470300    -0.2467030
  C       -2.9773330    -0.1490110     0.0593080
  C        2.8936370    -1.0771870    -0.3692660
  C        3.4979800     1.3449170    -0.0414460
  C       -4.2305000     0.6643980    -0.2524990
  H        1.1201440     0.7512950    -1.4483370
  H        0.8637990     1.7314470     0.0219200
  H        2.3201640     0.1499000     1.2996700
  H       -1.6515560     0.9087510    -1.3087410
  H       -1.6583250     1.5603790     0.3547230
  H       -2.9641430    -1.0716000    -0.5283160
  H       -2.9644700    -0.4377180     1.1148610
  H        2.9999490    -1.0007780    -1.4570900
  H        2.1808400    -1.8761700    -0.1584720
  H        3.8652790    -1.3613920     0.0461660
  H        3.6372140     1.5009250    -1.1167480
  H        3.2107350     2.3002430     0.4092550
  H        4.3741169     1.0750767     0.3430535
  H       -4.2653590     1.5804770     0.3446860
  H       -4.2647910     0.9464390    -1.3091180
  H       -5.1305020     0.0846610    -0.0305780
units angstrom
no_reorient  #important for SAPT in psi4, default
symmetry c1  #important for SAPT in psi4, default
}

set PROPERTIES_ORIGIN ["COM"]
properties('MP2/aug-cc-pvtz', properties = ['dipole'])
--------------------------------------------------------------------------

    Molecular point group: c1
  Charge       = 0
  Multiplicity = 1
  Basis Set: AUG-CC-PVTZ
    Blend: AUG-CC-PVTZ
  Basis Set: (AUG-CC-PVTZ AUX)
    Blend: AUG-CC-PVTZ-JKFIT

    Orbital Energies [Eh]
    ---------------------

    Doubly Occupied:

       1A    -92.169633     2A    -20.535147     3A    -20.534373
       4A    -11.274418     5A    -11.273003     6A    -11.245847
       7A    -11.241161     8A    -11.229439     9A    -11.214458
      10A    -11.212978    11A     -9.140131    12A     -6.824517
      13A     -6.824108    14A     -6.823921    15A     -1.425458
      16A     -1.316243    17A     -1.116225    18A     -1.096017
      19A     -1.014784    20A     -0.962700    21A     -0.942605
      22A     -0.851739    23A     -0.806222    24A     -0.778980
      25A     -0.688922    26A     -0.675405    27A     -0.663696
      28A     -0.642951    29A     -0.619287    30A     -0.607879
      31A     -0.591881    32A     -0.583735    33A     -0.567954
      34A     -0.555955    35A     -0.546567    36A     -0.528918
      37A     -0.510379    38A     -0.502587    39A     -0.495525
      40A     -0.488414    41A     -0.482032    42A     -0.475102
      43A     -0.469929    44A     -0.456025    45A     -0.418051

  @DF-RHF Final Energy:  -821.77752202088527

   => Energetics <=

    Nuclear Repulsion Energy =            707.8148546111967789
    One-Electron Energy =               -2532.3341499698672123
    Two-Electron Energy =                1002.7417733377851619
    Total Energy =                       -821.7775220208852716
  Basis Set: (AUG-CC-PVTZ AUX)
    Blend: AUG-CC-PVTZ-RI
    Molecular point group: c1

    Geometry (in Angstrom), charge = 0, multiplicity = 1:

       Center              X                  Y                   Z               Mass
    ------------   -----------------  -----------------  -----------------  -----------------
         S           -0.246193822155    -0.291407006509     0.121739601271    31.972071174400
         O           -0.274888822155    -1.481490006509    -0.748995398729    15.994914619570
         O           -0.180190822155    -0.441083006509     1.587771601271    15.994914619570
         C            1.118875177845     0.771382993491    -0.372869398729    12.000000000000
         C            2.460720177845     0.303276993491     0.196582601271    12.000000000000
         C           -1.700858822155     0.687950993491    -0.266878398729    12.000000000000
         C           -2.966200822155    -0.108090006509     0.039132601271    12.000000000000
         C            2.904769177845    -1.036266006509    -0.389441398729    12.000000000000
         C            3.509112177845     1.385837993491    -0.061621398729    12.000000000000
         C           -4.219367822155     0.705318993491    -0.272674398729    12.000000000000
         H            1.131276177845     0.792215993491    -1.468512398729     1.007825032230
         H            0.874931177845     1.772367993491     0.001744601271     1.007825032230
         H            2.331296177845     0.190820993491     1.279494601271     1.007825032230
         H           -1.640423822155     0.949671993491    -1.328916398729     1.007825032230
         H           -1.647192822155     1.601299993491     0.334547601271     1.007825032230
         H           -2.953010822155    -1.030679006509    -0.548491398729     1.007825032230
         H           -2.953337822155    -0.396797006509     1.094685601271     1.007825032230
         H            3.011081177845    -0.959857006509    -1.477265398729     1.007825032230
         H            2.191972177845    -1.835249006509    -0.178647398729     1.007825032230
         H            3.876411177845    -1.320471006509     0.025990601271     1.007825032230
         H            3.648346177845     1.541845993491    -1.136923398729     1.007825032230
         H            3.221867177845     2.341163993491     0.389079601271     1.007825032230
         H            4.385249077845     1.115997693491     0.322878101271     1.007825032230
         H           -4.254226822155     1.621397993491     0.324510601271     1.007825032230
         H           -4.253658822155     0.987359993491    -1.329293398729     1.007825032230
         H           -5.119369822155     0.125581993491    -0.050753398729     1.007825032230

  Basis Set: AUG-CC-PVTZ
    Blend: AUG-CC-PVTZ
  Basis Set: (AUG-CC-PVTZ AUX)
    Blend: AUG-CC-PVTZ-JKFIT
	 Reference Energy          =    -821.7775220208852716 [Eh]
	 Singles Energy            =      -0.0000000000000000 [Eh]
	 Same-Spin Energy          =      -0.5010462323488458 [Eh]
	 Opposite-Spin Energy      =      -1.6483741019608167 [Eh]
	 Correlation Energy        =      -2.1494203343096627 [Eh]
	 Total Energy              =    -823.9269423551949103 [Eh]

	 ================> DF-SCS-MP2 Energies <==================
	-----------------------------------------------------------
	 SCS Same-Spin Scale       =       0.3333333333333333 [-]
	 SCS Opposite-Spin Scale   =       1.2000000000000000 [-]
	 SCS Same-Spin Energy      =      -0.1670154107829486 [Eh]
	 SCS Opposite-Spin Energy  =      -1.9780489223529800 [Eh]
	 SCS Correlation Energy    =      -2.1450643331359287 [Eh]
	 SCS Total Energy          =    -823.9225863540211776 [Eh]
	-----------------------------------------------------------

  Dipole Moment: [D]
     X:    -0.1370      Y:     3.8023      Z:    -1.5617     Total:     4.1128

*** Psi4 exiting successfully. Buy a developer a beer!
