                               Psi4 1.4a3.dev225

  ==> Input File <==

--------------------------------------------------------------------------
#psi4
#
memory 32 gb

molecule  {
0 1
  S       -0.2573260    -0.3323280     0.1419150
  O       -0.2860210    -1.5224110    -0.7288200
  O       -0.1913230    -0.4820040     1.6079470
  C        1.1077430     0.7304620    -0.3526940
  C        2.4495880     0.2623560     0.2167580
  C       -1.7119910     0.6470300    -0.2467030
  C       -2.9773330    -0.1490110     0.0593080
  C        2.8936370    -1.0771870    -0.3692660
  C        3.4979800     1.3449170    -0.0414460
  C       -4.2305000     0.6643980    -0.2524990
  H        1.1201440     0.7512950    -1.4483370
  H        0.8637990     1.7314470     0.0219200
  H        2.3201640     0.1499000     1.2996700
  H       -1.6515560     0.9087510    -1.3087410
  H       -1.6583250     1.5603790     0.3547230
  H       -2.9641430    -1.0716000    -0.5283160
  H       -2.9644700    -0.4377180     1.1148610
  H        2.9999490    -1.0007780    -1.4570900
  H        2.1808400    -1.8761700    -0.1584720
  H        3.8652790    -1.3613920     0.0461660
  H        3.6372140     1.5009250    -1.1167480
  H        3.2107350     2.3002430     0.4092550
  H        4.4181829     1.0615049     0.3623923
  H       -4.2653590     1.5804770     0.3446860
  H       -4.2647910     0.9464390    -1.3091180
  H       -5.1305020     0.0846610    -0.0305780
units angstrom
no_reorient  #important for SAPT in psi4, default
symmetry c1  #important for SAPT in psi4, default
}

set PROPERTIES_ORIGIN ["COM"]
properties('MP2/aug-cc-pvtz', properties = ['dipole'])
--------------------------------------------------------------------------

    Molecular point group: c1
  Charge       = 0
  Multiplicity = 1
  Basis Set: AUG-CC-PVTZ
    Blend: AUG-CC-PVTZ
  Basis Set: (AUG-CC-PVTZ AUX)
    Blend: AUG-CC-PVTZ-JKFIT

    Orbital Energies [Eh]
    ---------------------

    Doubly Occupied:

       1A    -92.169875     2A    -20.535318     3A    -20.534549
       4A    -11.274588     5A    -11.273330     6A    -11.246194
       7A    -11.241283     8A    -11.229536     9A    -11.220689
      10A    -11.212937    11A     -9.140364    12A     -6.824751
      13A     -6.824342    14A     -6.824152    15A     -1.425634
      16A     -1.316410    17A     -1.115907    18A     -1.096023
      19A     -1.013980    20A     -0.961375    21A     -0.940101
      22A     -0.851144    23A     -0.805526    24A     -0.778833
      25A     -0.688279    26A     -0.675576    27A     -0.663591
      28A     -0.642780    29A     -0.619211    30A     -0.606301
      31A     -0.591623    32A     -0.582319    33A     -0.568061
      34A     -0.554480    35A     -0.543783    36A     -0.528845
      37A     -0.510334    38A     -0.502787    39A     -0.495609
      40A     -0.487907    41A     -0.482207    42A     -0.475213
      43A     -0.470154    44A     -0.456182    45A     -0.418145

  @DF-RHF Final Energy:  -821.78255649298967

   => Energetics <=

    Nuclear Repulsion Energy =            707.5578477973098188
    One-Electron Energy =               -2531.8403537205404064
    Two-Electron Energy =                1002.4999494302408038
    Total Energy =                       -821.7825564929896700
  Basis Set: (AUG-CC-PVTZ AUX)
    Blend: AUG-CC-PVTZ-RI
    Molecular point group: c1

    Geometry (in Angstrom), charge = 0, multiplicity = 1:

       Center              X                  Y                   Z               Mass
    ------------   -----------------  -----------------  -----------------  -----------------
         S           -0.246464476079    -0.291323648343     0.121620822118    31.972071174400
         O           -0.275159476079    -1.481406648343    -0.749114177882    15.994914619570
         O           -0.180461476079    -0.440999648343     1.587652822118    15.994914619570
         C            1.118604523921     0.771466351657    -0.372988177882    12.000000000000
         C            2.460449523921     0.303360351657     0.196463822118    12.000000000000
         C           -1.701129476079     0.688034351657    -0.266997177882    12.000000000000
         C           -2.966471476079    -0.108006648343     0.039013822118    12.000000000000
         C            2.904498523921    -1.036182648343    -0.389560177882    12.000000000000
         C            3.508841523921     1.385921351657    -0.061740177882    12.000000000000
         C           -4.219638476079     0.705402351657    -0.272793177882    12.000000000000
         H            1.131005523921     0.792299351657    -1.468631177882     1.007825032230
         H            0.874660523921     1.772451351657     0.001625822118     1.007825032230
         H            2.331025523921     0.190904351657     1.279375822118     1.007825032230
         H           -1.640694476079     0.949755351657    -1.329035177882     1.007825032230
         H           -1.647463476079     1.601383351657     0.334428822118     1.007825032230
         H           -2.953281476079    -1.030595648343    -0.548610177882     1.007825032230
         H           -2.953608476079    -0.396713648343     1.094566822118     1.007825032230
         H            3.010810523921    -0.959773648343    -1.477384177882     1.007825032230
         H            2.191701523921    -1.835165648343    -0.178766177882     1.007825032230
         H            3.876140523921    -1.320387648343     0.025871822118     1.007825032230
         H            3.648075523921     1.541929351657    -1.137042177882     1.007825032230
         H            3.221596523921     2.341247351657     0.388960822118     1.007825032230
         H            4.429044423921     1.102509251657     0.342098122118     1.007825032230
         H           -4.254497476079     1.621481351657     0.324391822118     1.007825032230
         H           -4.253929476079     0.987443351657    -1.329412177882     1.007825032230
         H           -5.119640476079     0.125665351657    -0.050872177882     1.007825032230

  Basis Set: AUG-CC-PVTZ
    Blend: AUG-CC-PVTZ
  Basis Set: (AUG-CC-PVTZ AUX)
    Blend: AUG-CC-PVTZ-JKFIT
	 Reference Energy          =    -821.7825564929896700 [Eh]
	 Singles Energy            =      -0.0000000000000000 [Eh]
	 Same-Spin Energy          =      -0.5010395723828113 [Eh]
	 Opposite-Spin Energy      =      -1.6485913770019565 [Eh]
	 Correlation Energy        =      -2.1496309493847678 [Eh]
	 Total Energy              =    -823.9321874423744703 [Eh]

	 ================> DF-SCS-MP2 Energies <==================
	-----------------------------------------------------------
	 SCS Same-Spin Scale       =       0.3333333333333333 [-]
	 SCS Opposite-Spin Scale   =       1.2000000000000000 [-]
	 SCS Same-Spin Energy      =      -0.1670131907942704 [Eh]
	 SCS Opposite-Spin Energy  =      -1.9783096524023476 [Eh]
	 SCS Correlation Energy    =      -2.1453228431966180 [Eh]
	 SCS Total Energy          =    -823.9278793361862654 [Eh]
	-----------------------------------------------------------

  Dipole Moment: [D]
     X:    -0.1677      Y:     3.8006      Z:    -1.5675     Total:     4.1146

*** Psi4 exiting successfully. Buy a developer a beer!
