                               Psi4 1.4a3.dev225

  ==> Input File <==

--------------------------------------------------------------------------
#psi4
#
memory 32 gb

molecule  {
0 1
  S       -0.2573260    -0.3323280     0.1419150
  O       -0.2860210    -1.5224110    -0.7288200
  O       -0.1913230    -0.4820040     1.6079470
  C        1.1077430     0.7304620    -0.3526940
  C        2.4495880     0.2623560     0.2167580
  C       -1.7119910     0.6470300    -0.2467030
  C       -2.9773330    -0.1490110     0.0593080
  C        2.8936370    -1.0771870    -0.3692660
  C        3.4979800     1.3449170    -0.0414460
  C       -4.2305000     0.6643980    -0.2524990
  H        1.1201440     0.7512950    -1.4483370
  H        0.8526729     1.7771010     0.0390058
  H        2.3201640     0.1499000     1.2996700
  H       -1.6515560     0.9087510    -1.3087410
  H       -1.6583250     1.5603790     0.3547230
  H       -2.9641430    -1.0716000    -0.5283160
  H       -2.9644700    -0.4377180     1.1148610
  H        2.9999490    -1.0007780    -1.4570900
  H        2.1808400    -1.8761700    -0.1584720
  H        3.8652790    -1.3613920     0.0461660
  H        3.6372140     1.5009250    -1.1167480
  H        3.2107350     2.3002430     0.4092550
  H        4.4622490     1.0479330     0.3817310
  H       -4.2653590     1.5804770     0.3446860
  H       -4.2647910     0.9464390    -1.3091180
  H       -5.1305020     0.0846610    -0.0305780
units angstrom
no_reorient  #important for SAPT in psi4, default
symmetry c1  #important for SAPT in psi4, default
}

set PROPERTIES_ORIGIN ["COM"]
properties('MP2/aug-cc-pvtz', properties = ['dipole'])
--------------------------------------------------------------------------

    Molecular point group: c1
  Charge       = 0
  Multiplicity = 1
  Basis Set: AUG-CC-PVTZ
    Blend: AUG-CC-PVTZ
  Basis Set: (AUG-CC-PVTZ AUX)
    Blend: AUG-CC-PVTZ-JKFIT

    Orbital Energies [Eh]
    ---------------------

    Doubly Occupied:

       1A    -92.170417     2A    -20.535509     3A    -20.535115
       4A    -11.279192     5A    -11.274641     6A    -11.246942
       7A    -11.241320     8A    -11.229585     9A    -11.226786
      10A    -11.213315    11A     -9.140861    12A     -6.825256
      13A     -6.824840    14A     -6.824650    15A     -1.425964
      16A     -1.316744    17A     -1.114626    18A     -1.095979
      19A     -1.012376    20A     -0.959155    21A     -0.937732
      22A     -0.850266    23A     -0.804947    24A     -0.777263
      25A     -0.687553    26A     -0.674327    27A     -0.662431
      28A     -0.640074    29A     -0.618621    30A     -0.604671
      31A     -0.591331    32A     -0.580365    33A     -0.568114
      34A     -0.552698    35A     -0.539566    36A     -0.528399
      37A     -0.510207    38A     -0.502657    39A     -0.495680
      40A     -0.487122    41A     -0.482306    42A     -0.475248
      43A     -0.470223    44A     -0.456326    45A     -0.418367

  @DF-RHF Final Energy:  -821.78121646254294

   => Energetics <=

    Nuclear Repulsion Energy =            707.0475333023747453
    One-Electron Energy =               -2530.8379683941379881
    Two-Electron Energy =                1002.0092186292204133
    Total Energy =                       -821.7812164625429432
  Basis Set: (AUG-CC-PVTZ AUX)
    Blend: AUG-CC-PVTZ-RI
    Molecular point group: c1

    Geometry (in Angstrom), charge = 0, multiplicity = 1:

       Center              X                  Y                   Z               Mass
    ------------   -----------------  -----------------  -----------------  -----------------
         S           -0.246666793973    -0.291520697004     0.121397102382    31.972071174400
         O           -0.275361793973    -1.481603697004    -0.749337897618    15.994914619570
         O           -0.180663793973    -0.441196697004     1.587429102382    15.994914619570
         C            1.118402206027     0.771269302996    -0.373211897618    12.000000000000
         C            2.460247206027     0.303163302996     0.196240102382    12.000000000000
         C           -1.701331793973     0.687837302996    -0.267220897618    12.000000000000
         C           -2.966673793973    -0.108203697004     0.038790102382    12.000000000000
         C            2.904296206027    -1.036379697004    -0.389783897618    12.000000000000
         C            3.508639206027     1.385724302996    -0.061963897618    12.000000000000
         C           -4.219840793973     0.705205302996    -0.273016897618    12.000000000000
         H            1.130803206027     0.792102302996    -1.468854897618     1.007825032230
         H            0.863332106027     1.817908302996     0.018487902382     1.007825032230
         H            2.330823206027     0.190707302996     1.279152102382     1.007825032230
         H           -1.640896793973     0.949558302996    -1.329258897618     1.007825032230
         H           -1.647665793973     1.601186302996     0.334205102382     1.007825032230
         H           -2.953483793973    -1.030792697004    -0.548833897618     1.007825032230
         H           -2.953810793973    -0.396910697004     1.094343102382     1.007825032230
         H            3.010608206027    -0.959970697004    -1.477607897618     1.007825032230
         H            2.191499206027    -1.835362697004    -0.178989897618     1.007825032230
         H            3.875938206027    -1.320584697004     0.025648102382     1.007825032230
         H            3.647873206027     1.541732302996    -1.137265897618     1.007825032230
         H            3.221394206027     2.341050302996     0.388737102382     1.007825032230
         H            4.472908206027     1.088740302996     0.361213102382     1.007825032230
         H           -4.254699793973     1.621284302996     0.324168102382     1.007825032230
         H           -4.254131793973     0.987246302996    -1.329635897618     1.007825032230
         H           -5.119842793973     0.125468302996    -0.051095897618     1.007825032230

  Basis Set: AUG-CC-PVTZ
    Blend: AUG-CC-PVTZ
  Basis Set: (AUG-CC-PVTZ AUX)
    Blend: AUG-CC-PVTZ-JKFIT
	 Reference Energy          =    -821.7812164625429432 [Eh]
	 Singles Energy            =      -0.0000000000000000 [Eh]
	 Same-Spin Energy          =      -0.5011537954035119 [Eh]
	 Opposite-Spin Energy      =      -1.6493303788945164 [Eh]
	 Correlation Energy        =      -2.1504841742980281 [Eh]
	 Total Energy              =    -823.9317006368410148 [Eh]

	 ================> DF-SCS-MP2 Energies <==================
	-----------------------------------------------------------
	 SCS Same-Spin Scale       =       0.3333333333333333 [-]
	 SCS Opposite-Spin Scale   =       1.2000000000000000 [-]
	 SCS Same-Spin Energy      =      -0.1670512651345040 [Eh]
	 SCS Opposite-Spin Energy  =      -1.9791964546734195 [Eh]
	 SCS Correlation Energy    =      -2.1462477198079233 [Eh]
	 SCS Total Energy          =    -823.9274641823508318 [Eh]
	-----------------------------------------------------------

  Dipole Moment: [D]
     X:    -0.1912      Y:     3.7803      Z:    -1.5759     Total:     4.1000

*** Psi4 exiting successfully. Buy a developer a beer!
