                               Psi4 1.4a3.dev225

  ==> Input File <==

--------------------------------------------------------------------------
#psi4
#
memory 32 gb

molecule  {
0 1
  S       -0.2573260    -0.3323280     0.1419150
  O       -0.2860210    -1.5224110    -0.7288200
  O       -0.1913230    -0.4820040     1.6079470
  C        1.1077430     0.7304620    -0.3526940
  C        2.4495880     0.2623560     0.2167580
  C       -1.7119910     0.6470300    -0.2467030
  C       -3.0187948    -0.1750951     0.0693351
  C        2.8936370    -1.0771870    -0.3692660
  C        3.4979800     1.3449170    -0.0414460
  C       -4.2305000     0.6643980    -0.2524990
  H        1.1201440     0.7512950    -1.4483370
  H        0.8637990     1.7314470     0.0219200
  H        2.3201640     0.1499000     1.2996700
  H       -1.6515560     0.9087510    -1.3087410
  H       -1.6583250     1.5603790     0.3547230
  H       -2.9641430    -1.0716000    -0.5283160
  H       -2.9644700    -0.4377180     1.1148610
  H        2.9999490    -1.0007780    -1.4570900
  H        2.1808400    -1.8761700    -0.1584720
  H        3.8652790    -1.3613920     0.0461660
  H        3.6372140     1.5009250    -1.1167480
  H        3.2107350     2.3002430     0.4092550
  H        4.4622490     1.0479330     0.3817310
  H       -4.2653590     1.5804770     0.3446860
  H       -4.2647910     0.9464390    -1.3091180
  H       -5.1305020     0.0846610    -0.0305780
units angstrom
no_reorient  #important for SAPT in psi4, default
symmetry c1  #important for SAPT in psi4, default
}

set PROPERTIES_ORIGIN ["COM"]
properties('MP2/aug-cc-pvtz', properties = ['dipole'])
--------------------------------------------------------------------------

    Molecular point group: c1
  Charge       = 0
  Multiplicity = 1
  Basis Set: AUG-CC-PVTZ
    Blend: AUG-CC-PVTZ
  Basis Set: (AUG-CC-PVTZ AUX)
    Blend: AUG-CC-PVTZ-JKFIT

    Orbital Energies [Eh]
    ---------------------

    Doubly Occupied:

       1A    -92.169531     2A    -20.534932     3A    -20.534168
       4A    -11.275103     5A    -11.273115     6A    -11.246181
       7A    -11.242267     8A    -11.229290     9A    -11.226515
      10A    -11.212603    11A     -9.139944    12A     -6.824325
      13A     -6.823935    14A     -6.823751    15A     -1.425168
      16A     -1.316069    17A     -1.114897    18A     -1.091408
      19A     -1.014794    20A     -0.960065    21A     -0.937423
      22A     -0.850691    23A     -0.806084    24A     -0.778077
      25A     -0.686102    26A     -0.674658    27A     -0.662652
      28A     -0.642369    29A     -0.619705    30A     -0.604664
      31A     -0.589628    32A     -0.580793    33A     -0.569474
      34A     -0.553664    35A     -0.539850    36A     -0.532374
      37A     -0.508170    38A     -0.503168    39A     -0.497006
      40A     -0.485356    41A     -0.481748    42A     -0.475583
      43A     -0.470447    44A     -0.455944    45A     -0.417042

  @DF-RHF Final Energy:  -821.78178510588054

   => Energetics <=

    Nuclear Repulsion Energy =            706.5573468980820735
    One-Electron Energy =               -2529.8768054265574392
    Two-Electron Energy =                1001.5376734225949349
    Total Energy =                       -821.7817851058805445
  Basis Set: (AUG-CC-PVTZ AUX)
    Blend: AUG-CC-PVTZ-RI
    Molecular point group: c1

    Geometry (in Angstrom), charge = 0, multiplicity = 1:

       Center              X                  Y                   Z               Mass
    ------------   -----------------  -----------------  -----------------  -----------------
         S           -0.243702950775    -0.289332710002     0.120768742795    31.972071174400
         O           -0.272397950775    -1.479415710002    -0.749966257205    15.994914619570
         O           -0.177699950775    -0.439008710002     1.586800742795    15.994914619570
         C            1.121366049225     0.773457289998    -0.373840257205    12.000000000000
         C            2.463211049225     0.305351289998     0.195611742795    12.000000000000
         C           -1.698367950775     0.690025289998    -0.267849257205    12.000000000000
         C           -3.005171750775    -0.132099810002     0.048188842795    12.000000000000
         C            2.907260049225    -1.034191710002    -0.390412257205    12.000000000000
         C            3.511603049225     1.387912289998    -0.062592257205    12.000000000000
         C           -4.216876950775     0.707393289998    -0.273645257205    12.000000000000
         H            1.133767049225     0.794290289998    -1.469483257205     1.007825032230
         H            0.877422049225     1.774442289998     0.000773742795     1.007825032230
         H            2.333787049225     0.192895289998     1.278523742795     1.007825032230
         H           -1.637932950775     0.951746289998    -1.329887257205     1.007825032230
         H           -1.644701950775     1.603374289998     0.333576742795     1.007825032230
         H           -2.950519950775    -1.028604710002    -0.549462257205     1.007825032230
         H           -2.950846950775    -0.394722710002     1.093714742795     1.007825032230
         H            3.013572049225    -0.957782710002    -1.478236257205     1.007825032230
         H            2.194463049225    -1.833174710002    -0.179618257205     1.007825032230
         H            3.878902049225    -1.318396710002     0.025019742795     1.007825032230
         H            3.650837049225     1.543920289998    -1.137894257205     1.007825032230
         H            3.224358049225     2.343238289998     0.388108742795     1.007825032230
         H            4.475872049225     1.090928289998     0.360584742795     1.007825032230
         H           -4.251735950775     1.623472289998     0.323539742795     1.007825032230
         H           -4.251167950775     0.989434289998    -1.330264257205     1.007825032230
         H           -5.116878950775     0.127656289998    -0.051724257205     1.007825032230

  Basis Set: AUG-CC-PVTZ
    Blend: AUG-CC-PVTZ
  Basis Set: (AUG-CC-PVTZ AUX)
    Blend: AUG-CC-PVTZ-JKFIT
	 Reference Energy          =    -821.7817851058805445 [Eh]
	 Singles Energy            =      -0.0000000000000000 [Eh]
	 Same-Spin Energy          =      -0.5008641225727688 [Eh]
	 Opposite-Spin Energy      =      -1.6487367515228253 [Eh]
	 Correlation Energy        =      -2.1496008740955941 [Eh]
	 Total Energy              =    -823.9313859799760849 [Eh]

	 ================> DF-SCS-MP2 Energies <==================
	-----------------------------------------------------------
	 SCS Same-Spin Scale       =       0.3333333333333333 [-]
	 SCS Opposite-Spin Scale   =       1.2000000000000000 [-]
	 SCS Same-Spin Energy      =      -0.1669547075242563 [Eh]
	 SCS Opposite-Spin Energy  =      -1.9784841018273902 [Eh]
	 SCS Correlation Energy    =      -2.1454388093516465 [Eh]
	 SCS Total Energy          =    -823.9272239152321617 [Eh]
	-----------------------------------------------------------

  Dipole Moment: [D]
     X:    -0.2652      Y:     3.8009      Z:    -1.5748     Total:     4.1228

*** Psi4 exiting successfully. Buy a developer a beer!
