                               Psi4 1.4a3.dev225

  ==> Input File <==

--------------------------------------------------------------------------
#psi4
#
memory 32 gb

molecule  {
0 1
  S       -0.2573260    -0.3323280     0.1419150
  O       -0.2860210    -1.5224110    -0.7288200
  O       -0.1697994    -0.4958872     1.6053345
  C        1.1077430     0.7304620    -0.3526940
  C        2.4495880     0.2623560     0.2167580
  C       -1.7119910     0.6470300    -0.2467030
  C       -2.9773330    -0.1490110     0.0593080
  C        2.8936370    -1.0771870    -0.3692660
  C        3.4979800     1.3449170    -0.0414460
  C       -4.2305000     0.6643980    -0.2524990
  H        1.1201440     0.7512950    -1.4483370
  H        0.8637990     1.7314470     0.0219200
  H        2.3201640     0.1499000     1.2996700
  H       -1.6515560     0.9087510    -1.3087410
  H       -1.6583250     1.5603790     0.3547230
  H       -2.9641430    -1.0716000    -0.5283160
  H       -2.9644700    -0.4377180     1.1148610
  H        2.9999490    -1.0007780    -1.4570900
  H        2.1808400    -1.8761700    -0.1584720
  H        3.8652790    -1.3613920     0.0461660
  H        3.6372140     1.5009250    -1.1167480
  H        3.2107350     2.3002430     0.4092550
  H        4.4622490     1.0479330     0.3817310
  H       -4.2653590     1.5804770     0.3446860
  H       -4.2647910     0.9464390    -1.3091180
  H       -5.1305020     0.0846610    -0.0305780
units angstrom
no_reorient  #important for SAPT in psi4, default
symmetry c1  #important for SAPT in psi4, default
}

set PROPERTIES_ORIGIN ["COM"]
properties('MP2/aug-cc-pvtz', properties = ['dipole'])
--------------------------------------------------------------------------

    Molecular point group: c1
  Charge       = 0
  Multiplicity = 1
  Basis Set: AUG-CC-PVTZ
    Blend: AUG-CC-PVTZ
  Basis Set: (AUG-CC-PVTZ AUX)
    Blend: AUG-CC-PVTZ-JKFIT

    Orbital Energies [Eh]
    ---------------------

    Doubly Occupied:

       1A    -92.170050     2A    -20.535420     3A    -20.533940
       4A    -11.275975     5A    -11.273160     6A    -11.246034
       7A    -11.242126     8A    -11.230164     9A    -11.226460
      10A    -11.212390    11A     -9.140547    12A     -6.824940
      13A     -6.824514    14A     -6.824342    15A     -1.425697
      16A     -1.315830    17A     -1.115423    18A     -1.096815
      19A     -1.013583    20A     -0.960756    21A     -0.937283
      22A     -0.850984    23A     -0.805183    24A     -0.778315
      25A     -0.687762    26A     -0.676083    27A     -0.663772
      28A     -0.642524    29A     -0.618947    30A     -0.604852
      31A     -0.592056    32A     -0.580635    33A     -0.568668
      34A     -0.553488    35A     -0.539333    36A     -0.528949
      37A     -0.510648    38A     -0.502811    39A     -0.496052
      40A     -0.486881    41A     -0.482045    42A     -0.475022
      43A     -0.470212    44A     -0.455758    45A     -0.418424

  @DF-RHF Final Energy:  -821.78355193035372

   => Energetics <=

    Nuclear Repulsion Energy =            707.3396960607821029
    One-Electron Energy =               -2531.4167870004062024
    Two-Electron Energy =                1002.2935390092704893
    Total Energy =                       -821.7835519303537239
  Basis Set: (AUG-CC-PVTZ AUX)
    Blend: AUG-CC-PVTZ-RI
    Molecular point group: c1

    Geometry (in Angstrom), charge = 0, multiplicity = 1:

       Center              X                  Y                   Z               Mass
    ------------   -----------------  -----------------  -----------------  -----------------
         S           -0.248833212322    -0.289886980270     0.121756705368    31.972071174400
         O           -0.277528212322    -1.479969980270    -0.748978294632    15.994914619570
         O           -0.161306612322    -0.453446180270     1.585176205368    15.994914619570
         C            1.116235787678     0.772903019730    -0.372852294632    12.000000000000
         C            2.458080787678     0.304797019730     0.196599705368    12.000000000000
         C           -1.703498212322     0.689471019730    -0.266861294632    12.000000000000
         C           -2.968840212322    -0.106569980270     0.039149705368    12.000000000000
         C            2.902129787678    -1.034745980270    -0.389424294632    12.000000000000
         C            3.506472787678     1.387358019730    -0.061604294632    12.000000000000
         C           -4.222007212322     0.706839019730    -0.272657294632    12.000000000000
         H            1.128636787678     0.793736019730    -1.468495294632     1.007825032230
         H            0.872291787678     1.773888019730     0.001761705368     1.007825032230
         H            2.328656787678     0.192341019730     1.279511705368     1.007825032230
         H           -1.643063212322     0.951192019730    -1.328899294632     1.007825032230
         H           -1.649832212322     1.602820019730     0.334564705368     1.007825032230
         H           -2.955650212322    -1.029158980270    -0.548474294632     1.007825032230
         H           -2.955977212322    -0.395276980270     1.094702705368     1.007825032230
         H            3.008441787678    -0.958336980270    -1.477248294632     1.007825032230
         H            2.189332787678    -1.833728980270    -0.178630294632     1.007825032230
         H            3.873771787678    -1.318950980270     0.026007705368     1.007825032230
         H            3.645706787678     1.543366019730    -1.136906294632     1.007825032230
         H            3.219227787678     2.342684019730     0.389096705368     1.007825032230
         H            4.470741787678     1.090374019730     0.361572705368     1.007825032230
         H           -4.256866212322     1.622918019730     0.324527705368     1.007825032230
         H           -4.256298212322     0.988880019730    -1.329276294632     1.007825032230
         H           -5.122009212322     0.127102019730    -0.050736294632     1.007825032230

  Basis Set: AUG-CC-PVTZ
    Blend: AUG-CC-PVTZ
  Basis Set: (AUG-CC-PVTZ AUX)
    Blend: AUG-CC-PVTZ-JKFIT
	 Reference Energy          =    -821.7835519303537239 [Eh]
	 Singles Energy            =      -0.0000000000000000 [Eh]
	 Same-Spin Energy          =      -0.5010347090714069 [Eh]
	 Opposite-Spin Energy      =      -1.6488432284984853 [Eh]
	 Correlation Energy        =      -2.1498779375698920 [Eh]
	 Total Energy              =    -823.9334298679235644 [Eh]

	 ================> DF-SCS-MP2 Energies <==================
	-----------------------------------------------------------
	 SCS Same-Spin Scale       =       0.3333333333333333 [-]
	 SCS Opposite-Spin Scale   =       1.2000000000000000 [-]
	 SCS Same-Spin Energy      =      -0.1670115696904690 [Eh]
	 SCS Opposite-Spin Energy  =      -1.9786118741981822 [Eh]
	 SCS Correlation Energy    =      -2.1456234438886512 [Eh]
	 SCS Total Energy          =    -823.9291753742423907 [Eh]
	-----------------------------------------------------------

  Dipole Moment: [D]
     X:    -0.2793      Y:     3.8317      Z:    -1.5666     Total:     4.1489

*** Psi4 exiting successfully. Buy a developer a beer!
