                               Psi4 1.4a3.dev225

  ==> Input File <==

--------------------------------------------------------------------------
#psi4
#
memory 32 gb

molecule  {
0 1
  S       -0.2573260    -0.3323280     0.1419150
  O       -0.2860210    -1.5224110    -0.7288200
  O       -0.1913230    -0.4820040     1.6079470
  C        1.1077430     0.7304620    -0.3526940
  C        2.4495880     0.2623560     0.2167580
  C       -1.7119910     0.6470300    -0.2467030
  C       -2.9773330    -0.1490110     0.0593080
  C        2.8936370    -1.0771870    -0.3692660
  C        3.4979800     1.3449170    -0.0414460
  C       -4.2305000     0.6643980    -0.2524990
  H        1.1201440     0.7512950    -1.4483370
  H        0.8637990     1.7314470     0.0219200
  H        2.3201640     0.1499000     1.2996700
  H       -1.6515560     0.9087510    -1.3087410
  H       -1.6583250     1.5603790     0.3547230
  H       -2.9641430    -1.0716000    -0.5283160
  H       -2.9644700    -0.4377180     1.1148610
  H        2.9999490    -1.0007780    -1.4570900
  H        2.1808400    -1.8761700    -0.1584720
  H        3.8652790    -1.3613920     0.0461660
  H        3.6372140     1.5009250    -1.1167480
  H        3.2238552     2.2566074     0.3886687
  H        4.4622490     1.0479330     0.3817310
  H       -4.2653590     1.5804770     0.3446860
  H       -4.2647910     0.9464390    -1.3091180
  H       -5.1305020     0.0846610    -0.0305780
units angstrom
no_reorient  #important for SAPT in psi4, default
symmetry c1  #important for SAPT in psi4, default
}

set PROPERTIES_ORIGIN ["COM"]
properties('MP2/aug-cc-pvtz', properties = ['dipole'])
--------------------------------------------------------------------------

    Molecular point group: c1
  Charge       = 0
  Multiplicity = 1
  Basis Set: AUG-CC-PVTZ
    Blend: AUG-CC-PVTZ
  Basis Set: (AUG-CC-PVTZ AUX)
    Blend: AUG-CC-PVTZ-JKFIT

    Orbital Energies [Eh]
    ---------------------

    Doubly Occupied:

       1A    -92.170123     2A    -20.535476     3A    -20.534706
       4A    -11.274765     5A    -11.273703     6A    -11.246086
       7A    -11.241408     8A    -11.229641     9A    -11.220520
      10A    -11.212388    11A     -9.140599    12A     -6.824988
      13A     -6.824578    14A     -6.824386    15A     -1.425790
      16A     -1.316556    17A     -1.116010    18A     -1.096130
      19A     -1.013820    20A     -0.961143    21A     -0.940673
      22A     -0.850907    23A     -0.805305    24A     -0.779016
      25A     -0.688044    26A     -0.675840    27A     -0.663532
      28A     -0.643338    29A     -0.619559    30A     -0.608512
      31A     -0.591472    32A     -0.581388    33A     -0.568175
      34A     -0.556031    35A     -0.539285    36A     -0.528553
      37A     -0.510132    38A     -0.503671    39A     -0.495653
      40A     -0.487715    41A     -0.483320    42A     -0.475294
      43A     -0.470213    44A     -0.456319    45A     -0.418119

  @DF-RHF Final Energy:  -821.78252434262356

   => Energetics <=

    Nuclear Repulsion Energy =            707.5380882302604277
    One-Electron Energy =               -2531.7954690927645061
    Two-Electron Energy =                1002.4748565198805181
    Total Energy =                       -821.7825243426235602
  Basis Set: (AUG-CC-PVTZ AUX)
    Blend: AUG-CC-PVTZ-RI
    Molecular point group: c1

    Geometry (in Angstrom), charge = 0, multiplicity = 1:

       Center              X                  Y                   Z               Mass
    ------------   -----------------  -----------------  -----------------  -----------------
         S           -0.246815715051    -0.290972279161     0.121628484893    31.972071174400
         O           -0.275510715051    -1.481055279161    -0.749106515107    15.994914619570
         O           -0.180812715051    -0.440648279161     1.587660484893    15.994914619570
         C            1.118253284949     0.771817720839    -0.372980515107    12.000000000000
         C            2.460098284949     0.303711720839     0.196471484893    12.000000000000
         C           -1.701480715051     0.688385720839    -0.266989515107    12.000000000000
         C           -2.966822715051    -0.107655279161     0.039021484893    12.000000000000
         C            2.904147284949    -1.035831279161    -0.389552515107    12.000000000000
         C            3.508490284949     1.386272720839    -0.061732515107    12.000000000000
         C           -4.219989715051     0.705753720839    -0.272785515107    12.000000000000
         H            1.130654284949     0.792650720839    -1.468623515107     1.007825032230
         H            0.874309284949     1.772802720839     0.001633484893     1.007825032230
         H            2.330674284949     0.191255720839     1.279383484893     1.007825032230
         H           -1.641045715051     0.950106720839    -1.329027515107     1.007825032230
         H           -1.647814715051     1.601734720839     0.334436484893     1.007825032230
         H           -2.953632715051    -1.030244279161    -0.548602515107     1.007825032230
         H           -2.953959715051    -0.396362279161     1.094574484893     1.007825032230
         H            3.010459284949    -0.959422279161    -1.477376515107     1.007825032230
         H            2.191350284949    -1.834814279161    -0.178758515107     1.007825032230
         H            3.875789284949    -1.320036279161     0.025879484893     1.007825032230
         H            3.647724284949     1.542280720839    -1.137034515107     1.007825032230
         H            3.234365484949     2.297963120839     0.368382184893     1.007825032230
         H            4.472759284949     1.089288720839     0.361444484893     1.007825032230
         H           -4.254848715051     1.621832720839     0.324399484893     1.007825032230
         H           -4.254280715051     0.987794720839    -1.329404515107     1.007825032230
         H           -5.119991715051     0.126016720839    -0.050864515107     1.007825032230

  Basis Set: AUG-CC-PVTZ
    Blend: AUG-CC-PVTZ
  Basis Set: (AUG-CC-PVTZ AUX)
    Blend: AUG-CC-PVTZ-JKFIT
	 Reference Energy          =    -821.7825243426235602 [Eh]
	 Singles Energy            =      -0.0000000000000000 [Eh]
	 Same-Spin Energy          =      -0.5010559627396886 [Eh]
	 Opposite-Spin Energy      =      -1.6486134341301213 [Eh]
	 Correlation Energy        =      -2.1496693968698097 [Eh]
	 Total Energy              =    -823.9321937394934139 [Eh]

	 ================> DF-SCS-MP2 Energies <==================
	-----------------------------------------------------------
	 SCS Same-Spin Scale       =       0.3333333333333333 [-]
	 SCS Opposite-Spin Scale   =       1.2000000000000000 [-]
	 SCS Same-Spin Energy      =      -0.1670186542465628 [Eh]
	 SCS Opposite-Spin Energy  =      -1.9783361209561454 [Eh]
	 SCS Correlation Energy    =      -2.1453547752027085 [Eh]
	 SCS Total Energy          =    -823.9278791178262509 [Eh]
	-----------------------------------------------------------

  Dipole Moment: [D]
     X:    -0.2049      Y:     3.8308      Z:    -1.5648     Total:     4.1432

*** Psi4 exiting successfully. Buy a developer a beer!
