                               Psi4 1.4a3.dev225

  ==> Input File <==

--------------------------------------------------------------------------
#psi4
#
memory 32 gb

molecule  {
0 1
  S       -0.2573260    -0.3323280     0.1419150
  O       -0.2879666    -1.6031006    -0.7878573
  O       -0.1913230    -0.4820040     1.6079470
  C        1.1077430     0.7304620    -0.3526940
  C        2.4495880     0.2623560     0.2167580
  C       -1.7119910     0.6470300    -0.2467030
  C       -2.9773330    -0.1490110     0.0593080
  C        2.8936370    -1.0771870    -0.3692660
  C        3.4979800     1.3449170    -0.0414460
  C       -4.2305000     0.6643980    -0.2524990
  H        1.1201440     0.7512950    -1.4483370
  H        0.8637990     1.7314470     0.0219200
  H        2.3201640     0.1499000     1.2996700
  H       -1.6515560     0.9087510    -1.3087410
  H       -1.6583250     1.5603790     0.3547230
  H       -2.9641430    -1.0716000    -0.5283160
  H       -2.9644700    -0.4377180     1.1148610
  H        2.9999490    -1.0007780    -1.4570900
  H        2.1808400    -1.8761700    -0.1584720
  H        3.8652790    -1.3613920     0.0461660
  H        3.6372140     1.5009250    -1.1167480
  H        3.2107350     2.3002430     0.4092550
  H        4.4622490     1.0479330     0.3817310
  H       -4.2653590     1.5804770     0.3446860
  H       -4.2647910     0.9464390    -1.3091180
  H       -5.1305020     0.0846610    -0.0305780
units angstrom
no_reorient  #important for SAPT in psi4, default
symmetry c1  #important for SAPT in psi4, default
}

set PROPERTIES_ORIGIN ["COM"]
properties('MP2/aug-cc-pvtz', properties = ['dipole'])
--------------------------------------------------------------------------

    Molecular point group: c1
  Charge       = 0
  Multiplicity = 1
  Basis Set: AUG-CC-PVTZ
    Blend: AUG-CC-PVTZ
  Basis Set: (AUG-CC-PVTZ AUX)
    Blend: AUG-CC-PVTZ-JKFIT

    Orbital Energies [Eh]
    ---------------------

    Doubly Occupied:

       1A    -92.174333     2A    -20.542136     3A    -20.533388
       4A    -11.280719     5A    -11.279437     6A    -11.248468
       7A    -11.242842     8A    -11.230905     9A    -11.228352
      10A    -11.212622    11A     -9.144788    12A     -6.829063
      13A     -6.828671    14A     -6.827930    15A     -1.406078
      16A     -1.285410    17A     -1.118442    18A     -1.098636
      19A     -1.017475    20A     -0.962650    21A     -0.938348
      22A     -0.853870    23A     -0.808985    24A     -0.781476
      25A     -0.683830    26A     -0.678065    27A     -0.662291
      28A     -0.639247    29A     -0.613691    30A     -0.605814
      31A     -0.591089    32A     -0.580120    33A     -0.565856
      34A     -0.553825    35A     -0.540206    36A     -0.528687
      37A     -0.511007    38A     -0.499282    39A     -0.496770
      40A     -0.488071    41A     -0.481915    42A     -0.470762
      43A     -0.465258    44A     -0.446822    45A     -0.419580

  @DF-RHF Final Energy:  -821.76600367907110

   => Energetics <=

    Nuclear Repulsion Energy =            702.7704105047838539
    One-Electron Energy =               -2522.2783998806398813
    Two-Electron Energy =                 997.7419856967850365
    Total Energy =                       -821.7660036790711047
  Basis Set: (AUG-CC-PVTZ AUX)
    Blend: AUG-CC-PVTZ-RI
    Molecular point group: c1

    Geometry (in Angstrom), charge = 0, multiplicity = 1:

       Center              X                  Y                   Z               Mass
    ------------   -----------------  -----------------  -----------------  -----------------
         S           -0.246545477040    -0.283374812902     0.127256893093    31.972071174400
         O           -0.277186077040    -1.554147412902    -0.802515406907    15.994914619570
         O           -0.180542477040    -0.433050812902     1.593288893093    15.994914619570
         C            1.118523522960     0.779415187098    -0.367352106907    12.000000000000
         C            2.460368522960     0.311309187098     0.202099893093    12.000000000000
         C           -1.701210477040     0.695983187098    -0.261361106907    12.000000000000
         C           -2.966552477040    -0.100057812902     0.044649893093    12.000000000000
         C            2.904417522960    -1.028233812902    -0.383924106907    12.000000000000
         C            3.508760522960     1.393870187098    -0.056104106907    12.000000000000
         C           -4.219719477040     0.713351187098    -0.267157106907    12.000000000000
         H            1.130924522960     0.800248187098    -1.462995106907     1.007825032230
         H            0.874579522960     1.780400187098     0.007261893093     1.007825032230
         H            2.330944522960     0.198853187098     1.285011893093     1.007825032230
         H           -1.640775477040     0.957704187098    -1.323399106907     1.007825032230
         H           -1.647544477040     1.609332187098     0.340064893093     1.007825032230
         H           -2.953362477040    -1.022646812902    -0.542974106907     1.007825032230
         H           -2.953689477040    -0.388764812902     1.100202893093     1.007825032230
         H            3.010729522960    -0.951824812902    -1.471748106907     1.007825032230
         H            2.191620522960    -1.827216812902    -0.173130106907     1.007825032230
         H            3.876059522960    -1.312438812902     0.031507893093     1.007825032230
         H            3.647994522960     1.549878187098    -1.131406106907     1.007825032230
         H            3.221515522960     2.349196187098     0.394596893093     1.007825032230
         H            4.473029522960     1.096886187098     0.367072893093     1.007825032230
         H           -4.254578477040     1.629430187098     0.330027893093     1.007825032230
         H           -4.254010477040     0.995392187098    -1.323776106907     1.007825032230
         H           -5.119721477040     0.133614187098    -0.045236106907     1.007825032230

  Basis Set: AUG-CC-PVTZ
    Blend: AUG-CC-PVTZ
  Basis Set: (AUG-CC-PVTZ AUX)
    Blend: AUG-CC-PVTZ-JKFIT
	 Reference Energy          =    -821.7660036790711047 [Eh]
	 Singles Energy            =      -0.0000000000000000 [Eh]
	 Same-Spin Energy          =      -0.5025605000139746 [Eh]
	 Opposite-Spin Energy      =      -1.6532400912932956 [Eh]
	 Correlation Energy        =      -2.1558005913072700 [Eh]
	 Total Energy              =    -823.9218042703784022 [Eh]

	 ================> DF-SCS-MP2 Energies <==================
	-----------------------------------------------------------
	 SCS Same-Spin Scale       =       0.3333333333333333 [-]
	 SCS Opposite-Spin Scale   =       1.2000000000000000 [-]
	 SCS Same-Spin Energy      =      -0.1675201666713249 [Eh]
	 SCS Opposite-Spin Energy  =      -1.9838881095519547 [Eh]
	 SCS Correlation Energy    =      -2.1514082762232793 [Eh]
	 SCS Total Energy          =    -823.9174119552943694 [Eh]
	-----------------------------------------------------------

  Dipole Moment: [D]
     X:    -0.1962      Y:     4.2495      Z:    -1.2959     Total:     4.4470

*** Psi4 exiting successfully. Buy a developer a beer!
