                               Psi4 1.4a3.dev225

  ==> Input File <==

--------------------------------------------------------------------------
#psi4
#
memory 32 gb

molecule  {
0 1
  S       -0.2573260    -0.3323280     0.1419150
  O       -0.2860210    -1.5224110    -0.7288200
  O       -0.1913230    -0.4820040     1.6079470
  C        1.1077430     0.7304620    -0.3526940
  C        2.4495880     0.2623560     0.2167580
  C       -1.7119910     0.6470300    -0.2467030
  C       -2.9773330    -0.1490110     0.0593080
  C        2.8936370    -1.0771870    -0.3692660
  C        3.4979800     1.3449170    -0.0414460
  C       -4.2305000     0.6643980    -0.2524990
  H        1.1201440     0.7512950    -1.4483370
  H        0.8637990     1.7314470     0.0219200
  H        2.3201640     0.1499000     1.2996700
  H       -1.6515560     0.9087510    -1.3087410
  H       -1.6534235     1.6437977     0.4096529
  H       -2.9641430    -1.0716000    -0.5283160
  H       -2.9644700    -0.4377180     1.1148610
  H        2.9999490    -1.0007780    -1.4570900
  H        2.1808400    -1.8761700    -0.1584720
  H        3.8652790    -1.3613920     0.0461660
  H        3.6372140     1.5009250    -1.1167480
  H        3.2107350     2.3002430     0.4092550
  H        4.4622490     1.0479330     0.3817310
  H       -4.2653590     1.5804770     0.3446860
  H       -4.2647910     0.9464390    -1.3091180
  H       -5.1305020     0.0846610    -0.0305780
units angstrom
no_reorient  #important for SAPT in psi4, default
symmetry c1  #important for SAPT in psi4, default
}

set PROPERTIES_ORIGIN ["COM"]
properties('MP2/aug-cc-pvtz', properties = ['dipole'])
--------------------------------------------------------------------------

    Molecular point group: c1
  Charge       = 0
  Multiplicity = 1
  Basis Set: AUG-CC-PVTZ
    Blend: AUG-CC-PVTZ
  Basis Set: (AUG-CC-PVTZ AUX)
    Blend: AUG-CC-PVTZ-JKFIT

    Orbital Energies [Eh]
    ---------------------

    Doubly Occupied:

       1A    -92.170746     2A    -20.535583     3A    -20.535396
       4A    -11.285488     5A    -11.273530     6A    -11.246522
       7A    -11.242270     8A    -11.229676     9A    -11.226763
      10A    -11.212910    11A     -9.141155    12A     -6.825556
      13A     -6.825135    14A     -6.824943    15A     -1.426111
      16A     -1.316889    17A     -1.115314    18A     -1.093539
      19A     -1.012959    20A     -0.958112    21A     -0.937702
      22A     -0.850864    23A     -0.800553    24A     -0.777840
      25A     -0.687159    26A     -0.672979    27A     -0.659608
      28A     -0.642527    29A     -0.619415    30A     -0.605082
      31A     -0.589852    32A     -0.580722    33A     -0.560966
      34A     -0.553807    35A     -0.539702    36A     -0.528931
      37A     -0.510528    38A     -0.501572    39A     -0.494762
      40A     -0.486959    41A     -0.481995    42A     -0.475340
      43A     -0.470645    44A     -0.456033    45A     -0.418513

  @DF-RHF Final Energy:  -821.77669508759072

   => Energetics <=

    Nuclear Repulsion Energy =            706.8025252888580781
    One-Electron Energy =               -2530.3531425073952050
    Two-Electron Energy =                1001.7739221309464028
    Total Energy =                       -821.7766950875907241
  Basis Set: (AUG-CC-PVTZ AUX)
    Blend: AUG-CC-PVTZ-RI
    Molecular point group: c1

    Geometry (in Angstrom), charge = 0, multiplicity = 1:

       Center              X                  Y                   Z               Mass
    ------------   -----------------  -----------------  -----------------  -----------------
         S           -0.246765235693    -0.291752648265     0.121164663446    31.972071174400
         O           -0.275460235693    -1.481835648265    -0.749570336554    15.994914619570
         O           -0.180762235693    -0.441428648265     1.587196663446    15.994914619570
         C            1.118303764307     0.771037351735    -0.373444336554    12.000000000000
         C            2.460148764307     0.302931351735     0.196007663446    12.000000000000
         C           -1.701430235693     0.687605351735    -0.267453336554    12.000000000000
         C           -2.966772235693    -0.108435648265     0.038557663446    12.000000000000
         C            2.904197764307    -1.036611648265    -0.390016336554    12.000000000000
         C            3.508540764307     1.385492351735    -0.062196336554    12.000000000000
         C           -4.219939235693     0.704973351735    -0.273249336554    12.000000000000
         H            1.130704764307     0.791870351735    -1.469087336554     1.007825032230
         H            0.874359764307     1.772022351735     0.001169663446     1.007825032230
         H            2.330724764307     0.190475351735     1.278919663446     1.007825032230
         H           -1.640995235693     0.949326351735    -1.329491336554     1.007825032230
         H           -1.642862735693     1.684373051735     0.388902563446     1.007825032230
         H           -2.953582235693    -1.031024648265    -0.549066336554     1.007825032230
         H           -2.953909235693    -0.397142648265     1.094110663446     1.007825032230
         H            3.010509764307    -0.960202648265    -1.477840336554     1.007825032230
         H            2.191400764307    -1.835594648265    -0.179222336554     1.007825032230
         H            3.875839764307    -1.320816648265     0.025415663446     1.007825032230
         H            3.647774764307     1.541500351735    -1.137498336554     1.007825032230
         H            3.221295764307     2.340818351735     0.388504663446     1.007825032230
         H            4.472809764307     1.088508351735     0.360980663446     1.007825032230
         H           -4.254798235693     1.621052351735     0.323935663446     1.007825032230
         H           -4.254230235693     0.987014351735    -1.329868336554     1.007825032230
         H           -5.119941235693     0.125236351735    -0.051328336554     1.007825032230

  Basis Set: AUG-CC-PVTZ
    Blend: AUG-CC-PVTZ
  Basis Set: (AUG-CC-PVTZ AUX)
    Blend: AUG-CC-PVTZ-JKFIT
	 Reference Energy          =    -821.7766950875907241 [Eh]
	 Singles Energy            =      -0.0000000000000000 [Eh]
	 Same-Spin Energy          =      -0.5012339393902268 [Eh]
	 Opposite-Spin Energy      =      -1.6497781907214810 [Eh]
	 Correlation Energy        =      -2.1510121301117078 [Eh]
	 Total Energy              =    -823.9277072177023911 [Eh]

	 ================> DF-SCS-MP2 Energies <==================
	-----------------------------------------------------------
	 SCS Same-Spin Scale       =       0.3333333333333333 [-]
	 SCS Opposite-Spin Scale   =       1.2000000000000000 [-]
	 SCS Same-Spin Energy      =      -0.1670779797967422 [Eh]
	 SCS Opposite-Spin Energy  =      -1.9797338288657771 [Eh]
	 SCS Correlation Energy    =      -2.1468118086625192 [Eh]
	 SCS Total Energy          =    -823.9235068962532296 [Eh]
	-----------------------------------------------------------

  Dipole Moment: [D]
     X:    -0.2125      Y:     3.7641      Z:    -1.5804     Total:     4.0879

*** Psi4 exiting successfully. Buy a developer a beer!
