                               Psi4 1.4a3.dev225

  ==> Input File <==

--------------------------------------------------------------------------
#psi4
#
memory 32 gb

molecule  {
0 1
  S       -0.2573260    -0.3323280     0.1419150
  O       -0.2860210    -1.5224110    -0.7288200
  O       -0.1913230    -0.4820040     1.6079470
  C        1.1077430     0.7304620    -0.3526940
  C        2.4495880     0.2623560     0.2167580
  C       -1.7119910     0.6470300    -0.2467030
  C       -2.9773330    -0.1490110     0.0593080
  C        2.8936370    -1.0771870    -0.3692660
  C        3.4979800     1.3449170    -0.0414460
  C       -4.2305000     0.6643980    -0.2524990
  H        1.1201440     0.7512950    -1.4483370
  H        0.8637990     1.7314470     0.0219200
  H        2.3201640     0.1499000     1.2996700
  H       -1.6515560     0.9087510    -1.3087410
  H       -1.6583250     1.5603790     0.3547230
  H       -2.9641430    -1.0716000    -0.5283160
  H       -2.9644700    -0.4377180     1.1148610
  H        2.9999490    -1.0007780    -1.4570900
  H        2.1939035    -1.8615269    -0.1623353
  H        3.8652790    -1.3613920     0.0461660
  H        3.6372140     1.5009250    -1.1167480
  H        3.2107350     2.3002430     0.4092550
  H        4.4622490     1.0479330     0.3817310
  H       -4.2653590     1.5804770     0.3446860
  H       -4.2647910     0.9464390    -1.3091180
  H       -5.1305020     0.0846610    -0.0305780
units angstrom
no_reorient  #important for SAPT in psi4, default
symmetry c1  #important for SAPT in psi4, default
}

set PROPERTIES_ORIGIN ["COM"]
properties('MP2/aug-cc-pvtz', properties = ['dipole'])
--------------------------------------------------------------------------

    Molecular point group: c1
  Charge       = 0
  Multiplicity = 1
  Basis Set: AUG-CC-PVTZ
    Blend: AUG-CC-PVTZ
  Basis Set: (AUG-CC-PVTZ AUX)
    Blend: AUG-CC-PVTZ-JKFIT

    Orbital Energies [Eh]
    ---------------------

    Doubly Occupied:

       1A    -92.170170     2A    -20.535547     3A    -20.534828
       4A    -11.274794     5A    -11.273696     6A    -11.246464
       7A    -11.241436     8A    -11.229656     9A    -11.226704
      10A    -11.210679    11A     -9.140650    12A     -6.825038
      13A     -6.824629    14A     -6.824438    15A     -1.425872
      16A     -1.316640    17A     -1.115848    18A     -1.096114
      19A     -1.013535    20A     -0.960584    21A     -0.939178
      22A     -0.850735    23A     -0.805080    24A     -0.778999
      25A     -0.687876    26A     -0.675839    27A     -0.663580
      28A     -0.642945    29A     -0.619329    30A     -0.606327
      31A     -0.591519    32A     -0.581583    33A     -0.568205
      34A     -0.553985    35A     -0.539640    36A     -0.528988
      37A     -0.510360    38A     -0.503619    39A     -0.495891
      40A     -0.487299    41A     -0.482627    42A     -0.475457
      43A     -0.470677    44A     -0.456395    45A     -0.418442

  @DF-RHF Final Energy:  -821.78358075920937

   => Energetics <=

    Nuclear Repulsion Energy =            707.3836472499269803
    One-Electron Energy =               -2531.4906626066199351
    Two-Electron Energy =                1002.3234345974835833
    Total Energy =                       -821.7835807592093715
  Basis Set: (AUG-CC-PVTZ AUX)
    Blend: AUG-CC-PVTZ-RI
    Molecular point group: c1

    Geometry (in Angstrom), charge = 0, multiplicity = 1:

       Center              X                  Y                   Z               Mass
    ------------   -----------------  -----------------  -----------------  -----------------
         S           -0.246815366799    -0.291330227667     0.121525772017    31.972071174400
         O           -0.275510366799    -1.481413227667    -0.749209227983    15.994914619570
         O           -0.180812366799    -0.441006227667     1.587557772017    15.994914619570
         C            1.118253633201     0.771459772333    -0.373083227983    12.000000000000
         C            2.460098633201     0.303353772333     0.196368772017    12.000000000000
         C           -1.701480366799     0.688027772333    -0.267092227983    12.000000000000
         C           -2.966822366799    -0.108013227667     0.038918772017    12.000000000000
         C            2.904147633201    -1.036189227667    -0.389655227983    12.000000000000
         C            3.508490633201     1.385914772333    -0.061835227983    12.000000000000
         C           -4.219989366799     0.705395772333    -0.272888227983    12.000000000000
         H            1.130654633201     0.792292772333    -1.468726227983     1.007825032230
         H            0.874309633201     1.772444772333     0.001530772017     1.007825032230
         H            2.330674633201     0.190897772333     1.279280772017     1.007825032230
         H           -1.641045366799     0.949748772333    -1.329130227983     1.007825032230
         H           -1.647814366799     1.601376772333     0.334333772017     1.007825032230
         H           -2.953632366799    -1.030602227667    -0.548705227983     1.007825032230
         H           -2.953959366799    -0.396720227667     1.094471772017     1.007825032230
         H            3.010459633201    -0.959780227667    -1.477479227983     1.007825032230
         H            2.204414133201    -1.820529127667    -0.182724527983     1.007825032230
         H            3.875789633201    -1.320394227667     0.025776772017     1.007825032230
         H            3.647724633201     1.541922772333    -1.137137227983     1.007825032230
         H            3.221245633201     2.341240772333     0.388865772017     1.007825032230
         H            4.472759633201     1.088930772333     0.361341772017     1.007825032230
         H           -4.254848366799     1.621474772333     0.324296772017     1.007825032230
         H           -4.254280366799     0.987436772333    -1.329507227983     1.007825032230
         H           -5.119991366799     0.125658772333    -0.050967227983     1.007825032230

  Basis Set: AUG-CC-PVTZ
    Blend: AUG-CC-PVTZ
  Basis Set: (AUG-CC-PVTZ AUX)
    Blend: AUG-CC-PVTZ-JKFIT
	 Reference Energy          =    -821.7835807592093715 [Eh]
	 Singles Energy            =      -0.0000000000000000 [Eh]
	 Same-Spin Energy          =      -0.5010144168355750 [Eh]
	 Opposite-Spin Energy      =      -1.6487350392236222 [Eh]
	 Correlation Energy        =      -2.1497494560591974 [Eh]
	 Total Energy              =    -823.9333302152685974 [Eh]

	 ================> DF-SCS-MP2 Energies <==================
	-----------------------------------------------------------
	 SCS Same-Spin Scale       =       0.3333333333333333 [-]
	 SCS Opposite-Spin Scale   =       1.2000000000000000 [-]
	 SCS Same-Spin Energy      =      -0.1670048056118583 [Eh]
	 SCS Opposite-Spin Energy  =      -1.9784820470683466 [Eh]
	 SCS Correlation Energy    =      -2.1454868526802051 [Eh]
	 SCS Total Energy          =    -823.9290676118895362 [Eh]
	-----------------------------------------------------------

  Dipole Moment: [D]
     X:    -0.2041      Y:     3.7933      Z:    -1.5740     Total:     4.1119

*** Psi4 exiting successfully. Buy a developer a beer!
