                               Psi4 1.4a3.dev225

  ==> Input File <==

--------------------------------------------------------------------------
#psi4
#
memory 32 gb

molecule  {
0 1
  S       -0.2573260    -0.3323280     0.1419150
  O       -0.2860210    -1.5224110    -0.7288200
  O       -0.1913230    -0.4820040     1.6079470
  C        1.1077430     0.7304620    -0.3526940
  C        2.4495880     0.2623560     0.2167580
  C       -1.7119910     0.6470300    -0.2467030
  C       -2.9773330    -0.1490110     0.0593080
  C        2.8936370    -1.0771870    -0.3692660
  C        3.4979800     1.3449170    -0.0414460
  C       -4.2305000     0.6643980    -0.2524990
  H        1.1201440     0.7512950    -1.4483370
  H        0.8637990     1.7314470     0.0219200
  H        2.3201640     0.1499000     1.2996700
  H       -1.6515560     0.9087510    -1.3087410
  H       -1.6583250     1.5603790     0.3547230
  H       -2.9641430    -1.0716000    -0.5283160
  H       -2.9644700    -0.4377180     1.1148610
  H        2.9814782    -0.9960010    -1.4583915
  H        2.1808400    -1.8761700    -0.1584720
  H        3.8652790    -1.3613920     0.0461660
  H        3.6372140     1.5009250    -1.1167480
  H        3.2107350     2.3002430     0.4092550
  H        4.4622490     1.0479330     0.3817310
  H       -4.2653590     1.5804770     0.3446860
  H       -4.2647910     0.9464390    -1.3091180
  H       -5.1305020     0.0846610    -0.0305780
units angstrom
no_reorient  #important for SAPT in psi4, default
symmetry c1  #important for SAPT in psi4, default
}

set PROPERTIES_ORIGIN ["COM"]
properties('MP2/aug-cc-pvtz', properties = ['dipole'])
--------------------------------------------------------------------------

    Molecular point group: c1
  Charge       = 0
  Multiplicity = 1
  Basis Set: AUG-CC-PVTZ
    Blend: AUG-CC-PVTZ
  Basis Set: (AUG-CC-PVTZ AUX)
    Blend: AUG-CC-PVTZ-JKFIT

    Orbital Energies [Eh]
    ---------------------

    Doubly Occupied:

       1A    -92.170166     2A    -20.535515     3A    -20.534776
       4A    -11.274795     5A    -11.273737     6A    -11.246467
       7A    -11.241434     8A    -11.229656     9A    -11.226800
      10A    -11.212951    11A     -9.140644    12A     -6.825032
      13A     -6.824623    14A     -6.824432    15A     -1.425848
      16A     -1.316615    17A     -1.115795    18A     -1.096093
      19A     -1.013428    20A     -0.960518    21A     -0.937775
      22A     -0.850614    23A     -0.804888    24A     -0.778660
      25A     -0.687821    26A     -0.675804    27A     -0.663670
      28A     -0.642685    29A     -0.619394    30A     -0.605325
      31A     -0.591482    32A     -0.580742    33A     -0.568200
      34A     -0.553566    35A     -0.540340    36A     -0.528674
      37A     -0.510259    38A     -0.502942    39A     -0.495666
      40A     -0.487523    41A     -0.482311    42A     -0.474999
      43A     -0.470379    44A     -0.456374    45A     -0.418263

  @DF-RHF Final Energy:  -821.78346051528410

   => Energetics <=

    Nuclear Repulsion Energy =            707.3530881074418630
    One-Electron Energy =               -2531.4377322851660210
    Two-Electron Energy =                1002.3011836624400530
    Total Energy =                       -821.7834605152841050
  Basis Set: (AUG-CC-PVTZ AUX)
    Blend: AUG-CC-PVTZ-RI
    Molecular point group: c1

    Geometry (in Angstrom), charge = 0, multiplicity = 1:

       Center              X                  Y                   Z               Mass
    ------------   -----------------  -----------------  -----------------  -----------------
         S           -0.246621682733    -0.291269629957     0.121510037410    31.972071174400
         O           -0.275316682733    -1.481352629957    -0.749224962590    15.994914619570
         O           -0.180618682733    -0.440945629957     1.587542037410    15.994914619570
         C            1.118447317267     0.771520370043    -0.373098962590    12.000000000000
         C            2.460292317267     0.303414370043     0.196353037410    12.000000000000
         C           -1.701286682733     0.688088370043    -0.267107962590    12.000000000000
         C           -2.966628682733    -0.107952629957     0.038903037410    12.000000000000
         C            2.904341317267    -1.036128629957    -0.389670962590    12.000000000000
         C            3.508684317267     1.385975370043    -0.061850962590    12.000000000000
         C           -4.219795682733     0.705456370043    -0.272903962590    12.000000000000
         H            1.130848317267     0.792353370043    -1.468741962590     1.007825032230
         H            0.874503317267     1.772505370043     0.001515037410     1.007825032230
         H            2.330868317267     0.190958370043     1.279265037410     1.007825032230
         H           -1.640851682733     0.949809370043    -1.329145962590     1.007825032230
         H           -1.647620682733     1.601437370043     0.334318037410     1.007825032230
         H           -2.953438682733    -1.030541629957    -0.548720962590     1.007825032230
         H           -2.953765682733    -0.396659629957     1.094456037410     1.007825032230
         H            2.992182517267    -0.954942629957    -1.478796462590     1.007825032230
         H            2.191544317267    -1.835111629957    -0.178876962590     1.007825032230
         H            3.875983317267    -1.320333629957     0.025761037410     1.007825032230
         H            3.647918317267     1.541983370043    -1.137152962590     1.007825032230
         H            3.221439317267     2.341301370043     0.388850037410     1.007825032230
         H            4.472953317267     1.088991370043     0.361326037410     1.007825032230
         H           -4.254654682733     1.621535370043     0.324281037410     1.007825032230
         H           -4.254086682733     0.987497370043    -1.329522962590     1.007825032230
         H           -5.119797682733     0.125719370043    -0.050982962590     1.007825032230

  Basis Set: AUG-CC-PVTZ
    Blend: AUG-CC-PVTZ
  Basis Set: (AUG-CC-PVTZ AUX)
    Blend: AUG-CC-PVTZ-JKFIT
	 Reference Energy          =    -821.7834605152841050 [Eh]
	 Singles Energy            =      -0.0000000000000000 [Eh]
	 Same-Spin Energy          =      -0.5010582024314285 [Eh]
	 Opposite-Spin Energy      =      -1.6489076226283237 [Eh]
	 Correlation Energy        =      -2.1499658250597520 [Eh]
	 Total Energy              =    -823.9334263403438854 [Eh]

	 ================> DF-SCS-MP2 Energies <==================
	-----------------------------------------------------------
	 SCS Same-Spin Scale       =       0.3333333333333333 [-]
	 SCS Opposite-Spin Scale   =       1.2000000000000000 [-]
	 SCS Same-Spin Energy      =      -0.1670194008104762 [Eh]
	 SCS Opposite-Spin Energy  =      -1.9786891471539882 [Eh]
	 SCS Correlation Energy    =      -2.1457085479644644 [Eh]
	 SCS Total Energy          =    -823.9291690632485370 [Eh]
	-----------------------------------------------------------

  Dipole Moment: [D]
     X:    -0.2085      Y:     3.7984      Z:    -1.5719     Total:     4.1161

*** Psi4 exiting successfully. Buy a developer a beer!
