                               Psi4 1.4a3.dev225

  ==> Input File <==

--------------------------------------------------------------------------
#psi4
#
memory 32 gb

molecule  {
0 1
  S       -0.2573260    -0.3323280     0.1419150
  O       -0.2860210    -1.5224110    -0.7288200
  O       -0.1913230    -0.4820040     1.6079470
  C        1.1077430     0.7304620    -0.3526940
  C        2.4495880     0.2623560     0.2167580
  C       -1.7119910     0.6470300    -0.2467030
  C       -2.9773330    -0.1490110     0.0593080
  C        2.9384237    -1.0538018    -0.3863568
  C        3.4979800     1.3449170    -0.0414460
  C       -4.2305000     0.6643980    -0.2524990
  H        1.1201440     0.7512950    -1.4483370
  H        0.8637990     1.7314470     0.0219200
  H        2.3201640     0.1499000     1.2996700
  H       -1.6515560     0.9087510    -1.3087410
  H       -1.6583250     1.5603790     0.3547230
  H       -2.9641430    -1.0716000    -0.5283160
  H       -2.9644700    -0.4377180     1.1148610
  H        2.9999490    -1.0007780    -1.4570900
  H        2.1808400    -1.8761700    -0.1584720
  H        3.8652790    -1.3613920     0.0461660
  H        3.6372140     1.5009250    -1.1167480
  H        3.2107350     2.3002430     0.4092550
  H        4.4622490     1.0479330     0.3817310
  H       -4.2653590     1.5804770     0.3446860
  H       -4.2647910     0.9464390    -1.3091180
  H       -5.1305020     0.0846610    -0.0305780
units angstrom
no_reorient  #important for SAPT in psi4, default
symmetry c1  #important for SAPT in psi4, default
}

set PROPERTIES_ORIGIN ["COM"]
properties('MP2/aug-cc-pvtz', properties = ['dipole'])
--------------------------------------------------------------------------

    Molecular point group: c1
  Charge       = 0
  Multiplicity = 1
  Basis Set: AUG-CC-PVTZ
    Blend: AUG-CC-PVTZ
  Basis Set: (AUG-CC-PVTZ AUX)
    Blend: AUG-CC-PVTZ-JKFIT

    Orbital Energies [Eh]
    ---------------------

    Doubly Occupied:

       1A    -92.170162     2A    -20.535477     3A    -20.534617
       4A    -11.274806     5A    -11.274370     6A    -11.246585
       7A    -11.241430     8A    -11.229652     9A    -11.225809
      10A    -11.212788    11A     -9.140628    12A     -6.825020
      13A     -6.824609    14A     -6.824415    15A     -1.425730
      16A     -1.316493    17A     -1.115865    18A     -1.096111
      19A     -1.013989    20A     -0.961064    21A     -0.936228
      22A     -0.850916    23A     -0.805160    24A     -0.779234
      25A     -0.687548    26A     -0.675964    27A     -0.664307
      28A     -0.642587    29A     -0.620346    30A     -0.603547
      31A     -0.591428    32A     -0.579550    33A     -0.568191
      34A     -0.553146    35A     -0.545678    36A     -0.528760
      37A     -0.510874    38A     -0.500657    39A     -0.495820
      40A     -0.488464    41A     -0.481448    42A     -0.475485
      43A     -0.466817    44A     -0.456279    45A     -0.417271

  @DF-RHF Final Energy:  -821.78054076441344

   => Energetics <=

    Nuclear Repulsion Energy =            706.9317675152387892
    One-Electron Energy =               -2530.5939725710318271
    Two-Electron Energy =                1001.8816642913795931
    Total Energy =                       -821.7805407644134448
  Basis Set: (AUG-CC-PVTZ AUX)
    Blend: AUG-CC-PVTZ-RI
    Molecular point group: c1

    Geometry (in Angstrom), charge = 0, multiplicity = 1:

       Center              X                  Y                   Z               Mass
    ------------   -----------------  -----------------  -----------------  -----------------
         S           -0.250010466687    -0.292950493464     0.122751926105    31.972071174400
         O           -0.278705466687    -1.483033493464    -0.747983073895    15.994914619570
         O           -0.184007466687    -0.442626493464     1.588783926105    15.994914619570
         C            1.115058533313     0.769839506536    -0.371857073895    12.000000000000
         C            2.456903533313     0.301733506536     0.197594926105    12.000000000000
         C           -1.704675466687     0.686407506536    -0.265866073895    12.000000000000
         C           -2.970017466687    -0.109633493464     0.040144926105    12.000000000000
         C            2.945739233313    -1.014424293464    -0.405519873895    12.000000000000
         C            3.505295533313     1.384294506536    -0.060609073895    12.000000000000
         C           -4.223184466687     0.703775506536    -0.271662073895    12.000000000000
         H            1.127459533313     0.790672506536    -1.467500073895     1.007825032230
         H            0.871114533313     1.770824506536     0.002756926105     1.007825032230
         H            2.327479533313     0.189277506536     1.280506926105     1.007825032230
         H           -1.644240466687     0.948128506536    -1.327904073895     1.007825032230
         H           -1.651009466687     1.599756506536     0.335559926105     1.007825032230
         H           -2.956827466687    -1.032222493464    -0.547479073895     1.007825032230
         H           -2.957154466687    -0.398340493464     1.095697926105     1.007825032230
         H            3.007264533313    -0.961400493464    -1.476253073895     1.007825032230
         H            2.188155533313    -1.836792493464    -0.177635073895     1.007825032230
         H            3.872594533313    -1.322014493464     0.027002926105     1.007825032230
         H            3.644529533313     1.540302506536    -1.135911073895     1.007825032230
         H            3.218050533313     2.339620506536     0.390091926105     1.007825032230
         H            4.469564533313     1.087310506536     0.362567926105     1.007825032230
         H           -4.258043466687     1.619854506536     0.325522926105     1.007825032230
         H           -4.257475466687     0.985816506536    -1.328281073895     1.007825032230
         H           -5.123186466687     0.124038506536    -0.049741073895     1.007825032230

  Basis Set: AUG-CC-PVTZ
    Blend: AUG-CC-PVTZ
  Basis Set: (AUG-CC-PVTZ AUX)
    Blend: AUG-CC-PVTZ-JKFIT
	 Reference Energy          =    -821.7805407644134448 [Eh]
	 Singles Energy            =      -0.0000000000000000 [Eh]
	 Same-Spin Energy          =      -0.5011146634349962 [Eh]
	 Opposite-Spin Energy      =      -1.6490460123143200 [Eh]
	 Correlation Energy        =      -2.1501606757493161 [Eh]
	 Total Energy              =    -823.9307014401628066 [Eh]

	 ================> DF-SCS-MP2 Energies <==================
	-----------------------------------------------------------
	 SCS Same-Spin Scale       =       0.3333333333333333 [-]
	 SCS Opposite-Spin Scale   =       1.2000000000000000 [-]
	 SCS Same-Spin Energy      =      -0.1670382211449987 [Eh]
	 SCS Opposite-Spin Energy  =      -1.9788552147771838 [Eh]
	 SCS Correlation Energy    =      -2.1458934359221824 [Eh]
	 SCS Total Energy          =    -823.9264342003356205 [Eh]
	-----------------------------------------------------------

  Dipole Moment: [D]
     X:    -0.2072      Y:     3.7901      Z:    -1.5843     Total:     4.1131

*** Psi4 exiting successfully. Buy a developer a beer!
