                               Psi4 1.4a3.dev225

  ==> Input File <==

--------------------------------------------------------------------------
#psi4
#
memory 32 gb

molecule  {
0 1
  S       -0.2573260    -0.3323280     0.1419150
  O       -0.2860210    -1.5224110    -0.7288200
  O       -0.1913230    -0.4820040     1.6079470
  C        1.1077430     0.7304620    -0.3526940
  C        2.4495880     0.2623560     0.2167580
  C       -1.7119910     0.6470300    -0.2467030
  C       -2.8944095    -0.0968429     0.0392537
  C        2.8936370    -1.0771870    -0.3692660
  C        3.4979800     1.3449170    -0.0414460
  C       -4.2305000     0.6643980    -0.2524990
  H        1.1201440     0.7512950    -1.4483370
  H        0.8637990     1.7314470     0.0219200
  H        2.3201640     0.1499000     1.2996700
  H       -1.6515560     0.9087510    -1.3087410
  H       -1.6583250     1.5603790     0.3547230
  H       -2.9641430    -1.0716000    -0.5283160
  H       -2.9644700    -0.4377180     1.1148610
  H        2.9999490    -1.0007780    -1.4570900
  H        2.1808400    -1.8761700    -0.1584720
  H        3.8652790    -1.3613920     0.0461660
  H        3.6372140     1.5009250    -1.1167480
  H        3.2107350     2.3002430     0.4092550
  H        4.4622490     1.0479330     0.3817310
  H       -4.2653590     1.5804770     0.3446860
  H       -4.2647910     0.9464390    -1.3091180
  H       -5.1305020     0.0846610    -0.0305780
units angstrom
no_reorient  #important for SAPT in psi4, default
symmetry c1  #important for SAPT in psi4, default
}

set PROPERTIES_ORIGIN ["COM"]
properties('MP2/aug-cc-pvtz', properties = ['dipole'])
--------------------------------------------------------------------------

    Molecular point group: c1
  Charge       = 0
  Multiplicity = 1
  Basis Set: AUG-CC-PVTZ
    Blend: AUG-CC-PVTZ
  Basis Set: (AUG-CC-PVTZ AUX)
    Blend: AUG-CC-PVTZ-JKFIT

    Orbital Energies [Eh]
    ---------------------

    Doubly Occupied:

       1A    -92.171052     2A    -20.536498     3A    -20.535741
       4A    -11.274611     5A    -11.272597     6A    -11.247212
       7A    -11.241910     8A    -11.231578     9A    -11.227283
      10A    -11.213356    11A     -9.141678    12A     -6.826084
      13A     -6.825623    14A     -6.825422    15A     -1.426989
      16A     -1.317460    17A     -1.119521    18A     -1.107621
      19A     -1.010801    20A     -0.960703    21A     -0.938222
      22A     -0.851979    23A     -0.801357    24A     -0.779928
      25A     -0.691754    26A     -0.678969    27A     -0.666013
      28A     -0.643869    29A     -0.618674    30A     -0.606027
      31A     -0.598037    32A     -0.581525    33A     -0.565308
      34A     -0.554868    35A     -0.542452    36A     -0.536783
      37A     -0.505270    38A     -0.503815    39A     -0.489338
      40A     -0.483811    41A     -0.481470    42A     -0.471819
      43A     -0.467737    44A     -0.456578    45A     -0.418834

  @DF-RHF Final Energy:  -821.77195935856844

   => Energetics <=

    Nuclear Repulsion Energy =            708.8955777924837776
    One-Electron Energy =               -2534.4387214280277476
    Two-Electron Energy =                1003.7711842769754185
    Total Energy =                       -821.7719593585684379
  Basis Set: (AUG-CC-PVTZ AUX)
    Blend: AUG-CC-PVTZ-RI
    Molecular point group: c1

    Geometry (in Angstrom), charge = 0, multiplicity = 1:

       Center              X                  Y                   Z               Mass
    ------------   -----------------  -----------------  -----------------  -----------------
         S           -0.252799482992    -0.295055441373     0.122968652465    31.972071174400
         O           -0.281494482992    -1.485138441373    -0.747766347535    15.994914619570
         O           -0.186796482992    -0.444731441373     1.589000652465    15.994914619570
         C            1.112269517008     0.767734558627    -0.371640347535    12.000000000000
         C            2.454114517008     0.299628558627     0.197811652465    12.000000000000
         C           -1.707464482992     0.684302558627    -0.265649347535    12.000000000000
         C           -2.889882982992    -0.059570341373     0.020307352465    12.000000000000
         C            2.898163517008    -1.039914441373    -0.388212347535    12.000000000000
         C            3.502506517008     1.382189558627    -0.060392347535    12.000000000000
         C           -4.225973482992     0.701670558627    -0.271445347535    12.000000000000
         H            1.124670517008     0.788567558627    -1.467283347535     1.007825032230
         H            0.868325517008     1.768719558627     0.002973652465     1.007825032230
         H            2.324690517008     0.187172558627     1.280723652465     1.007825032230
         H           -1.647029482992     0.946023558627    -1.327687347535     1.007825032230
         H           -1.653798482992     1.597651558627     0.335776652465     1.007825032230
         H           -2.959616482992    -1.034327441373    -0.547262347535     1.007825032230
         H           -2.959943482992    -0.400445441373     1.095914652465     1.007825032230
         H            3.004475517008    -0.963505441373    -1.476036347535     1.007825032230
         H            2.185366517008    -1.838897441373    -0.177418347535     1.007825032230
         H            3.869805517008    -1.324119441373     0.027219652465     1.007825032230
         H            3.641740517008     1.538197558627    -1.135694347535     1.007825032230
         H            3.215261517008     2.337515558627     0.390308652465     1.007825032230
         H            4.466775517008     1.085205558627     0.362784652465     1.007825032230
         H           -4.260832482992     1.617749558627     0.325739652465     1.007825032230
         H           -4.260264482992     0.983711558627    -1.328064347535     1.007825032230
         H           -5.125975482992     0.121933558627    -0.049524347535     1.007825032230

  Basis Set: AUG-CC-PVTZ
    Blend: AUG-CC-PVTZ
  Basis Set: (AUG-CC-PVTZ AUX)
    Blend: AUG-CC-PVTZ-JKFIT
	 Reference Energy          =    -821.7719593585684379 [Eh]
	 Singles Energy            =      -0.0000000000000000 [Eh]
	 Same-Spin Energy          =      -0.5020320186164308 [Eh]
	 Opposite-Spin Energy      =      -1.6502463400226191 [Eh]
	 Correlation Energy        =      -2.1522783586390499 [Eh]
	 Total Energy              =    -823.9242377172074612 [Eh]

	 ================> DF-SCS-MP2 Energies <==================
	-----------------------------------------------------------
	 SCS Same-Spin Scale       =       0.3333333333333333 [-]
	 SCS Opposite-Spin Scale   =       1.2000000000000000 [-]
	 SCS Same-Spin Energy      =      -0.1673440062054769 [Eh]
	 SCS Opposite-Spin Energy  =      -1.9802956080271428 [Eh]
	 SCS Correlation Energy    =      -2.1476396142326197 [Eh]
	 SCS Total Energy          =    -823.9195989728010545 [Eh]
	-----------------------------------------------------------

  Dipole Moment: [D]
     X:    -0.1120      Y:     3.7930      Z:    -1.5734     Total:     4.1079

*** Psi4 exiting successfully. Buy a developer a beer!
