                               Psi4 1.4a3.dev225

  ==> Input File <==

--------------------------------------------------------------------------
#psi4
#
memory 32 gb

molecule  {
0 1
  S       -0.2573260    -0.3323280     0.1419150
  O       -0.2860210    -1.5224110    -0.7288200
  O       -0.1913230    -0.4820040     1.6079470
  C        1.1836086     0.7895280    -0.3801826
  C        2.4495880     0.2623560     0.2167580
  C       -1.7119910     0.6470300    -0.2467030
  C       -2.9773330    -0.1490110     0.0593080
  C        2.8936370    -1.0771870    -0.3692660
  C        3.4979800     1.3449170    -0.0414460
  C       -4.2305000     0.6643980    -0.2524990
  H        1.1201440     0.7512950    -1.4483370
  H        0.8637990     1.7314470     0.0219200
  H        2.3201640     0.1499000     1.2996700
  H       -1.6515560     0.9087510    -1.3087410
  H       -1.6583250     1.5603790     0.3547230
  H       -2.9641430    -1.0716000    -0.5283160
  H       -2.9644700    -0.4377180     1.1148610
  H        2.9999490    -1.0007780    -1.4570900
  H        2.1808400    -1.8761700    -0.1584720
  H        3.8652790    -1.3613920     0.0461660
  H        3.6372140     1.5009250    -1.1167480
  H        3.2107350     2.3002430     0.4092550
  H        4.4622490     1.0479330     0.3817310
  H       -4.2653590     1.5804770     0.3446860
  H       -4.2647910     0.9464390    -1.3091180
  H       -5.1305020     0.0846610    -0.0305780
units angstrom
no_reorient  #important for SAPT in psi4, default
symmetry c1  #important for SAPT in psi4, default
}

set PROPERTIES_ORIGIN ["COM"]
properties('MP2/aug-cc-pvtz', properties = ['dipole'])
--------------------------------------------------------------------------

    Molecular point group: c1
  Charge       = 0
  Multiplicity = 1
  Basis Set: AUG-CC-PVTZ
    Blend: AUG-CC-PVTZ
  Basis Set: (AUG-CC-PVTZ AUX)
    Blend: AUG-CC-PVTZ-JKFIT

    Orbital Energies [Eh]
    ---------------------

    Doubly Occupied:

       1A    -92.165442     2A    -20.534695     3A    -20.533663
       4A    -11.276433     5A    -11.274148     6A    -11.244124
       7A    -11.240900     8A    -11.229231     9A    -11.226188
      10A    -11.214077    11A     -9.135853    12A     -6.820070
      13A     -6.819637    14A     -6.819582    15A     -1.422026
      16A     -1.314693    17A     -1.119216    18A     -1.095828
      19A     -1.005555    20A     -0.958895    21A     -0.938978
      22A     -0.850327    23A     -0.802412    24A     -0.782975
      25A     -0.681234    26A     -0.676714    27A     -0.665508
      28A     -0.642871    29A     -0.619819    30A     -0.608597
      31A     -0.591483    32A     -0.584726    33A     -0.567527
      34A     -0.554683    35A     -0.540666    36A     -0.527588
      37A     -0.510209    38A     -0.503275    39A     -0.497149
      40A     -0.493603    41A     -0.483469    42A     -0.473609
      43A     -0.467473    44A     -0.456134    45A     -0.403240

  @DF-RHF Final Energy:  -821.77642558066270

   => Energetics <=

    Nuclear Repulsion Energy =            705.6348238360970981
    One-Electron Energy =               -2528.0734461696170001
    Two-Electron Energy =                1000.6621967528573123
    Total Energy =                       -821.7764255806627034
  Basis Set: (AUG-CC-PVTZ AUX)
    Blend: AUG-CC-PVTZ-RI
    Molecular point group: c1

    Geometry (in Angstrom), charge = 0, multiplicity = 1:

       Center              X                  Y                   Z               Mass
    ------------   -----------------  -----------------  -----------------  -----------------
         S           -0.252283325418    -0.295559897844     0.123512336883    31.972071174400
         O           -0.280978325418    -1.485642897844    -0.747222663117    15.994914619570
         O           -0.186280325418    -0.445235897844     1.589544336883    15.994914619570
         C            1.188651274582     0.826296102156    -0.398585263117    12.000000000000
         C            2.454630674582     0.299124102156     0.198355336883    12.000000000000
         C           -1.706948325418     0.683798102156    -0.265105663117    12.000000000000
         C           -2.972290325418    -0.112242897844     0.040905336883    12.000000000000
         C            2.898679674582    -1.040418897844    -0.387668663117    12.000000000000
         C            3.503022674582     1.381685102156    -0.059848663117    12.000000000000
         C           -4.225457325418     0.701166102156    -0.270901663117    12.000000000000
         H            1.125186674582     0.788063102156    -1.466739663117     1.007825032230
         H            0.868841674582     1.768215102156     0.003517336883     1.007825032230
         H            2.325206674582     0.186668102156     1.281267336883     1.007825032230
         H           -1.646513325418     0.945519102156    -1.327143663117     1.007825032230
         H           -1.653282325418     1.597147102156     0.336320336883     1.007825032230
         H           -2.959100325418    -1.034831897844    -0.546718663117     1.007825032230
         H           -2.959427325418    -0.400949897844     1.096458336883     1.007825032230
         H            3.004991674582    -0.964009897844    -1.475492663117     1.007825032230
         H            2.185882674582    -1.839401897844    -0.176874663117     1.007825032230
         H            3.870321674582    -1.324623897844     0.027763336883     1.007825032230
         H            3.642256674582     1.537693102156    -1.135150663117     1.007825032230
         H            3.215777674582     2.337011102156     0.390852336883     1.007825032230
         H            4.467291674582     1.084701102156     0.363328336883     1.007825032230
         H           -4.260316325418     1.617245102156     0.326283336883     1.007825032230
         H           -4.259748325418     0.983207102156    -1.327520663117     1.007825032230
         H           -5.125459325418     0.121429102156    -0.048980663117     1.007825032230

  Basis Set: AUG-CC-PVTZ
    Blend: AUG-CC-PVTZ
  Basis Set: (AUG-CC-PVTZ AUX)
    Blend: AUG-CC-PVTZ-JKFIT
	 Reference Energy          =    -821.7764255806627034 [Eh]
	 Singles Energy            =      -0.0000000000000000 [Eh]
	 Same-Spin Energy          =      -0.5014613874178029 [Eh]
	 Opposite-Spin Energy      =      -1.6499172922335168 [Eh]
	 Correlation Energy        =      -2.1513786796513195 [Eh]
	 Total Energy              =    -823.9278042603140193 [Eh]

	 ================> DF-SCS-MP2 Energies <==================
	-----------------------------------------------------------
	 SCS Same-Spin Scale       =       0.3333333333333333 [-]
	 SCS Opposite-Spin Scale   =       1.2000000000000000 [-]
	 SCS Same-Spin Energy      =      -0.1671537958059343 [Eh]
	 SCS Opposite-Spin Energy  =      -1.9799007506802200 [Eh]
	 SCS Correlation Energy    =      -2.1470545464861543 [Eh]
	 SCS Total Energy          =    -823.9234801271488777 [Eh]
	-----------------------------------------------------------

  Dipole Moment: [D]
     X:    -0.2586      Y:     3.7522      Z:    -1.5630     Total:     4.0730

*** Psi4 exiting successfully. Buy a developer a beer!
