                               Psi4 1.4a3.dev225

  ==> Input File <==

--------------------------------------------------------------------------
#psi4
#
memory 32 gb

molecule  {
0 1
  S       -0.2573260    -0.3323280     0.1419150
  O       -0.2860210    -1.5224110    -0.7288200
  O       -0.1913230    -0.4820040     1.6079470
  C        1.1077430     0.7304620    -0.3526940
  C        2.4057654     0.2776436     0.1981606
  C       -1.7119910     0.6470300    -0.2467030
  C       -2.9773330    -0.1490110     0.0593080
  C        2.8936370    -1.0771870    -0.3692660
  C        3.4979800     1.3449170    -0.0414460
  C       -4.2305000     0.6643980    -0.2524990
  H        1.1201440     0.7512950    -1.4483370
  H        0.8637990     1.7314470     0.0219200
  H        2.3201640     0.1499000     1.2996700
  H       -1.6515560     0.9087510    -1.3087410
  H       -1.6583250     1.5603790     0.3547230
  H       -2.9641430    -1.0716000    -0.5283160
  H       -2.9644700    -0.4377180     1.1148610
  H        2.9999490    -1.0007780    -1.4570900
  H        2.1808400    -1.8761700    -0.1584720
  H        3.8652790    -1.3613920     0.0461660
  H        3.6372140     1.5009250    -1.1167480
  H        3.2107350     2.3002430     0.4092550
  H        4.4622490     1.0479330     0.3817310
  H       -4.2653590     1.5804770     0.3446860
  H       -4.2647910     0.9464390    -1.3091180
  H       -5.1305020     0.0846610    -0.0305780
units angstrom
no_reorient  #important for SAPT in psi4, default
symmetry c1  #important for SAPT in psi4, default
}

set PROPERTIES_ORIGIN ["COM"]
properties('MP2/aug-cc-pvtz', properties = ['dipole'])
--------------------------------------------------------------------------

    Molecular point group: c1
  Charge       = 0
  Multiplicity = 1
  Basis Set: AUG-CC-PVTZ
    Blend: AUG-CC-PVTZ
  Basis Set: (AUG-CC-PVTZ AUX)
    Blend: AUG-CC-PVTZ-JKFIT

    Orbital Energies [Eh]
    ---------------------

    Doubly Occupied:

       1A    -92.170850     2A    -20.536179     3A    -20.535452
       4A    -11.275434     5A    -11.273423     6A    -11.245755
       7A    -11.241884     8A    -11.229985     9A    -11.227284
      10A    -11.213377    11A     -9.141393    12A     -6.825788
      13A     -6.825362    14A     -6.825161    15A     -1.426598
      16A     -1.317226    17A     -1.120006    18A     -1.096639
      19A     -1.012268    20A     -0.961709    21A     -0.934635
      22A     -0.853195    23A     -0.806168    24A     -0.777162
      25A     -0.689810    26A     -0.677209    27A     -0.665162
      28A     -0.643947    29A     -0.619518    30A     -0.603913
      31A     -0.591959    32A     -0.580239    33A     -0.568648
      34A     -0.552709    35A     -0.539378    36A     -0.528827
      37A     -0.514147    38A     -0.504310    39A     -0.497795
      40A     -0.490353    41A     -0.479137    42A     -0.470294
      43A     -0.467388    44A     -0.456775    45A     -0.418568

  @DF-RHF Final Energy:  -821.78062161041453

   => Energetics <=

    Nuclear Repulsion Energy =            707.9346884004180538
    One-Electron Energy =               -2532.5645773780042873
    Two-Electron Energy =                1002.8492673671717057
    Total Energy =                       -821.7806216104145278
  Basis Set: (AUG-CC-PVTZ AUX)
    Blend: AUG-CC-PVTZ-RI
    Molecular point group: c1

    Geometry (in Angstrom), charge = 0, multiplicity = 1:

       Center              X                  Y                   Z               Mass
    ------------   -----------------  -----------------  -----------------  -----------------
         S           -0.243530301006    -0.292358300662     0.122862106612    31.972071174400
         O           -0.272225301006    -1.482441300662    -0.747872893388    15.994914619570
         O           -0.177527301006    -0.442034300662     1.588894106612    15.994914619570
         C            1.121538698994     0.770431699338    -0.371746893388    12.000000000000
         C            2.419561098994     0.317613299338     0.179107706612    12.000000000000
         C           -1.698195301006     0.686999699338    -0.265755893388    12.000000000000
         C           -2.963537301006    -0.109041300662     0.040255106612    12.000000000000
         C            2.907432698994    -1.037217300662    -0.388318893388    12.000000000000
         C            3.511775698994     1.384886699338    -0.060498893388    12.000000000000
         C           -4.216704301006     0.704367699338    -0.271551893388    12.000000000000
         H            1.133939698994     0.791264699338    -1.467389893388     1.007825032230
         H            0.877594698994     1.771416699338     0.002867106612     1.007825032230
         H            2.333959698994     0.189869699338     1.280617106612     1.007825032230
         H           -1.637760301006     0.948720699338    -1.327793893388     1.007825032230
         H           -1.644529301006     1.600348699338     0.335670106612     1.007825032230
         H           -2.950347301006    -1.031630300662    -0.547368893388     1.007825032230
         H           -2.950674301006    -0.397748300662     1.095808106612     1.007825032230
         H            3.013744698994    -0.960808300662    -1.476142893388     1.007825032230
         H            2.194635698994    -1.836200300662    -0.177524893388     1.007825032230
         H            3.879074698994    -1.321422300662     0.027113106612     1.007825032230
         H            3.651009698994     1.540894699338    -1.135800893388     1.007825032230
         H            3.224530698994     2.340212699338     0.390202106612     1.007825032230
         H            4.476044698994     1.087902699338     0.362678106612     1.007825032230
         H           -4.251563301006     1.620446699338     0.325633106612     1.007825032230
         H           -4.250995301006     0.986408699338    -1.328170893388     1.007825032230
         H           -5.116706301006     0.124630699338    -0.049630893388     1.007825032230

  Basis Set: AUG-CC-PVTZ
    Blend: AUG-CC-PVTZ
  Basis Set: (AUG-CC-PVTZ AUX)
    Blend: AUG-CC-PVTZ-JKFIT
	 Reference Energy          =    -821.7806216104145278 [Eh]
	 Singles Energy            =      -0.0000000000000000 [Eh]
	 Same-Spin Energy          =      -0.5013283840982279 [Eh]
	 Opposite-Spin Energy      =      -1.6493417583981322 [Eh]
	 Correlation Energy        =      -2.1506701424963603 [Eh]
	 Total Energy              =    -823.9312917529108518 [Eh]

	 ================> DF-SCS-MP2 Energies <==================
	-----------------------------------------------------------
	 SCS Same-Spin Scale       =       0.3333333333333333 [-]
	 SCS Opposite-Spin Scale   =       1.2000000000000000 [-]
	 SCS Same-Spin Energy      =      -0.1671094613660760 [Eh]
	 SCS Opposite-Spin Energy  =      -1.9792101100777586 [Eh]
	 SCS Correlation Energy    =      -2.1463195714438346 [Eh]
	 SCS Total Energy          =    -823.9269411818584103 [Eh]
	-----------------------------------------------------------

  Dipole Moment: [D]
     X:    -0.2640      Y:     3.7952      Z:    -1.5722     Total:     4.1164

*** Psi4 exiting successfully. Buy a developer a beer!
