                               Psi4 1.4a3.dev225

  ==> Input File <==

--------------------------------------------------------------------------
#psi4
#
memory 32 gb

molecule  {
0 1
  S       -0.2573260    -0.3323280     0.1419150
  O       -0.2860210    -1.5224110    -0.7288200
  O       -0.1913230    -0.4820040     1.6079470
  C        1.1077430     0.7304620    -0.3526940
  C        2.4495880     0.2623560     0.2167580
  C       -1.7119910     0.6470300    -0.2467030
  C       -2.9773330    -0.1490110     0.0593080
  C        2.9226966    -1.1648498    -0.4076168
  C        3.4979800     1.3449170    -0.0414460
  C       -4.2305000     0.6643980    -0.2524990
  H        1.1201440     0.7512950    -1.4483370
  H        0.8637990     1.7314470     0.0219200
  H        2.3201640     0.1499000     1.2996700
  H       -1.6515560     0.9087510    -1.3087410
  H       -1.6583250     1.5603790     0.3547230
  H       -2.9641430    -1.0716000    -0.5283160
  H       -2.9644700    -0.4377180     1.1148610
  H        2.9999490    -1.0007780    -1.4570900
  H        2.1808400    -1.8761700    -0.1584720
  H        3.8652790    -1.3613920     0.0461660
  H        3.6372140     1.5009250    -1.1167480
  H        3.2107350     2.3002430     0.4092550
  H        4.4622490     1.0479330     0.3817310
  H       -4.2653590     1.5804770     0.3446860
  H       -4.2647910     0.9464390    -1.3091180
  H       -5.1305020     0.0846610    -0.0305780
units angstrom
no_reorient  #important for SAPT in psi4, default
symmetry c1  #important for SAPT in psi4, default
}

set PROPERTIES_ORIGIN ["COM"]
properties('MP2/aug-cc-pvtz', properties = ['dipole'])
--------------------------------------------------------------------------

    Molecular point group: c1
  Charge       = 0
  Multiplicity = 1
  Basis Set: AUG-CC-PVTZ
    Blend: AUG-CC-PVTZ
  Basis Set: (AUG-CC-PVTZ AUX)
    Blend: AUG-CC-PVTZ-JKFIT

    Orbital Energies [Eh]
    ---------------------

    Doubly Occupied:

       1A    -92.169968     2A    -20.535420     3A    -20.535033
       4A    -11.274653     5A    -11.273549     6A    -11.249729
       7A    -11.241351     8A    -11.229588     9A    -11.226880
      10A    -11.210753    11A     -9.140463    12A     -6.824847
      13A     -6.824439    14A     -6.824254    15A     -1.425833
      16A     -1.316654    17A     -1.109330    18A     -1.093902
      19A     -1.011014    20A     -0.959773    21A     -0.938591
      22A     -0.851037    23A     -0.805121    24A     -0.777899
      25A     -0.687163    26A     -0.675102    27A     -0.662208
      28A     -0.640808    29A     -0.618410    30A     -0.605056
      31A     -0.591392    32A     -0.583097    33A     -0.568137
      34A     -0.555525    35A     -0.547991    36A     -0.532499
      37A     -0.513350    38A     -0.505756    39A     -0.496554
      40A     -0.490706    41A     -0.478996    42A     -0.472413
      43A     -0.457449    44A     -0.453146    45A     -0.418864

  @DF-RHF Final Energy:  -821.77655534434552

   => Energetics <=

    Nuclear Repulsion Energy =            705.6313922108852239
    One-Electron Energy =               -2528.0064845408392102
    Two-Electron Energy =                1000.5985369856084617
    Total Energy =                       -821.7765553443455246
  Basis Set: (AUG-CC-PVTZ AUX)
    Blend: AUG-CC-PVTZ-RI
    Molecular point group: c1

    Geometry (in Angstrom), charge = 0, multiplicity = 1:

       Center              X                  Y                   Z               Mass
    ------------   -----------------  -----------------  -----------------  -----------------
         S           -0.248860314122    -0.284829343218     0.124306710110    31.972071174400
         O           -0.277555314122    -1.474912343218    -0.746428289890    15.994914619570
         O           -0.182857314122    -0.434505343218     1.590338710110    15.994914619570
         C            1.116208685878     0.777960656782    -0.370302289890    12.000000000000
         C            2.458053685878     0.309854656782     0.199149710110    12.000000000000
         C           -1.703525314122     0.694528656782    -0.264311289890    12.000000000000
         C           -2.968867314122    -0.101512343218     0.041699710110    12.000000000000
         C            2.931162285878    -1.117351143218    -0.425225089890    12.000000000000
         C            3.506445685878     1.392415656782    -0.059054289890    12.000000000000
         C           -4.222034314122     0.711896656782    -0.270107289890    12.000000000000
         H            1.128609685878     0.798793656782    -1.465945289890     1.007825032230
         H            0.872264685878     1.778945656782     0.004311710110     1.007825032230
         H            2.328629685878     0.197398656782     1.282061710110     1.007825032230
         H           -1.643090314122     0.956249656782    -1.326349289890     1.007825032230
         H           -1.649859314122     1.607877656782     0.337114710110     1.007825032230
         H           -2.955677314122    -1.024101343218    -0.545924289890     1.007825032230
         H           -2.956004314122    -0.390219343218     1.097252710110     1.007825032230
         H            3.008414685878    -0.953279343218    -1.474698289890     1.007825032230
         H            2.189305685878    -1.828671343218    -0.176080289890     1.007825032230
         H            3.873744685878    -1.313893343218     0.028557710110     1.007825032230
         H            3.645679685878     1.548423656782    -1.134356289890     1.007825032230
         H            3.219200685878     2.347741656782     0.391646710110     1.007825032230
         H            4.470714685878     1.095431656782     0.364122710110     1.007825032230
         H           -4.256893314122     1.627975656782     0.327077710110     1.007825032230
         H           -4.256325314122     0.993937656782    -1.326726289890     1.007825032230
         H           -5.122036314122     0.132159656782    -0.048186289890     1.007825032230

  Basis Set: AUG-CC-PVTZ
    Blend: AUG-CC-PVTZ
  Basis Set: (AUG-CC-PVTZ AUX)
    Blend: AUG-CC-PVTZ-JKFIT
	 Reference Energy          =    -821.7765553443455246 [Eh]
	 Singles Energy            =      -0.0000000000000000 [Eh]
	 Same-Spin Energy          =      -0.5006177926381435 [Eh]
	 Opposite-Spin Energy      =      -1.6488292289729543 [Eh]
	 Correlation Energy        =      -2.1494470216110977 [Eh]
	 Total Energy              =    -823.9260023659566059 [Eh]

	 ================> DF-SCS-MP2 Energies <==================
	-----------------------------------------------------------
	 SCS Same-Spin Scale       =       0.3333333333333333 [-]
	 SCS Opposite-Spin Scale   =       1.2000000000000000 [-]
	 SCS Same-Spin Energy      =      -0.1668725975460478 [Eh]
	 SCS Opposite-Spin Energy  =      -1.9785950747675449 [Eh]
	 SCS Correlation Energy    =      -2.1454676723135928 [Eh]
	 SCS Total Energy          =    -823.9220230166590682 [Eh]
	-----------------------------------------------------------

  Dipole Moment: [D]
     X:    -0.1950      Y:     3.8275      Z:    -1.5738     Total:     4.1430

*** Psi4 exiting successfully. Buy a developer a beer!
