                               Psi4 1.4a3.dev225

  ==> Input File <==

--------------------------------------------------------------------------
#psi4
#
memory 32 gb

molecule  {
0 1
  S       -0.2573260    -0.3323280     0.1419150
  O       -0.2860210    -1.5224110    -0.7288200
  O       -0.1913230    -0.4820040     1.6079470
  C        1.1077430     0.7304620    -0.3526940
  C        2.4495880     0.2623560     0.2167580
  C       -1.7119910     0.6470300    -0.2467030
  C       -2.9773330    -0.1490110     0.0593080
  C        2.8936370    -1.0771870    -0.3692660
  C        3.4979800     1.3449170    -0.0414460
  C       -4.2305000     0.6643980    -0.2524990
  H        1.1201440     0.7512950    -1.4483370
  H        0.8637990     1.7314470     0.0219200
  H        2.3201640     0.1499000     1.2996700
  H       -1.6515560     0.9087510    -1.3087410
  H       -1.6583250     1.5603790     0.3547230
  H       -2.9641430    -1.0716000    -0.5283160
  H       -2.9644700    -0.4377180     1.1148610
  H        2.9999490    -1.0007780    -1.4570900
  H        2.1481812    -1.9127777    -0.1488139
  H        3.8652790    -1.3613920     0.0461660
  H        3.6372140     1.5009250    -1.1167480
  H        3.2107350     2.3002430     0.4092550
  H        4.4622490     1.0479330     0.3817310
  H       -4.2653590     1.5804770     0.3446860
  H       -4.2647910     0.9464390    -1.3091180
  H       -5.1305020     0.0846610    -0.0305780
units angstrom
no_reorient  #important for SAPT in psi4, default
symmetry c1  #important for SAPT in psi4, default
}

set PROPERTIES_ORIGIN ["COM"]
properties('MP2/aug-cc-pvtz', properties = ['dipole'])
--------------------------------------------------------------------------

    Molecular point group: c1
  Charge       = 0
  Multiplicity = 1
  Basis Set: AUG-CC-PVTZ
    Blend: AUG-CC-PVTZ
  Basis Set: (AUG-CC-PVTZ AUX)
    Blend: AUG-CC-PVTZ-JKFIT

    Orbital Energies [Eh]
    ---------------------

    Doubly Occupied:

       1A    -92.170099     2A    -20.535430     3A    -20.534554
       4A    -11.274754     5A    -11.273754     6A    -11.246965
       7A    -11.241395     8A    -11.229627     9A    -11.227159
      10A    -11.218332    11A     -9.140574    12A     -6.824963
      13A     -6.824554    14A     -6.824361    15A     -1.425745
      16A     -1.316508    17A     -1.115575    18A     -1.095997
      19A     -1.013209    20A     -0.960450    21A     -0.934549
      22A     -0.850440    23A     -0.804633    24A     -0.778182
      25A     -0.687669    26A     -0.675641    27A     -0.663524
      28A     -0.642237    29A     -0.619154    30A     -0.602672
      31A     -0.591401    32A     -0.579721    33A     -0.568153
      34A     -0.553422    35A     -0.539883    36A     -0.527728
      37A     -0.510027    38A     -0.501622    39A     -0.495179
      40A     -0.486956    41A     -0.481830    42A     -0.474899
      43A     -0.469424    44A     -0.456278    45A     -0.417681

  @DF-RHF Final Energy:  -821.78127844465462

   => Energetics <=

    Nuclear Repulsion Energy =            707.1556649162153008
    One-Electron Energy =               -2531.0600633269204991
    Two-Electron Energy =                1002.1231199660505808
    Total Energy =                       -821.7812784446546175
  Basis Set: (AUG-CC-PVTZ AUX)
    Blend: AUG-CC-PVTZ-RI
    Molecular point group: c1

    Geometry (in Angstrom), charge = 0, multiplicity = 1:

       Center              X                  Y                   Z               Mass
    ------------   -----------------  -----------------  -----------------  -----------------
         S           -0.246534539859    -0.291015444611     0.121442723409    31.972071174400
         O           -0.275229539859    -1.481098444611    -0.749292276591    15.994914619570
         O           -0.180531539859    -0.440691444611     1.587474723409    15.994914619570
         C            1.118534460141     0.771774555389    -0.373166276591    12.000000000000
         C            2.460379460141     0.303668555389     0.196285723409    12.000000000000
         C           -1.701199539859     0.688342555389    -0.267175276591    12.000000000000
         C           -2.966541539859    -0.107698444611     0.038835723409    12.000000000000
         C            2.904428460141    -1.035874444611    -0.389738276591    12.000000000000
         C            3.508771460141     1.386229555389    -0.061918276591    12.000000000000
         C           -4.219708539859     0.705710555389    -0.272971276591    12.000000000000
         H            1.130935460141     0.792607555389    -1.468809276591     1.007825032230
         H            0.874590460141     1.772759555389     0.001447723409     1.007825032230
         H            2.330955460141     0.191212555389     1.279197723409     1.007825032230
         H           -1.640764539859     0.950063555389    -1.329213276591     1.007825032230
         H           -1.647533539859     1.601691555389     0.334250723409     1.007825032230
         H           -2.953351539859    -1.030287444611    -0.548788276591     1.007825032230
         H           -2.953678539859    -0.396405444611     1.094388723409     1.007825032230
         H            3.010740460141    -0.959465444611    -1.477562276591     1.007825032230
         H            2.158972660141    -1.871465144611    -0.169286176591     1.007825032230
         H            3.876070460141    -1.320079444611     0.025693723409     1.007825032230
         H            3.648005460141     1.542237555389    -1.137220276591     1.007825032230
         H            3.221526460141     2.341555555389     0.388782723409     1.007825032230
         H            4.473040460141     1.089245555389     0.361258723409     1.007825032230
         H           -4.254567539859     1.621789555389     0.324213723409     1.007825032230
         H           -4.253999539859     0.987751555389    -1.329590276591     1.007825032230
         H           -5.119710539859     0.125973555389    -0.051050276591     1.007825032230

  Basis Set: AUG-CC-PVTZ
    Blend: AUG-CC-PVTZ
  Basis Set: (AUG-CC-PVTZ AUX)
    Blend: AUG-CC-PVTZ-JKFIT
	 Reference Energy          =    -821.7812784446546175 [Eh]
	 Singles Energy            =      -0.0000000000000000 [Eh]
	 Same-Spin Energy          =      -0.5011273191006795 [Eh]
	 Opposite-Spin Energy      =      -1.6493062992053282 [Eh]
	 Correlation Energy        =      -2.1504336183060078 [Eh]
	 Total Energy              =    -823.9317120629606279 [Eh]

	 ================> DF-SCS-MP2 Energies <==================
	-----------------------------------------------------------
	 SCS Same-Spin Scale       =       0.3333333333333333 [-]
	 SCS Opposite-Spin Scale   =       1.2000000000000000 [-]
	 SCS Same-Spin Energy      =      -0.1670424397002265 [Eh]
	 SCS Opposite-Spin Energy  =      -1.9791675590463937 [Eh]
	 SCS Correlation Energy    =      -2.1462099987466203 [Eh]
	 SCS Total Energy          =    -823.9274884434012165 [Eh]
	-----------------------------------------------------------

  Dipole Moment: [D]
     X:    -0.2004      Y:     3.8151      Z:    -1.5764     Total:     4.1329

*** Psi4 exiting successfully. Buy a developer a beer!
