                               Psi4 1.4a3.dev225

  ==> Input File <==

--------------------------------------------------------------------------
#psi4
#
memory 32 gb

molecule  {
0 1
  S       -0.2573260    -0.3323280     0.1419150
  O       -0.2860210    -1.5224110    -0.7288200
  O       -0.1913230    -0.4820040     1.6079470
  C        1.1077430     0.7304620    -0.3526940
  C        2.4495880     0.2623560     0.2167580
  C       -1.7119910     0.6470300    -0.2467030
  C       -2.9773330    -0.1490110     0.0593080
  C        2.9081668    -1.1210184    -0.3884414
  C        3.4979800     1.3449170    -0.0414460
  C       -4.2305000     0.6643980    -0.2524990
  H        1.1201440     0.7512950    -1.4483370
  H        0.8637990     1.7314470     0.0219200
  H        2.3201640     0.1499000     1.2996700
  H       -1.6515560     0.9087510    -1.3087410
  H       -1.6583250     1.5603790     0.3547230
  H       -2.9641430    -1.0716000    -0.5283160
  H       -2.9644700    -0.4377180     1.1148610
  H        2.9999490    -1.0007780    -1.4570900
  H        2.1808400    -1.8761700    -0.1584720
  H        3.8652790    -1.3613920     0.0461660
  H        3.6372140     1.5009250    -1.1167480
  H        3.2107350     2.3002430     0.4092550
  H        4.4622490     1.0479330     0.3817310
  H       -4.2653590     1.5804770     0.3446860
  H       -4.2647910     0.9464390    -1.3091180
  H       -5.1305020     0.0846610    -0.0305780
units angstrom
no_reorient  #important for SAPT in psi4, default
symmetry c1  #important for SAPT in psi4, default
}

set PROPERTIES_ORIGIN ["COM"]
properties('MP2/aug-cc-pvtz', properties = ['dipole'])
--------------------------------------------------------------------------

    Molecular point group: c1
  Charge       = 0
  Multiplicity = 1
  Basis Set: AUG-CC-PVTZ
    Blend: AUG-CC-PVTZ
  Basis Set: (AUG-CC-PVTZ AUX)
    Blend: AUG-CC-PVTZ-JKFIT

    Orbital Energies [Eh]
    ---------------------

    Doubly Occupied:

       1A    -92.170049     2A    -20.535460     3A    -20.534892
       4A    -11.274711     5A    -11.273600     6A    -11.248283
       7A    -11.241383     8A    -11.229615     9A    -11.226823
      10A    -11.211430    11A     -9.140536    12A     -6.824922
      13A     -6.824514    14A     -6.824325    15A     -1.425830
      16A     -1.316624    17A     -1.112045    18A     -1.095071
      19A     -1.012140    20A     -0.960119    21A     -0.938017
      22A     -0.850859    23A     -0.805059    24A     -0.778341
      25A     -0.687443    26A     -0.675394    27A     -0.662824
      28A     -0.641654    29A     -0.618739    30A     -0.604792
      31A     -0.591424    32A     -0.581852    33A     -0.568158
      34A     -0.554142    35A     -0.543853    36A     -0.530285
      37A     -0.511728    38A     -0.504905    39A     -0.496300
      40A     -0.488869    41A     -0.478800    42A     -0.472375
      43A     -0.467241    44A     -0.456252    45A     -0.418646

  @DF-RHF Final Energy:  -821.78197005431036

   => Energetics <=

    Nuclear Repulsion Energy =            706.4654926384154123
    One-Electron Energy =               -2529.6742810442515292
    Two-Electron Energy =                1001.4268183515256396
    Total Energy =                       -821.7819700543103636
  Basis Set: (AUG-CC-PVTZ AUX)
    Blend: AUG-CC-PVTZ-RI
    Molecular point group: c1

    Geometry (in Angstrom), charge = 0, multiplicity = 1:

       Center              X                  Y                   Z               Mass
    ------------   -----------------  -----------------  -----------------  -----------------
         S           -0.247797722370    -0.288034816391     0.122904376845    31.972071174400
         O           -0.276492722370    -1.478117816391    -0.747830623155    15.994914619570
         O           -0.181794722370    -0.437710816391     1.588936376845    15.994914619570
         C            1.117271277630     0.774755183609    -0.371704623155    12.000000000000
         C            2.459116277630     0.306649183609     0.197747376845    12.000000000000
         C           -1.702462722370     0.691323183609    -0.265713623155    12.000000000000
         C           -2.967804722370    -0.104717816391     0.040297376845    12.000000000000
         C            2.917695077630    -1.076725216391    -0.407452023155    12.000000000000
         C            3.507508277630     1.389210183609    -0.060456623155    12.000000000000
         C           -4.220971722370     0.708691183609    -0.271509623155    12.000000000000
         H            1.129672277630     0.795588183609    -1.467347623155     1.007825032230
         H            0.873327277630     1.775740183609     0.002909376845     1.007825032230
         H            2.329692277630     0.194193183609     1.280659376845     1.007825032230
         H           -1.642027722370     0.953044183609    -1.327751623155     1.007825032230
         H           -1.648796722370     1.604672183609     0.335712376845     1.007825032230
         H           -2.954614722370    -1.027306816391    -0.547326623155     1.007825032230
         H           -2.954941722370    -0.393424816391     1.095850376845     1.007825032230
         H            3.009477277630    -0.956484816391    -1.476100623155     1.007825032230
         H            2.190368277630    -1.831876816391    -0.177482623155     1.007825032230
         H            3.874807277630    -1.317098816391     0.027155376845     1.007825032230
         H            3.646742277630     1.545218183609    -1.135758623155     1.007825032230
         H            3.220263277630     2.344536183609     0.390244376845     1.007825032230
         H            4.471777277630     1.092226183609     0.362720376845     1.007825032230
         H           -4.255830722370     1.624770183609     0.325675376845     1.007825032230
         H           -4.255262722370     0.990732183609    -1.328128623155     1.007825032230
         H           -5.120973722370     0.128954183609    -0.049588623155     1.007825032230

  Basis Set: AUG-CC-PVTZ
    Blend: AUG-CC-PVTZ
  Basis Set: (AUG-CC-PVTZ AUX)
    Blend: AUG-CC-PVTZ-JKFIT
	 Reference Energy          =    -821.7819700543103636 [Eh]
	 Singles Energy            =      -0.0000000000000000 [Eh]
	 Same-Spin Energy          =      -0.5007435509672302 [Eh]
	 Opposite-Spin Energy      =      -1.6486993588316137 [Eh]
	 Correlation Energy        =      -2.1494429097988439 [Eh]
	 Total Energy              =    -823.9314129641091995 [Eh]

	 ================> DF-SCS-MP2 Energies <==================
	-----------------------------------------------------------
	 SCS Same-Spin Scale       =       0.3333333333333333 [-]
	 SCS Opposite-Spin Scale   =       1.2000000000000000 [-]
	 SCS Same-Spin Energy      =      -0.1669145169890767 [Eh]
	 SCS Opposite-Spin Energy  =      -1.9784392305979364 [Eh]
	 SCS Correlation Energy    =      -2.1453537475870132 [Eh]
	 SCS Total Energy          =    -823.9273238018973871 [Eh]
	-----------------------------------------------------------

  Dipole Moment: [D]
     X:    -0.1974      Y:     3.8113      Z:    -1.5753     Total:     4.1287

*** Psi4 exiting successfully. Buy a developer a beer!
