                               Psi4 1.4a3.dev225

  ==> Input File <==

--------------------------------------------------------------------------
#psi4
#
memory 32 gb

molecule  {
0 1
  S       -0.2573260    -0.3323280     0.1419150
  O       -0.2860210    -1.5224110    -0.7288200
  O       -0.1913230    -0.4820040     1.6079470
  C        1.1077430     0.7304620    -0.3526940
  C        2.4495880     0.2623560     0.2167580
  C       -1.7119910     0.6470300    -0.2467030
  C       -2.9773330    -0.1490110     0.0593080
  C        2.8936370    -1.0771870    -0.3692660
  C        3.4979800     1.3449170    -0.0414460
  C       -4.2305000     0.6643980    -0.2524990
  H        1.1201440     0.7512950    -1.4483370
  H        0.8637990     1.7314470     0.0219200
  H        2.3201640     0.1499000     1.2996700
  H       -1.6515560     0.9087510    -1.3087410
  H       -1.6583250     1.5603790     0.3547230
  H       -2.9641430    -1.0716000    -0.5283160
  H       -2.9644700    -0.4377180     1.1148610
  H        2.9999490    -1.0007780    -1.4570900
  H        2.1808400    -1.8761700    -0.1584720
  H        3.8652790    -1.3613920     0.0461660
  H        3.6372140     1.5009250    -1.1167480
  H        3.2054869     2.3176972     0.4174895
  H        4.4622490     1.0479330     0.3817310
  H       -4.2653590     1.5804770     0.3446860
  H       -4.2647910     0.9464390    -1.3091180
  H       -5.1305020     0.0846610    -0.0305780
units angstrom
no_reorient  #important for SAPT in psi4, default
symmetry c1  #important for SAPT in psi4, default
}

set PROPERTIES_ORIGIN ["COM"]
properties('MP2/aug-cc-pvtz', properties = ['dipole'])
--------------------------------------------------------------------------

    Molecular point group: c1
  Charge       = 0
  Multiplicity = 1
  Basis Set: AUG-CC-PVTZ
    Blend: AUG-CC-PVTZ
  Basis Set: (AUG-CC-PVTZ AUX)
    Blend: AUG-CC-PVTZ-JKFIT

    Orbital Energies [Eh]
    ---------------------

    Doubly Occupied:

       1A    -92.170164     2A    -20.535534     3A    -20.534774
       4A    -11.274792     5A    -11.273717     6A    -11.246823
       7A    -11.241432     8A    -11.229652     9A    -11.229310
      10A    -11.213132    11A     -9.140644    12A     -6.825032
      13A     -6.824624    14A     -6.824432    15A     -1.425859
      16A     -1.316626    17A     -1.115686    18A     -1.096065
      19A     -1.013309    20A     -0.960366    21A     -0.936676
      22A     -0.850554    23A     -0.804818    24A     -0.778660
      25A     -0.687746    26A     -0.675757    27A     -0.663581
      28A     -0.642510    29A     -0.619212    30A     -0.603931
      31A     -0.591493    32A     -0.580958    33A     -0.568198
      34A     -0.552876    35A     -0.539854    36A     -0.528637
      37A     -0.510296    38A     -0.502774    39A     -0.495738
      40A     -0.487066    41A     -0.481874    42A     -0.475336
      43A     -0.470504    44A     -0.456385    45A     -0.418305

  @DF-RHF Final Energy:  -821.78301240686687

   => Energetics <=

    Nuclear Repulsion Energy =            707.2310660736339969
    One-Electron Energy =               -2531.1967377731425586
    Two-Electron Energy =                1002.1826592926418016
    Total Energy =                       -821.7830124068668738
  Basis Set: (AUG-CC-PVTZ AUX)
    Blend: AUG-CC-PVTZ-RI
    Molecular point group: c1

    Geometry (in Angstrom), charge = 0, multiplicity = 1:

       Center              X                  Y                   Z               Mass
    ------------   -----------------  -----------------  -----------------  -----------------
         S           -0.246702896722    -0.291347493479     0.121451467178    31.972071174400
         O           -0.275397896722    -1.481430493479    -0.749283532822    15.994914619570
         O           -0.180699896722    -0.441023493479     1.587483467178    15.994914619570
         C            1.118366103278     0.771442506521    -0.373157532822    12.000000000000
         C            2.460211103278     0.303336506521     0.196294467178    12.000000000000
         C           -1.701367896722     0.688010506521    -0.267166532822    12.000000000000
         C           -2.966709896722    -0.108030493479     0.038844467178    12.000000000000
         C            2.904260103278    -1.036206493479    -0.389729532822    12.000000000000
         C            3.508603103278     1.385897506521    -0.061909532822    12.000000000000
         C           -4.219876896722     0.705378506521    -0.272962532822    12.000000000000
         H            1.130767103278     0.792275506521    -1.468800532822     1.007825032230
         H            0.874422103278     1.772427506521     0.001456467178     1.007825032230
         H            2.330787103278     0.190880506521     1.279206467178     1.007825032230
         H           -1.640932896722     0.949731506521    -1.329204532822     1.007825032230
         H           -1.647701896722     1.601359506521     0.334259467178     1.007825032230
         H           -2.953519896722    -1.030619493479    -0.548779532822     1.007825032230
         H           -2.953846896722    -0.396737493479     1.094397467178     1.007825032230
         H            3.010572103278    -0.959797493479    -1.477553532822     1.007825032230
         H            2.191463103278    -1.835189493479    -0.178935532822     1.007825032230
         H            3.875902103278    -1.320411493479     0.025702467178     1.007825032230
         H            3.647837103278     1.541905506521    -1.137211532822     1.007825032230
         H            3.216110003278     2.358677706521     0.397025967178     1.007825032230
         H            4.472872103278     1.088913506521     0.361267467178     1.007825032230
         H           -4.254735896722     1.621457506521     0.324222467178     1.007825032230
         H           -4.254167896722     0.987419506521    -1.329581532822     1.007825032230
         H           -5.119878896722     0.125641506521    -0.051041532822     1.007825032230

  Basis Set: AUG-CC-PVTZ
    Blend: AUG-CC-PVTZ
  Basis Set: (AUG-CC-PVTZ AUX)
    Blend: AUG-CC-PVTZ-JKFIT
	 Reference Energy          =    -821.7830124068668738 [Eh]
	 Singles Energy            =      -0.0000000000000000 [Eh]
	 Same-Spin Energy          =      -0.5010408176662968 [Eh]
	 Opposite-Spin Energy      =      -1.6490099173422901 [Eh]
	 Correlation Energy        =      -2.1500507350085867 [Eh]
	 Total Energy              =    -823.9330631418754365 [Eh]

	 ================> DF-SCS-MP2 Energies <==================
	-----------------------------------------------------------
	 SCS Same-Spin Scale       =       0.3333333333333333 [-]
	 SCS Opposite-Spin Scale   =       1.2000000000000000 [-]
	 SCS Same-Spin Energy      =      -0.1670136058887656 [Eh]
	 SCS Opposite-Spin Energy  =      -1.9788119008107481 [Eh]
	 SCS Correlation Energy    =      -2.1458255066995138 [Eh]
	 SCS Total Energy          =    -823.9288379135664400 [Eh]
	-----------------------------------------------------------

  Dipole Moment: [D]
     X:    -0.2024      Y:     3.7852      Z:    -1.5789     Total:     4.1063

*** Psi4 exiting successfully. Buy a developer a beer!
