                               Psi4 1.4a3.dev225

  ==> Input File <==

--------------------------------------------------------------------------
#psi4
#
memory 32 gb

molecule  {
0 1
  S       -0.2573260    -0.3323280     0.1419150
  O       -0.2860210    -1.5224110    -0.7288200
  O       -0.1913230    -0.4820040     1.6079470
  C        1.1077430     0.7304620    -0.3526940
  C        2.4495880     0.2623560     0.2167580
  C       -1.7119910     0.6470300    -0.2467030
  C       -2.9773330    -0.1490110     0.0593080
  C        2.8936370    -1.0771870    -0.3692660
  C        3.4979800     1.3449170    -0.0414460
  C       -4.2305000     0.6643980    -0.2524990
  H        1.1201440     0.7512950    -1.4483370
  H        0.8637990     1.7314470     0.0219200
  H        2.3201640     0.1499000     1.2996700
  H       -1.6600463     0.7965261    -1.3306899
  H       -1.6583250     1.5603790     0.3547230
  H       -2.9641430    -1.0716000    -0.5283160
  H       -2.9644700    -0.4377180     1.1148610
  H        2.9999490    -1.0007780    -1.4570900
  H        2.1808400    -1.8761700    -0.1584720
  H        3.8652790    -1.3613920     0.0461660
  H        3.6372140     1.5009250    -1.1167480
  H        3.2107350     2.3002430     0.4092550
  H        4.4622490     1.0479330     0.3817310
  H       -4.2653590     1.5804770     0.3446860
  H       -4.2647910     0.9464390    -1.3091180
  H       -5.1305020     0.0846610    -0.0305780
units angstrom
no_reorient  #important for SAPT in psi4, default
symmetry c1  #important for SAPT in psi4, default
}

set PROPERTIES_ORIGIN ["COM"]
properties('MP2/aug-cc-pvtz', properties = ['dipole'])
--------------------------------------------------------------------------

    Molecular point group: c1
  Charge       = 0
  Multiplicity = 1
  Basis Set: AUG-CC-PVTZ
    Blend: AUG-CC-PVTZ
  Basis Set: (AUG-CC-PVTZ AUX)
    Blend: AUG-CC-PVTZ-JKFIT

    Orbital Energies [Eh]
    ---------------------

    Doubly Occupied:

       1A    -92.169377     2A    -20.534833     3A    -20.534801
       4A    -11.275205     5A    -11.273653     6A    -11.246558
       7A    -11.241018     8A    -11.229741     9A    -11.226784
      10A    -11.212886    11A     -9.139971    12A     -6.824310
      13A     -6.823953    14A     -6.823755    15A     -1.425650
      16A     -1.316414    17A     -1.115776    18A     -1.096858
      19A     -1.013377    20A     -0.960719    21A     -0.937712
      22A     -0.850540    23A     -0.802855    24A     -0.778075
      25A     -0.686500    26A     -0.680298    27A     -0.664605
      28A     -0.642917    29A     -0.619209    30A     -0.605067
      31A     -0.588369    32A     -0.581087    33A     -0.571999
      34A     -0.553737    35A     -0.539653    36A     -0.528345
      37A     -0.509132    38A     -0.503553    39A     -0.495487
      40A     -0.486622    41A     -0.482390    42A     -0.474974
      43A     -0.469909    44A     -0.456352    45A     -0.417673

  @DF-RHF Final Energy:  -821.78236568635498

   => Energetics <=

    Nuclear Repulsion Energy =            707.4539710313501928
    One-Electron Energy =               -2531.6472753209100119
    Two-Electron Energy =                1002.4109386032048405
    Total Energy =                       -821.7823656863549786
  Basis Set: (AUG-CC-PVTZ AUX)
    Blend: AUG-CC-PVTZ-RI
    Molecular point group: c1

    Geometry (in Angstrom), charge = 0, multiplicity = 1:

       Center              X                  Y                   Z               Mass
    ------------   -----------------  -----------------  -----------------  -----------------
         S           -0.246682983089    -0.290551002820     0.121636853999    31.972071174400
         O           -0.275377983089    -1.480634002820    -0.749098146001    15.994914619570
         O           -0.180679983089    -0.440227002820     1.587668853999    15.994914619570
         C            1.118386016911     0.772238997180    -0.372972146001    12.000000000000
         C            2.460231016911     0.304132997180     0.196479853999    12.000000000000
         C           -1.701347983089     0.688806997180    -0.266981146001    12.000000000000
         C           -2.966689983089    -0.107234002820     0.039029853999    12.000000000000
         C            2.904280016911    -1.035410002820    -0.389544146001    12.000000000000
         C            3.508623016911     1.386693997180    -0.061724146001    12.000000000000
         C           -4.219856983089     0.706174997180    -0.272777146001    12.000000000000
         H            1.130787016911     0.793071997180    -1.468615146001     1.007825032230
         H            0.874442016911     1.773223997180     0.001641853999     1.007825032230
         H            2.330807016911     0.191676997180     1.279391853999     1.007825032230
         H           -1.649403283089     0.838303097180    -1.350968046001     1.007825032230
         H           -1.647681983089     1.602155997180     0.334444853999     1.007825032230
         H           -2.953499983089    -1.029823002820    -0.548594146001     1.007825032230
         H           -2.953826983089    -0.395941002820     1.094582853999     1.007825032230
         H            3.010592016911    -0.959001002820    -1.477368146001     1.007825032230
         H            2.191483016911    -1.834393002820    -0.178750146001     1.007825032230
         H            3.875922016911    -1.319615002820     0.025887853999     1.007825032230
         H            3.647857016911     1.542701997180    -1.137026146001     1.007825032230
         H            3.221378016911     2.342019997180     0.388976853999     1.007825032230
         H            4.472892016911     1.089709997180     0.361452853999     1.007825032230
         H           -4.254715983089     1.622253997180     0.324407853999     1.007825032230
         H           -4.254147983089     0.988215997180    -1.329396146001     1.007825032230
         H           -5.119858983089     0.126437997180    -0.050856146001     1.007825032230

  Basis Set: AUG-CC-PVTZ
    Blend: AUG-CC-PVTZ
  Basis Set: (AUG-CC-PVTZ AUX)
    Blend: AUG-CC-PVTZ-JKFIT
	 Reference Energy          =    -821.7823656863549786 [Eh]
	 Singles Energy            =      -0.0000000000000000 [Eh]
	 Same-Spin Energy          =      -0.5011656434138636 [Eh]
	 Opposite-Spin Energy      =      -1.6490502332102548 [Eh]
	 Correlation Energy        =      -2.1502158766241184 [Eh]
	 Total Energy              =    -823.9325815629790668 [Eh]

	 ================> DF-SCS-MP2 Energies <==================
	-----------------------------------------------------------
	 SCS Same-Spin Scale       =       0.3333333333333333 [-]
	 SCS Opposite-Spin Scale   =       1.2000000000000000 [-]
	 SCS Same-Spin Energy      =      -0.1670552144712878 [Eh]
	 SCS Opposite-Spin Energy  =      -1.9788602798523056 [Eh]
	 SCS Correlation Energy    =      -2.1459154943235936 [Eh]
	 SCS Total Energy          =    -823.9282811806785958 [Eh]
	-----------------------------------------------------------

  Dipole Moment: [D]
     X:    -0.2144      Y:     3.7736      Z:    -1.5840     Total:     4.0982

*** Psi4 exiting successfully. Buy a developer a beer!
