                               Psi4 1.4a3.dev225

  ==> Input File <==

--------------------------------------------------------------------------
#psi4
#
memory 32 gb

molecule  {
0 1
  S       -0.2573260    -0.3323280     0.1419150
  O       -0.2860210    -1.5224110    -0.7288200
  O       -0.1913230    -0.4820040     1.6079470
  C        1.1077430     0.7304620    -0.3526940
  C        2.2742975     0.3235065     0.1423682
  C       -1.7119910     0.6470300    -0.2467030
  C       -2.9773330    -0.1490110     0.0593080
  C        2.8936370    -1.0771870    -0.3692660
  C        3.4979800     1.3449170    -0.0414460
  C       -4.2305000     0.6643980    -0.2524990
  H        1.1201440     0.7512950    -1.4483370
  H        0.8637990     1.7314470     0.0219200
  H        2.3201640     0.1499000     1.2996700
  H       -1.6515560     0.9087510    -1.3087410
  H       -1.6583250     1.5603790     0.3547230
  H       -2.9641430    -1.0716000    -0.5283160
  H       -2.9644700    -0.4377180     1.1148610
  H        2.9999490    -1.0007780    -1.4570900
  H        2.1808400    -1.8761700    -0.1584720
  H        3.8652790    -1.3613920     0.0461660
  H        3.6372140     1.5009250    -1.1167480
  H        3.2107350     2.3002430     0.4092550
  H        4.4622490     1.0479330     0.3817310
  H       -4.2653590     1.5804770     0.3446860
  H       -4.2647910     0.9464390    -1.3091180
  H       -5.1305020     0.0846610    -0.0305780
units angstrom
no_reorient  #important for SAPT in psi4, default
symmetry c1  #important for SAPT in psi4, default
}

set PROPERTIES_ORIGIN ["COM"]
properties('MP2/aug-cc-pvtz', properties = ['dipole'])
--------------------------------------------------------------------------

    Molecular point group: c1
  Charge       = 0
  Multiplicity = 1
  Basis Set: AUG-CC-PVTZ
    Blend: AUG-CC-PVTZ
  Basis Set: (AUG-CC-PVTZ AUX)
    Blend: AUG-CC-PVTZ-JKFIT

    Orbital Energies [Eh]
    ---------------------

    Doubly Occupied:

       1A    -92.172128     2A    -20.537816     3A    -20.537174
       4A    -11.276706     5A    -11.269054     6A    -11.246258
       7A    -11.242760     8A    -11.230925     9A    -11.230618
      10A    -11.216592    11A     -9.142918    12A     -6.827330
      13A     -6.826826    14A     -6.826614    15A     -1.428480
      16A     -1.318658    17A     -1.143013    18A     -1.098231
      19A     -1.007309    20A     -0.964244    21A     -0.926854
      22A     -0.862066    23A     -0.809852    24A     -0.772287
      25A     -0.696829    26A     -0.683670    27A     -0.668896
      28A     -0.647850    29A     -0.621493    30A     -0.604354
      31A     -0.593000    32A     -0.576371    33A     -0.569549
      34A     -0.557223    35A     -0.540249    36A     -0.532544
      37A     -0.527975    38A     -0.507648    39A     -0.499472
      40A     -0.489913    41A     -0.479965    42A     -0.459519
      43A     -0.456737    44A     -0.438307    45A     -0.410678

  @DF-RHF Final Energy:  -821.73474243024498

   => Energetics <=

    Nuclear Repulsion Energy =            709.9277761087870431
    One-Electron Energy =               -2536.3711278384430443
    Two-Electron Energy =                1004.7086092994111368
    Total Energy =                       -821.7347424302449781
  Basis Set: (AUG-CC-PVTZ AUX)
    Blend: AUG-CC-PVTZ-RI
    Molecular point group: c1

    Geometry (in Angstrom), charge = 0, multiplicity = 1:

       Center              X                  Y                   Z               Mass
    ------------   -----------------  -----------------  -----------------  -----------------
         S           -0.233915804857    -0.295712341271     0.126942310335    31.972071174400
         O           -0.262610804857    -1.485795341271    -0.743792689665    15.994914619570
         O           -0.167912804857    -0.445388341271     1.592974310335    15.994914619570
         C            1.131153195143     0.767077658729    -0.367666689665    12.000000000000
         C            2.297707695143     0.360122158729     0.127395510335    12.000000000000
         C           -1.688580804857     0.683645658729    -0.261675689665    12.000000000000
         C           -2.953922804857    -0.112395341271     0.044335310335    12.000000000000
         C            2.917047195143    -1.040571341271    -0.384238689665    12.000000000000
         C            3.521390195143     1.381532658729    -0.056418689665    12.000000000000
         C           -4.207089804857     0.701013658729    -0.267471689665    12.000000000000
         H            1.143554195143     0.787910658729    -1.463309689665     1.007825032230
         H            0.887209195143     1.768062658729     0.006947310335     1.007825032230
         H            2.343574195143     0.186515658729     1.284697310335     1.007825032230
         H           -1.628145804857     0.945366658729    -1.323713689665     1.007825032230
         H           -1.634914804857     1.596994658729     0.339750310335     1.007825032230
         H           -2.940732804857    -1.034984341271    -0.543288689665     1.007825032230
         H           -2.941059804857    -0.401102341271     1.099888310335     1.007825032230
         H            3.023359195143    -0.964162341271    -1.472062689665     1.007825032230
         H            2.204250195143    -1.839554341271    -0.173444689665     1.007825032230
         H            3.888689195143    -1.324776341271     0.031193310335     1.007825032230
         H            3.660624195143     1.537540658729    -1.131720689665     1.007825032230
         H            3.234145195143     2.336858658729     0.394282310335     1.007825032230
         H            4.485659195143     1.084548658729     0.366758310335     1.007825032230
         H           -4.241948804857     1.617092658729     0.329713310335     1.007825032230
         H           -4.241380804857     0.983054658729    -1.324090689665     1.007825032230
         H           -5.107091804857     0.121276658729    -0.045550689665     1.007825032230

  Basis Set: AUG-CC-PVTZ
    Blend: AUG-CC-PVTZ
  Basis Set: (AUG-CC-PVTZ AUX)
    Blend: AUG-CC-PVTZ-JKFIT
	 Reference Energy          =    -821.7347424302449781 [Eh]
	 Singles Energy            =      -0.0000000000000000 [Eh]
	 Same-Spin Energy          =      -0.5037222027318589 [Eh]
	 Opposite-Spin Energy      =      -1.6532705898669138 [Eh]
	 Correlation Energy        =      -2.1569927925987726 [Eh]
	 Total Energy              =    -823.8917352228437494 [Eh]

	 ================> DF-SCS-MP2 Energies <==================
	-----------------------------------------------------------
	 SCS Same-Spin Scale       =       0.3333333333333333 [-]
	 SCS Opposite-Spin Scale   =       1.2000000000000000 [-]
	 SCS Same-Spin Energy      =      -0.1679074009106196 [Eh]
	 SCS Opposite-Spin Energy  =      -1.9839247078402964 [Eh]
	 SCS Correlation Energy    =      -2.1518321087509160 [Eh]
	 SCS Total Energy          =    -823.8865745389958875 [Eh]
	-----------------------------------------------------------

  Dipole Moment: [D]
     X:    -0.3737      Y:     3.7735      Z:    -1.5589     Total:     4.0999

*** Psi4 exiting successfully. Buy a developer a beer!
