                               Psi4 1.4a3.dev225

  ==> Input File <==

--------------------------------------------------------------------------
#psi4
#
memory 32 gb

molecule  {
0 1
  S       -0.2573260    -0.3323280     0.1419150
  O       -0.2860210    -1.5224110    -0.7288200
  O       -0.1913230    -0.4820040     1.6079470
  C        1.1077430     0.7304620    -0.3526940
  C        2.4495880     0.2623560     0.2167580
  C       -1.7119910     0.6470300    -0.2467030
  C       -2.9773330    -0.1490110     0.0593080
  C        2.8936370    -1.0771870    -0.3692660
  C        3.4979800     1.3449170    -0.0414460
  C       -4.2305000     0.6643980    -0.2524990
  H        1.1201440     0.7512950    -1.4483370
  H        0.8637990     1.7314470     0.0219200
  H        2.3201640     0.1499000     1.2996700
  H       -1.6515560     0.9087510    -1.3087410
  H       -1.6583250     1.5603790     0.3547230
  H       -2.9641430    -1.0716000    -0.5283160
  H       -2.9644700    -0.4377180     1.1148610
  H        2.9999490    -1.0007780    -1.4570900
  H        2.1808400    -1.8761700    -0.1584720
  H        3.8652790    -1.3613920     0.0461660
  H        3.6372140     1.5009250    -1.1167480
  H        3.2107350     2.3002430     0.4092550
  H        4.2859847     1.1022204     0.3043760
  H       -4.2653590     1.5804770     0.3446860
  H       -4.2647910     0.9464390    -1.3091180
  H       -5.1305020     0.0846610    -0.0305780
units angstrom
no_reorient  #important for SAPT in psi4, default
symmetry c1  #important for SAPT in psi4, default
}

set PROPERTIES_ORIGIN ["COM"]
properties('MP2/aug-cc-pvtz', properties = ['dipole'])
--------------------------------------------------------------------------

    Molecular point group: c1
  Charge       = 0
  Multiplicity = 1
  Basis Set: AUG-CC-PVTZ
    Blend: AUG-CC-PVTZ
  Basis Set: (AUG-CC-PVTZ AUX)
    Blend: AUG-CC-PVTZ-JKFIT

    Orbital Energies [Eh]
    ---------------------

    Doubly Occupied:

       1A    -92.169250     2A    -20.534881     3A    -20.534098
       4A    -11.274153     5A    -11.272501     6A    -11.245327
       7A    -11.240970     8A    -11.229289     9A    -11.213078
      10A    -11.202158    11A     -9.139764    12A     -6.824148
      13A     -6.823738    14A     -6.823555    15A     -1.425186
      16A     -1.315983    17A     -1.117482    18A     -1.096160
      19A     -1.017479    20A     -0.967538    21A     -0.947191
      22A     -0.853180    23A     -0.807900    24A     -0.779417
      25A     -0.690825    26A     -0.675149    27A     -0.664134
      28A     -0.643665    29A     -0.620196    30A     -0.612077
      31A     -0.592845    32A     -0.586296    33A     -0.567813
      34A     -0.560072    35A     -0.548676    36A     -0.528932
      37A     -0.510421    38A     -0.502310    39A     -0.495411
      40A     -0.489092    41A     -0.481787    42A     -0.474933
      43A     -0.469594    44A     -0.455781    45A     -0.417911

  @DF-RHF Final Energy:  -821.74963612573731

   => Energetics <=

    Nuclear Repulsion Energy =            708.3841048015500519
    One-Electron Energy =               -2533.3827904814665999
    Two-Electron Energy =                1003.2490495541791233
    Total Energy =                       -821.7496361257373110
  Basis Set: (AUG-CC-PVTZ AUX)
    Blend: AUG-CC-PVTZ-RI
    Molecular point group: c1

    Geometry (in Angstrom), charge = 0, multiplicity = 1:

       Center              X                  Y                   Z               Mass
    ------------   -----------------  -----------------  -----------------  -----------------
         S           -0.245652513077    -0.291573723455     0.121977158961    31.972071174400
         O           -0.274347513077    -1.481656723455    -0.748757841039    15.994914619570
         O           -0.179649513077    -0.441249723455     1.588009158961    15.994914619570
         C            1.119416486923     0.771216276545    -0.372631841039    12.000000000000
         C            2.461261486923     0.303110276545     0.196820158961    12.000000000000
         C           -1.700317513077     0.687784276545    -0.266640841039    12.000000000000
         C           -2.965659513077    -0.108256723455     0.039370158961    12.000000000000
         C            2.905310486923    -1.036432723455    -0.389203841039    12.000000000000
         C            3.509653486923     1.385671276545    -0.061383841039    12.000000000000
         C           -4.218826513077     0.705152276545    -0.272436841039    12.000000000000
         H            1.131817486923     0.792049276545    -1.468274841039     1.007825032230
         H            0.875472486923     1.772201276545     0.001982158961     1.007825032230
         H            2.331837486923     0.190654276545     1.279732158961     1.007825032230
         H           -1.639882513077     0.949505276545    -1.328678841039     1.007825032230
         H           -1.646651513077     1.601133276545     0.334785158961     1.007825032230
         H           -2.952469513077    -1.030845723455    -0.548253841039     1.007825032230
         H           -2.952796513077    -0.396963723455     1.094923158961     1.007825032230
         H            3.011622486923    -0.960023723455    -1.477027841039     1.007825032230
         H            2.192513486923    -1.835415723455    -0.178409841039     1.007825032230
         H            3.876952486923    -1.320637723455     0.026228158961     1.007825032230
         H            3.648887486923     1.541679276545    -1.136685841039     1.007825032230
         H            3.222408486923     2.340997276545     0.389317158961     1.007825032230
         H            4.297658186923     1.142974676545     0.284438158961     1.007825032230
         H           -4.253685513077     1.621231276545     0.324748158961     1.007825032230
         H           -4.253117513077     0.987193276545    -1.329055841039     1.007825032230
         H           -5.118828513077     0.125415276545    -0.050515841039     1.007825032230

  Basis Set: AUG-CC-PVTZ
    Blend: AUG-CC-PVTZ
  Basis Set: (AUG-CC-PVTZ AUX)
    Blend: AUG-CC-PVTZ-JKFIT
	 Reference Energy          =    -821.7496361257373110 [Eh]
	 Singles Energy            =      -0.0000000000000000 [Eh]
	 Same-Spin Energy          =      -0.5011108945890528 [Eh]
	 Opposite-Spin Energy      =      -1.6482285767717970 [Eh]
	 Correlation Energy        =      -2.1493394713608498 [Eh]
	 Total Energy              =    -823.8989755970981150 [Eh]

	 ================> DF-SCS-MP2 Energies <==================
	-----------------------------------------------------------
	 SCS Same-Spin Scale       =       0.3333333333333333 [-]
	 SCS Opposite-Spin Scale   =       1.2000000000000000 [-]
	 SCS Same-Spin Energy      =      -0.1670369648630176 [Eh]
	 SCS Opposite-Spin Energy  =      -1.9778742921261563 [Eh]
	 SCS Correlation Energy    =      -2.1449112569891740 [Eh]
	 SCS Total Energy          =    -823.8945473827265005 [Eh]
	-----------------------------------------------------------

  Dipole Moment: [D]
     X:    -0.0899      Y:     3.8062      Z:    -1.5542     Total:     4.1122

*** Psi4 exiting successfully. Buy a developer a beer!
