                               Psi4 1.4a3.dev225

  ==> Input File <==

--------------------------------------------------------------------------
#psi4
#
memory 32 gb

molecule  {
0 1
  S       -0.2573260    -0.3323280     0.1419150
  O       -0.2860210    -1.5224110    -0.7288200
  O       -0.1913230    -0.4820040     1.6079470
  C        1.1077430     0.7304620    -0.3526940
  C        2.3628240     0.2129432     0.2542569
  C       -1.7119910     0.6470300    -0.2467030
  C       -2.9773330    -0.1490110     0.0593080
  C        2.8936370    -1.0771870    -0.3692660
  C        3.4979800     1.3449170    -0.0414460
  C       -4.2305000     0.6643980    -0.2524990
  H        1.1201440     0.7512950    -1.4483370
  H        0.8637990     1.7314470     0.0219200
  H        2.3201640     0.1499000     1.2996700
  H       -1.6515560     0.9087510    -1.3087410
  H       -1.6583250     1.5603790     0.3547230
  H       -2.9641430    -1.0716000    -0.5283160
  H       -2.9644700    -0.4377180     1.1148610
  H        2.9999490    -1.0007780    -1.4570900
  H        2.1808400    -1.8761700    -0.1584720
  H        3.8652790    -1.3613920     0.0461660
  H        3.6372140     1.5009250    -1.1167480
  H        3.2107350     2.3002430     0.4092550
  H        4.4622490     1.0479330     0.3817310
  H       -4.2653590     1.5804770     0.3446860
  H       -4.2647910     0.9464390    -1.3091180
  H       -5.1305020     0.0846610    -0.0305780
units angstrom
no_reorient  #important for SAPT in psi4, default
symmetry c1  #important for SAPT in psi4, default
}

set PROPERTIES_ORIGIN ["COM"]
properties('MP2/aug-cc-pvtz', properties = ['dipole'])
--------------------------------------------------------------------------

    Molecular point group: c1
  Charge       = 0
  Multiplicity = 1
  Basis Set: AUG-CC-PVTZ
    Blend: AUG-CC-PVTZ
  Basis Set: (AUG-CC-PVTZ AUX)
    Blend: AUG-CC-PVTZ-JKFIT

    Orbital Energies [Eh]
    ---------------------

    Doubly Occupied:

       1A    -92.168877     2A    -20.536244     3A    -20.535100
       4A    -11.275108     5A    -11.274090     6A    -11.245360
       7A    -11.241042     8A    -11.229380     9A    -11.228863
      10A    -11.213430    11A     -9.139706    12A     -6.824129
      13A     -6.823579    14A     -6.823463    15A     -1.426464
      16A     -1.317103    17A     -1.117525    18A     -1.095399
      19A     -1.010027    20A     -0.959968    21A     -0.930940
      22A     -0.852343    23A     -0.807640    24A     -0.785500
      25A     -0.688160    26A     -0.676912    27A     -0.666079
      28A     -0.642779    29A     -0.620874    30A     -0.600650
      31A     -0.590978    32A     -0.579366    33A     -0.568038
      34A     -0.549696    35A     -0.540324    36A     -0.529168
      37A     -0.513097    38A     -0.503706    39A     -0.498044
      40A     -0.495354    41A     -0.485436    42A     -0.477476
      43A     -0.458942    44A     -0.456460    45A     -0.410235

  @DF-RHF Final Energy:  -821.77340527107481

   => Energetics <=

    Nuclear Repulsion Energy =            708.2457799423677898
    One-Electron Energy =               -2533.2122594279244367
    Two-Electron Energy =                1003.1930742144818396
    Total Energy =                       -821.7734052710748074
  Basis Set: (AUG-CC-PVTZ AUX)
    Blend: AUG-CC-PVTZ-RI
    Molecular point group: c1

    Geometry (in Angstrom), charge = 0, multiplicity = 1:

       Center              X                  Y                   Z               Mass
    ------------   -----------------  -----------------  -----------------  -----------------
         S           -0.240389915217    -0.287626638053     0.118759678108    31.972071174400
         O           -0.269084915217    -1.477709638053    -0.751975321892    15.994914619570
         O           -0.174386915217    -0.437302638053     1.584791678108    15.994914619570
         C            1.124679084783     0.775163361947    -0.375849321892    12.000000000000
         C            2.379760084783     0.257644561947     0.231101578108    12.000000000000
         C           -1.695054915217     0.691731361947    -0.269858321892    12.000000000000
         C           -2.960396915217    -0.104309638053     0.036152678108    12.000000000000
         C            2.910573084783    -1.032485638053    -0.392421321892    12.000000000000
         C            3.514916084783     1.389618361947    -0.064601321892    12.000000000000
         C           -4.213563915217     0.709099361947    -0.275654321892    12.000000000000
         H            1.137080084783     0.795996361947    -1.471492321892     1.007825032230
         H            0.880735084783     1.776148361947    -0.001235321892     1.007825032230
         H            2.337100084783     0.194601361947     1.276514678108     1.007825032230
         H           -1.634619915217     0.953452361947    -1.331896321892     1.007825032230
         H           -1.641388915217     1.605080361947     0.331567678108     1.007825032230
         H           -2.947206915217    -1.026898638053    -0.551471321892     1.007825032230
         H           -2.947533915217    -0.393016638053     1.091705678108     1.007825032230
         H            3.016885084783    -0.956076638053    -1.480245321892     1.007825032230
         H            2.197776084783    -1.831468638053    -0.181627321892     1.007825032230
         H            3.882215084783    -1.316690638053     0.023010678108     1.007825032230
         H            3.654150084783     1.545626361947    -1.139903321892     1.007825032230
         H            3.227671084783     2.344944361947     0.386099678108     1.007825032230
         H            4.479185084783     1.092634361947     0.358575678108     1.007825032230
         H           -4.248422915217     1.625178361947     0.321530678108     1.007825032230
         H           -4.247854915217     0.991140361947    -1.332273321892     1.007825032230
         H           -5.113565915217     0.129362361947    -0.053733321892     1.007825032230

  Basis Set: AUG-CC-PVTZ
    Blend: AUG-CC-PVTZ
  Basis Set: (AUG-CC-PVTZ AUX)
    Blend: AUG-CC-PVTZ-JKFIT
	 Reference Energy          =    -821.7734052710748074 [Eh]
	 Singles Energy            =      -0.0000000000000000 [Eh]
	 Same-Spin Energy          =      -0.5013492571896072 [Eh]
	 Opposite-Spin Energy      =      -1.6496664908772967 [Eh]
	 Correlation Energy        =      -2.1510157480669037 [Eh]
	 Total Energy              =    -823.9244210191417324 [Eh]

	 ================> DF-SCS-MP2 Energies <==================
	-----------------------------------------------------------
	 SCS Same-Spin Scale       =       0.3333333333333333 [-]
	 SCS Opposite-Spin Scale   =       1.2000000000000000 [-]
	 SCS Same-Spin Energy      =      -0.1671164190632024 [Eh]
	 SCS Opposite-Spin Energy  =      -1.9795997890527559 [Eh]
	 SCS Correlation Energy    =      -2.1467162081159583 [Eh]
	 SCS Total Energy          =    -823.9201214791908114 [Eh]
	-----------------------------------------------------------

  Dipole Moment: [D]
     X:    -0.2079      Y:     3.7711      Z:    -1.5789     Total:     4.0936

*** Psi4 exiting successfully. Buy a developer a beer!
