                               Psi4 1.4a3.dev225

  ==> Input File <==

--------------------------------------------------------------------------
#psi4
#
memory 32 gb

molecule  {
0 1
  S       -0.2573260    -0.3323280     0.1419150
  O       -0.2860210    -1.5224110    -0.7288200
  O       -0.1913230    -0.4820040     1.6079470
  C        1.1077430     0.7304620    -0.3526940
  C        2.4495880     0.2623560     0.2167580
  C       -1.7119910     0.6470300    -0.2467030
  C       -2.9773330    -0.1490110     0.0593080
  C        2.8483093    -1.0989402    -0.3514613
  C        3.4979800     1.3449170    -0.0414460
  C       -4.2305000     0.6643980    -0.2524990
  H        1.1201440     0.7512950    -1.4483370
  H        0.8637990     1.7314470     0.0219200
  H        2.3201640     0.1499000     1.2996700
  H       -1.6515560     0.9087510    -1.3087410
  H       -1.6583250     1.5603790     0.3547230
  H       -2.9641430    -1.0716000    -0.5283160
  H       -2.9644700    -0.4377180     1.1148610
  H        2.9999490    -1.0007780    -1.4570900
  H        2.1808400    -1.8761700    -0.1584720
  H        3.8652790    -1.3613920     0.0461660
  H        3.6372140     1.5009250    -1.1167480
  H        3.2107350     2.3002430     0.4092550
  H        4.4622490     1.0479330     0.3817310
  H       -4.2653590     1.5804770     0.3446860
  H       -4.2647910     0.9464390    -1.3091180
  H       -5.1305020     0.0846610    -0.0305780
units angstrom
no_reorient  #important for SAPT in psi4, default
symmetry c1  #important for SAPT in psi4, default
}

set PROPERTIES_ORIGIN ["COM"]
properties('MP2/aug-cc-pvtz', properties = ['dipole'])
--------------------------------------------------------------------------

    Molecular point group: c1
  Charge       = 0
  Multiplicity = 1
  Basis Set: AUG-CC-PVTZ
    Blend: AUG-CC-PVTZ
  Basis Set: (AUG-CC-PVTZ AUX)
    Blend: AUG-CC-PVTZ-JKFIT

    Orbital Energies [Eh]
    ---------------------

    Doubly Occupied:

       1A    -92.170184     2A    -20.535598     3A    -20.534905
       4A    -11.274795     5A    -11.273145     6A    -11.247063
       7A    -11.241442     8A    -11.229662     9A    -11.228050
      10A    -11.213957    11A     -9.140676    12A     -6.825062
      13A     -6.824655    14A     -6.824464    15A     -1.425983
      16A     -1.316746    17A     -1.115877    18A     -1.096113
      19A     -1.013004    20A     -0.960127    21A     -0.939811
      22A     -0.850484    23A     -0.804925    24A     -0.778675
      25A     -0.688243    26A     -0.675808    27A     -0.663128
      28A     -0.643507    29A     -0.619134    30A     -0.608222
      31A     -0.591532    32A     -0.581866    33A     -0.568214
      34A     -0.554527    35A     -0.535806    36A     -0.526906
      37A     -0.510990    38A     -0.507493    39A     -0.496398
      40A     -0.485210    41A     -0.481297    42A     -0.473831
      43A     -0.470758    44A     -0.456463    45A     -0.418826

  @DF-RHF Final Energy:  -821.78013797913218

   => Energetics <=

    Nuclear Repulsion Energy =            707.7279332237577592
    One-Electron Energy =               -2532.1690194881966818
    Two-Electron Energy =                1002.6609482853068585
    Total Energy =                       -821.7801379791321779
  Basis Set: (AUG-CC-PVTZ AUX)
    Blend: AUG-CC-PVTZ-RI
    Molecular point group: c1

    Geometry (in Angstrom), charge = 0, multiplicity = 1:

       Center              X                  Y                   Z               Mass
    ------------   -----------------  -----------------  -----------------  -----------------
         S           -0.243420230197    -0.289649436909     0.120199952198    31.972071174400
         O           -0.272115230197    -1.479732436909    -0.750535047802    15.994914619570
         O           -0.177417230197    -0.439325436909     1.586231952198    15.994914619570
         C            1.121648769803     0.773140563091    -0.374409047802    12.000000000000
         C            2.463493769803     0.305034563091     0.195042952198    12.000000000000
         C           -1.698085230197     0.689708563091    -0.268418047802    12.000000000000
         C           -2.963427230197    -0.106332436909     0.037592952198    12.000000000000
         C            2.862215069803    -1.056261636909    -0.373176347802    12.000000000000
         C            3.511885769803     1.387595563091    -0.063161047802    12.000000000000
         C           -4.216594230197     0.707076563091    -0.274214047802    12.000000000000
         H            1.134049769803     0.793973563091    -1.470052047802     1.007825032230
         H            0.877704769803     1.774125563091     0.000204952198     1.007825032230
         H            2.334069769803     0.192578563091     1.277954952198     1.007825032230
         H           -1.637650230197     0.951429563091    -1.330456047802     1.007825032230
         H           -1.644419230197     1.603057563091     0.333007952198     1.007825032230
         H           -2.950237230197    -1.028921436909    -0.550031047802     1.007825032230
         H           -2.950564230197    -0.395039436909     1.093145952198     1.007825032230
         H            3.013854769803    -0.958099436909    -1.478805047802     1.007825032230
         H            2.194745769803    -1.833491436909    -0.180187047802     1.007825032230
         H            3.879184769803    -1.318713436909     0.024450952198     1.007825032230
         H            3.651119769803     1.543603563091    -1.138463047802     1.007825032230
         H            3.224640769803     2.342921563091     0.387539952198     1.007825032230
         H            4.476154769803     1.090611563091     0.360015952198     1.007825032230
         H           -4.251453230197     1.623155563091     0.322970952198     1.007825032230
         H           -4.250885230197     0.989117563091    -1.330833047802     1.007825032230
         H           -5.116596230197     0.127339563091    -0.052293047802     1.007825032230

  Basis Set: AUG-CC-PVTZ
    Blend: AUG-CC-PVTZ
  Basis Set: (AUG-CC-PVTZ AUX)
    Blend: AUG-CC-PVTZ-JKFIT
	 Reference Energy          =    -821.7801379791321779 [Eh]
	 Singles Energy            =      -0.0000000000000000 [Eh]
	 Same-Spin Energy          =      -0.5010913148415956 [Eh]
	 Opposite-Spin Energy      =      -1.6490482971150664 [Eh]
	 Correlation Energy        =      -2.1501396119566620 [Eh]
	 Total Energy              =    -823.9302775910888386 [Eh]

	 ================> DF-SCS-MP2 Energies <==================
	-----------------------------------------------------------
	 SCS Same-Spin Scale       =       0.3333333333333333 [-]
	 SCS Opposite-Spin Scale   =       1.2000000000000000 [-]
	 SCS Same-Spin Energy      =      -0.1670304382805319 [Eh]
	 SCS Opposite-Spin Energy  =      -1.9788579565380795 [Eh]
	 SCS Correlation Energy    =      -2.1458883948186114 [Eh]
	 SCS Total Energy          =    -823.9260263739507764 [Eh]
	-----------------------------------------------------------

  Dipole Moment: [D]
     X:    -0.2015      Y:     3.8177      Z:    -1.5636     Total:     4.1304

*** Psi4 exiting successfully. Buy a developer a beer!
