                               Psi4 1.4a3.dev225

  ==> Input File <==

--------------------------------------------------------------------------
#psi4
#
memory 32 gb

molecule  {
0 1
  S       -0.2573260    -0.3323280     0.1419150
  O       -0.2860210    -1.5224110    -0.7288200
  O       -0.1913230    -0.4820040     1.6079470
  C        1.1077430     0.7304620    -0.3526940
  C        2.4495880     0.2623560     0.2167580
  C       -1.7119910     0.6470300    -0.2467030
  C       -2.9773330    -0.1490110     0.0593080
  C        2.8936370    -1.0771870    -0.3692660
  C        3.4979800     1.3449170    -0.0414460
  C       -4.2305000     0.6643980    -0.2524990
  H        1.1201440     0.7512950    -1.4483370
  H        0.8192948     1.9140629     0.0902632
  H        2.3201640     0.1499000     1.2996700
  H       -1.6515560     0.9087510    -1.3087410
  H       -1.6583250     1.5603790     0.3547230
  H       -2.9641430    -1.0716000    -0.5283160
  H       -2.9644700    -0.4377180     1.1148610
  H        2.9999490    -1.0007780    -1.4570900
  H        2.1808400    -1.8761700    -0.1584720
  H        3.8652790    -1.3613920     0.0461660
  H        3.6372140     1.5009250    -1.1167480
  H        3.2107350     2.3002430     0.4092550
  H        4.4622490     1.0479330     0.3817310
  H       -4.2653590     1.5804770     0.3446860
  H       -4.2647910     0.9464390    -1.3091180
  H       -5.1305020     0.0846610    -0.0305780
units angstrom
no_reorient  #important for SAPT in psi4, default
symmetry c1  #important for SAPT in psi4, default
}

set PROPERTIES_ORIGIN ["COM"]
properties('MP2/aug-cc-pvtz', properties = ['dipole'])
--------------------------------------------------------------------------

    Molecular point group: c1
  Charge       = 0
  Multiplicity = 1
  Basis Set: AUG-CC-PVTZ
    Blend: AUG-CC-PVTZ
  Basis Set: (AUG-CC-PVTZ AUX)
    Blend: AUG-CC-PVTZ-JKFIT

    Orbital Energies [Eh]
    ---------------------

    Doubly Occupied:

       1A    -92.171486     2A    -20.536508     3A    -20.535648
       4A    -11.294262     5A    -11.274233     6A    -11.248222
       7A    -11.241034     8A    -11.229410     9A    -11.226689
      10A    -11.214807    11A     -9.141816    12A     -6.826232
      13A     -6.825791    14A     -6.825605    15A     -1.426571
      16A     -1.317364    17A     -1.112700    18A     -1.095781
      19A     -1.010352    20A     -0.956308    21A     -0.937848
      22A     -0.849604    23A     -0.805098    24A     -0.774498
      25A     -0.687809    26A     -0.672062    27A     -0.660279
      28A     -0.633551    29A     -0.616436    30A     -0.603092
      31A     -0.590832    32A     -0.577855    33A     -0.567899
      34A     -0.549064    35A     -0.538808    36A     -0.527417
      37A     -0.510015    38A     -0.501352    39A     -0.495610
      40A     -0.487107    41A     -0.481736    42A     -0.474821
      43A     -0.468835    44A     -0.455971    45A     -0.418850

  @DF-RHF Final Energy:  -821.76276094253421

   => Energetics <=

    Nuclear Repulsion Energy =            706.3057431835997022
    One-Electron Energy =               -2529.3424724611545571
    Two-Electron Energy =                1001.2739683350207542
    Total Energy =                       -821.7627609425342143
  Basis Set: (AUG-CC-PVTZ AUX)
    Blend: AUG-CC-PVTZ-RI
    Molecular point group: c1

    Geometry (in Angstrom), charge = 0, multiplicity = 1:

       Center              X                  Y                   Z               Mass
    ------------   -----------------  -----------------  -----------------  -----------------
         S           -0.246461785264    -0.292361918712     0.121082278789    31.972071174400
         O           -0.275156785264    -1.482444918712    -0.749652721211    15.994914619570
         O           -0.180458785264    -0.442037918712     1.587114278789    15.994914619570
         C            1.118607214736     0.770428081288    -0.373526721211    12.000000000000
         C            2.460452214736     0.302322081288     0.195925278789    12.000000000000
         C           -1.701126785264     0.686996081288    -0.267535721211    12.000000000000
         C           -2.966468785264    -0.109044918712     0.038475278789    12.000000000000
         C            2.904501214736    -1.037220918712    -0.390098721211    12.000000000000
         C            3.508844214736     1.384883081288    -0.062278721211    12.000000000000
         C           -4.219635785264     0.704364081288    -0.273331721211    12.000000000000
         H            1.131008214736     0.791261081288    -1.469169721211     1.007825032230
         H            0.830159014736     1.954028981288     0.069430478789     1.007825032230
         H            2.331028214736     0.189866081288     1.278837278789     1.007825032230
         H           -1.640691785264     0.948717081288    -1.329573721211     1.007825032230
         H           -1.647460785264     1.600345081288     0.333890278789     1.007825032230
         H           -2.953278785264    -1.031633918712    -0.549148721211     1.007825032230
         H           -2.953605785264    -0.397751918712     1.094028278789     1.007825032230
         H            3.010813214736    -0.960811918712    -1.477922721211     1.007825032230
         H            2.191704214736    -1.836203918712    -0.179304721211     1.007825032230
         H            3.876143214736    -1.321425918712     0.025333278789     1.007825032230
         H            3.648078214736     1.540891081288    -1.137580721211     1.007825032230
         H            3.221599214736     2.340209081288     0.388422278789     1.007825032230
         H            4.473113214736     1.087899081288     0.360898278789     1.007825032230
         H           -4.254494785264     1.620443081288     0.323853278789     1.007825032230
         H           -4.253926785264     0.986405081288    -1.329950721211     1.007825032230
         H           -5.119637785264     0.124627081288    -0.051410721211     1.007825032230

  Basis Set: AUG-CC-PVTZ
    Blend: AUG-CC-PVTZ
  Basis Set: (AUG-CC-PVTZ AUX)
    Blend: AUG-CC-PVTZ-JKFIT
	 Reference Energy          =    -821.7627609425342143 [Eh]
	 Singles Energy            =      -0.0000000000000000 [Eh]
	 Same-Spin Energy          =      -0.5015269317019231 [Eh]
	 Opposite-Spin Energy      =      -1.6509912090190466 [Eh]
	 Correlation Energy        =      -2.1525181407209697 [Eh]
	 Total Energy              =    -823.9152790832552000 [Eh]

	 ================> DF-SCS-MP2 Energies <==================
	-----------------------------------------------------------
	 SCS Same-Spin Scale       =       0.3333333333333333 [-]
	 SCS Opposite-Spin Scale   =       1.2000000000000000 [-]
	 SCS Same-Spin Energy      =      -0.1671756439006410 [Eh]
	 SCS Opposite-Spin Energy  =      -1.9811894508228558 [Eh]
	 SCS Correlation Energy    =      -2.1483650947234967 [Eh]
	 SCS Total Energy          =    -823.9111260372577590 [Eh]
	-----------------------------------------------------------

  Dipole Moment: [D]
     X:    -0.1540      Y:     3.7034      Z:    -1.5822     Total:     4.0302

*** Psi4 exiting successfully. Buy a developer a beer!
