                               Psi4 1.4a3.dev225

  ==> Input File <==

--------------------------------------------------------------------------
#psi4
#
memory 32 gb

molecule  {
0 1
  S       -0.2573260    -0.3323280     0.1419150
  O       -0.2860210    -1.5224110    -0.7288200
  O       -0.1913230    -0.4820040     1.6079470
  C        1.1077430     0.7304620    -0.3526940
  C        2.4495880     0.2623560     0.2167580
  C       -1.7119910     0.6470300    -0.2467030
  C       -2.9773330    -0.1490110     0.0593080
  C        2.8936370    -1.0771870    -0.3692660
  C        3.4979800     1.3449170    -0.0414460
  C       -4.2305000     0.6643980    -0.2524990
  H        1.1201440     0.7512950    -1.4483370
  H        0.8637990     1.7314470     0.0219200
  H        2.3201640     0.1499000     1.2996700
  H       -1.6437278     1.0181084    -1.2751562
  H       -1.6583250     1.5603790     0.3547230
  H       -2.9641430    -1.0716000    -0.5283160
  H       -2.9644700    -0.4377180     1.1148610
  H        2.9999490    -1.0007780    -1.4570900
  H        2.1808400    -1.8761700    -0.1584720
  H        3.8652790    -1.3613920     0.0461660
  H        3.6372140     1.5009250    -1.1167480
  H        3.2107350     2.3002430     0.4092550
  H        4.4622490     1.0479330     0.3817310
  H       -4.2653590     1.5804770     0.3446860
  H       -4.2647910     0.9464390    -1.3091180
  H       -5.1305020     0.0846610    -0.0305780
units angstrom
no_reorient  #important for SAPT in psi4, default
symmetry c1  #important for SAPT in psi4, default
}

set PROPERTIES_ORIGIN ["COM"]
properties('MP2/aug-cc-pvtz', properties = ['dipole'])
--------------------------------------------------------------------------

    Molecular point group: c1
  Charge       = 0
  Multiplicity = 1
  Basis Set: AUG-CC-PVTZ
    Blend: AUG-CC-PVTZ
  Basis Set: (AUG-CC-PVTZ AUX)
    Blend: AUG-CC-PVTZ-JKFIT

    Orbital Energies [Eh]
    ---------------------

    Doubly Occupied:

       1A    -92.170930     2A    -20.536125     3A    -20.534718
       4A    -11.274329     5A    -11.273765     6A    -11.246633
       7A    -11.241942     8A    -11.229601     9A    -11.226866
      10A    -11.212926    11A     -9.141288    12A     -6.825727
      13A     -6.825264    14A     -6.825076    15A     -1.426025
      16A     -1.316784    17A     -1.115752    18A     -1.095517
      19A     -1.013496    20A     -0.960481    21A     -0.937775
      22A     -0.850796    23A     -0.807317    24A     -0.779355
      25A     -0.689316    26A     -0.672437    27A     -0.661771
      28A     -0.642371    29A     -0.619315    30A     -0.605350
      31A     -0.594811    32A     -0.581114    33A     -0.563335
      34A     -0.553889    35A     -0.539723    36A     -0.528896
      37A     -0.511457    38A     -0.502795    39A     -0.494966
      40A     -0.487656    41A     -0.482420    42A     -0.475681
      43A     -0.470770    44A     -0.456210    45A     -0.418751

  @DF-RHF Final Energy:  -821.78215309189920

   => Energetics <=

    Nuclear Repulsion Energy =            707.1974703231808235
    One-Electron Energy =               -2531.1161994740091359
    Two-Electron Energy =                1002.1365760589291085
    Total Energy =                       -821.7821530918992039
  Basis Set: (AUG-CC-PVTZ AUX)
    Blend: AUG-CC-PVTZ-RI
    Molecular point group: c1

    Geometry (in Angstrom), charge = 0, multiplicity = 1:

       Center              X                  Y                   Z               Mass
    ------------   -----------------  -----------------  -----------------  -----------------
         S           -0.246783211521    -0.291911964086     0.121295765317    31.972071174400
         O           -0.275478211521    -1.481994964086    -0.749439234683    15.994914619570
         O           -0.180780211521    -0.441587964086     1.587327765317    15.994914619570
         C            1.118285788479     0.770878035914    -0.373313234683    12.000000000000
         C            2.460130788479     0.302772035914     0.196138765317    12.000000000000
         C           -1.701448211521     0.687446035914    -0.267322234683    12.000000000000
         C           -2.966790211521    -0.108594964086     0.038688765317    12.000000000000
         C            2.904179788479    -1.036770964086    -0.389885234683    12.000000000000
         C            3.508522788479     1.385333035914    -0.062065234683    12.000000000000
         C           -4.219957211521     0.704814035914    -0.273118234683    12.000000000000
         H            1.130686788479     0.791711035914    -1.468956234683     1.007825032230
         H            0.874341788479     1.771863035914     0.001300765317     1.007825032230
         H            2.330706788479     0.190316035914     1.279050765317     1.007825032230
         H           -1.633185011521     1.058524435914    -1.295775434683     1.007825032230
         H           -1.647782211521     1.600795035914     0.334103765317     1.007825032230
         H           -2.953600211521    -1.031183964086    -0.548935234683     1.007825032230
         H           -2.953927211521    -0.397301964086     1.094241765317     1.007825032230
         H            3.010491788479    -0.960361964086    -1.477709234683     1.007825032230
         H            2.191382788479    -1.835753964086    -0.179091234683     1.007825032230
         H            3.875821788479    -1.320975964086     0.025546765317     1.007825032230
         H            3.647756788479     1.541341035914    -1.137367234683     1.007825032230
         H            3.221277788479     2.340659035914     0.388635765317     1.007825032230
         H            4.472791788479     1.088349035914     0.361111765317     1.007825032230
         H           -4.254816211521     1.620893035914     0.324066765317     1.007825032230
         H           -4.254248211521     0.986855035914    -1.329737234683     1.007825032230
         H           -5.119959211521     0.125077035914    -0.051197234683     1.007825032230

  Basis Set: AUG-CC-PVTZ
    Blend: AUG-CC-PVTZ
  Basis Set: (AUG-CC-PVTZ AUX)
    Blend: AUG-CC-PVTZ-JKFIT
	 Reference Energy          =    -821.7821530918992039 [Eh]
	 Singles Energy            =      -0.0000000000000000 [Eh]
	 Same-Spin Energy          =      -0.5010535858577290 [Eh]
	 Opposite-Spin Energy      =      -1.6489127311089158 [Eh]
	 Correlation Energy        =      -2.1499663169666450 [Eh]
	 Total Energy              =    -823.9321194088659013 [Eh]

	 ================> DF-SCS-MP2 Energies <==================
	-----------------------------------------------------------
	 SCS Same-Spin Scale       =       0.3333333333333333 [-]
	 SCS Opposite-Spin Scale   =       1.2000000000000000 [-]
	 SCS Same-Spin Energy      =      -0.1670178619525763 [Eh]
	 SCS Opposite-Spin Energy  =      -1.9786952773306989 [Eh]
	 SCS Correlation Energy    =      -2.1457131392832753 [Eh]
	 SCS Total Energy          =    -823.9278662311825201 [Eh]
	-----------------------------------------------------------

  Dipole Moment: [D]
     X:    -0.1935      Y:     3.8272      Z:    -1.5596     Total:     4.1373

*** Psi4 exiting successfully. Buy a developer a beer!
