                               Psi4 1.4a3.dev225

  ==> Input File <==

--------------------------------------------------------------------------
#psi4
#
memory 32 gb

molecule  {
0 1
  S       -0.2573260    -0.3323280     0.1419150
  O       -0.2860210    -1.5224110    -0.7288200
  O       -0.1913230    -0.4820040     1.6079470
  C        1.1077430     0.7304620    -0.3526940
  C        2.4495880     0.2623560     0.2167580
  C       -1.7119910     0.6470300    -0.2467030
  C       -2.9773330    -0.1490110     0.0593080
  C        2.8936370    -1.0771870    -0.3692660
  C        3.4979800     1.3449170    -0.0414460
  C       -4.2305000     0.6643980    -0.2524990
  H        1.1201440     0.7512950    -1.4483370
  H        0.8637990     1.7314470     0.0219200
  H        2.3201640     0.1499000     1.2996700
  H       -1.6515560     0.9087510    -1.3087410
  H       -1.6583250     1.5603790     0.3547230
  H       -2.9641430    -1.0716000    -0.5283160
  H       -2.9644700    -0.4377180     1.1148610
  H        2.9496338    -1.0580321    -1.4633405
  H        2.1808400    -1.8761700    -0.1584720
  H        3.8652790    -1.3613920     0.0461660
  H        3.6372140     1.5009250    -1.1167480
  H        3.2107350     2.3002430     0.4092550
  H        4.4622490     1.0479330     0.3817310
  H       -4.2653590     1.5804770     0.3446860
  H       -4.2647910     0.9464390    -1.3091180
  H       -5.1305020     0.0846610    -0.0305780
units angstrom
no_reorient  #important for SAPT in psi4, default
symmetry c1  #important for SAPT in psi4, default
}

set PROPERTIES_ORIGIN ["COM"]
properties('MP2/aug-cc-pvtz', properties = ['dipole'])
--------------------------------------------------------------------------

    Molecular point group: c1
  Charge       = 0
  Multiplicity = 1
  Basis Set: AUG-CC-PVTZ
    Blend: AUG-CC-PVTZ
  Basis Set: (AUG-CC-PVTZ AUX)
    Blend: AUG-CC-PVTZ-JKFIT

    Orbital Energies [Eh]
    ---------------------

    Doubly Occupied:

       1A    -92.170198     2A    -20.535512     3A    -20.534822
       4A    -11.274825     5A    -11.273797     6A    -11.247117
       7A    -11.241457     8A    -11.229675     9A    -11.226702
      10A    -11.212603    11A     -9.140673    12A     -6.825061
      13A     -6.824652    14A     -6.824461    15A     -1.425867
      16A     -1.316640    17A     -1.115632    18A     -1.096073
      19A     -1.013317    20A     -0.960461    21A     -0.937982
      22A     -0.850672    23A     -0.805078    24A     -0.779199
      25A     -0.687627    26A     -0.675799    27A     -0.663505
      28A     -0.642990    29A     -0.619102    30A     -0.606280
      31A     -0.591450    32A     -0.579272    33A     -0.568220
      34A     -0.553240    35A     -0.540554    36A     -0.528642
      37A     -0.510274    38A     -0.502476    39A     -0.495561
      40A     -0.486517    41A     -0.484149    42A     -0.475124
      43A     -0.469620    44A     -0.456416    45A     -0.418299

  @DF-RHF Final Energy:  -821.78303183819980

   => Energetics <=

    Nuclear Repulsion Energy =            707.3203628869025579
    One-Electron Energy =               -2531.3716016346425022
    Two-Electron Energy =                1002.2682069095401403
    Total Energy =                       -821.7830318381998040
  Basis Set: (AUG-CC-PVTZ AUX)
    Blend: AUG-CC-PVTZ-RI
    Molecular point group: c1

    Geometry (in Angstrom), charge = 0, multiplicity = 1:

       Center              X                  Y                   Z               Mass
    ------------   -----------------  -----------------  -----------------  -----------------
         S           -0.246426094029    -0.290888634163     0.121540434230    31.972071174400
         O           -0.275121094029    -1.480971634163    -0.749194565770    15.994914619570
         O           -0.180423094029    -0.440564634163     1.587572434230    15.994914619570
         C            1.118642905971     0.771901365837    -0.373068565770    12.000000000000
         C            2.460487905971     0.303795365837     0.196383434230    12.000000000000
         C           -1.701091094029     0.688469365837    -0.267077565770    12.000000000000
         C           -2.966433094029    -0.107571634163     0.038933434230    12.000000000000
         C            2.904536905971    -1.035747634163    -0.389640565770    12.000000000000
         C            3.508879905971     1.386356365837    -0.061820565770    12.000000000000
         C           -4.219600094029     0.705837365837    -0.272873565770    12.000000000000
         H            1.131043905971     0.792734365837    -1.468711565770     1.007825032230
         H            0.874698905971     1.772886365837     0.001545434230     1.007825032230
         H            2.331063905971     0.191339365837     1.279295434230     1.007825032230
         H           -1.640656094029     0.950190365837    -1.329115565770     1.007825032230
         H           -1.647425094029     1.601818365837     0.334348434230     1.007825032230
         H           -2.953243094029    -1.030160634163    -0.548690565770     1.007825032230
         H           -2.953570094029    -0.396278634163     1.094486434230     1.007825032230
         H            2.960533705971    -1.016592734163    -1.483715065770     1.007825032230
         H            2.191739905971    -1.834730634163    -0.178846565770     1.007825032230
         H            3.876178905971    -1.319952634163     0.025791434230     1.007825032230
         H            3.648113905971     1.542364365837    -1.137122565770     1.007825032230
         H            3.221634905971     2.341682365837     0.388880434230     1.007825032230
         H            4.473148905971     1.089372365837     0.361356434230     1.007825032230
         H           -4.254459094029     1.621916365837     0.324311434230     1.007825032230
         H           -4.253891094029     0.987878365837    -1.329492565770     1.007825032230
         H           -5.119602094029     0.126100365837    -0.050952565770     1.007825032230

  Basis Set: AUG-CC-PVTZ
    Blend: AUG-CC-PVTZ
  Basis Set: (AUG-CC-PVTZ AUX)
    Blend: AUG-CC-PVTZ-JKFIT
	 Reference Energy          =    -821.7830318381998040 [Eh]
	 Singles Energy            =      -0.0000000000000000 [Eh]
	 Same-Spin Energy          =      -0.5010396503691036 [Eh]
	 Opposite-Spin Energy      =      -1.6488634122353418 [Eh]
	 Correlation Energy        =      -2.1499030626044453 [Eh]
	 Total Energy              =    -823.9329349008042982 [Eh]

	 ================> DF-SCS-MP2 Energies <==================
	-----------------------------------------------------------
	 SCS Same-Spin Scale       =       0.3333333333333333 [-]
	 SCS Opposite-Spin Scale   =       1.2000000000000000 [-]
	 SCS Same-Spin Energy      =      -0.1670132167897012 [Eh]
	 SCS Opposite-Spin Energy  =      -1.9786360946824102 [Eh]
	 SCS Correlation Energy    =      -2.1456493114721114 [Eh]
	 SCS Total Energy          =    -823.9286811496718883 [Eh]
	-----------------------------------------------------------

  Dipole Moment: [D]
     X:    -0.2217      Y:     3.7867      Z:    -1.5825     Total:     4.1100

*** Psi4 exiting successfully. Buy a developer a beer!
