                               Psi4 1.4a3.dev225

  ==> Input File <==

--------------------------------------------------------------------------
#psi4
#
memory 32 gb

molecule  {
0 1
  S       -0.2573260    -0.3323280     0.1419150
  O       -0.2860210    -1.5224110    -0.7288200
  O       -0.1913230    -0.4820040     1.6079470
  C        1.1077430     0.7304620    -0.3526940
  C        2.4495880     0.2623560     0.2167580
  C       -1.7119910     0.6470300    -0.2467030
  C       -2.9773330    -0.1490110     0.0593080
  C        2.8936370    -1.0771870    -0.3692660
  C        3.4979800     1.3449170    -0.0414460
  C       -4.2305000     0.6643980    -0.2524990
  H        1.1201440     0.7512950    -1.4483370
  H        0.8637990     1.7314470     0.0219200
  H        2.3201640     0.1499000     1.2996700
  H       -1.6515560     0.9087510    -1.3087410
  H       -1.6583250     1.5603790     0.3547230
  H       -2.9641430    -1.0716000    -0.5283160
  H       -2.9644700    -0.4377180     1.1148610
  H        2.9629806    -0.9912487    -1.4593613
  H        2.1808400    -1.8761700    -0.1584720
  H        3.8652790    -1.3613920     0.0461660
  H        3.6372140     1.5009250    -1.1167480
  H        3.2107350     2.3002430     0.4092550
  H        4.4622490     1.0479330     0.3817310
  H       -4.2653590     1.5804770     0.3446860
  H       -4.2647910     0.9464390    -1.3091180
  H       -5.1305020     0.0846610    -0.0305780
units angstrom
no_reorient  #important for SAPT in psi4, default
symmetry c1  #important for SAPT in psi4, default
}

set PROPERTIES_ORIGIN ["COM"]
properties('MP2/aug-cc-pvtz', properties = ['dipole'])
--------------------------------------------------------------------------

    Molecular point group: c1
  Charge       = 0
  Multiplicity = 1
  Basis Set: AUG-CC-PVTZ
    Blend: AUG-CC-PVTZ
  Basis Set: (AUG-CC-PVTZ AUX)
    Blend: AUG-CC-PVTZ-JKFIT

    Orbital Energies [Eh]
    ---------------------

    Doubly Occupied:

       1A    -92.170184     2A    -20.535515     3A    -20.534802
       4A    -11.274809     5A    -11.273764     6A    -11.246337
       7A    -11.241445     8A    -11.229665     9A    -11.226774
      10A    -11.212996    11A     -9.140660    12A     -6.825048
      13A     -6.824639    14A     -6.824448    15A     -1.425861
      16A     -1.316629    17A     -1.115842    18A     -1.096111
      19A     -1.013434    20A     -0.960510    21A     -0.937815
      22A     -0.850586    23A     -0.804838    24A     -0.778577
      25A     -0.687832    26A     -0.675835    27A     -0.663789
      28A     -0.642664    29A     -0.619539    30A     -0.605511
      31A     -0.591480    32A     -0.580415    33A     -0.568211
      34A     -0.553311    35A     -0.541023    36A     -0.528695
      37A     -0.510272    38A     -0.502861    39A     -0.495627
      40A     -0.487824    41A     -0.482198    42A     -0.474643
      43A     -0.470317    44A     -0.456386    45A     -0.418279

  @DF-RHF Final Energy:  -821.78333182812946

   => Energetics <=

    Nuclear Repulsion Energy =            707.3907117042923574
    One-Electron Energy =               -2531.5120805517221925
    Two-Electron Energy =                1002.3380370193004865
    Total Energy =                       -821.7833318281294623
  Basis Set: (AUG-CC-PVTZ AUX)
    Blend: AUG-CC-PVTZ-RI
    Molecular point group: c1

    Geometry (in Angstrom), charge = 0, multiplicity = 1:

       Center              X                  Y                   Z               Mass
    ------------   -----------------  -----------------  -----------------  -----------------
         S           -0.246508070242    -0.291298818643     0.121515993933    31.972071174400
         O           -0.275203070242    -1.481381818643    -0.749219006067    15.994914619570
         O           -0.180505070242    -0.440974818643     1.587547993933    15.994914619570
         C            1.118560929758     0.771491181357    -0.373093006067    12.000000000000
         C            2.460405929758     0.303385181357     0.196358993933    12.000000000000
         C           -1.701173070242     0.688059181357    -0.267102006067    12.000000000000
         C           -2.966515070242    -0.107981818643     0.038908993933    12.000000000000
         C            2.904454929758    -1.036157818643    -0.389665006067    12.000000000000
         C            3.508797929758     1.385946181357    -0.061845006067    12.000000000000
         C           -4.219682070242     0.705427181357    -0.272898006067    12.000000000000
         H            1.130961929758     0.792324181357    -1.468736006067     1.007825032230
         H            0.874616929758     1.772476181357     0.001520993933     1.007825032230
         H            2.330981929758     0.190929181357     1.279270993933     1.007825032230
         H           -1.640738070242     0.949780181357    -1.329140006067     1.007825032230
         H           -1.647507070242     1.601408181357     0.334323993933     1.007825032230
         H           -2.953325070242    -1.030570818643    -0.548715006067     1.007825032230
         H           -2.953652070242    -0.396688818643     1.094461993933     1.007825032230
         H            2.973798529758    -0.950219518643    -1.479760306067     1.007825032230
         H            2.191657929758    -1.835140818643    -0.178871006067     1.007825032230
         H            3.876096929758    -1.320362818643     0.025766993933     1.007825032230
         H            3.648031929758     1.541954181357    -1.137147006067     1.007825032230
         H            3.221552929758     2.341272181357     0.388855993933     1.007825032230
         H            4.473066929758     1.088962181357     0.361331993933     1.007825032230
         H           -4.254541070242     1.621506181357     0.324286993933     1.007825032230
         H           -4.253973070242     0.987468181357    -1.329517006067     1.007825032230
         H           -5.119684070242     0.125690181357    -0.050977006067     1.007825032230

  Basis Set: AUG-CC-PVTZ
    Blend: AUG-CC-PVTZ
  Basis Set: (AUG-CC-PVTZ AUX)
    Blend: AUG-CC-PVTZ-JKFIT
	 Reference Energy          =    -821.7833318281294623 [Eh]
	 Singles Energy            =      -0.0000000000000000 [Eh]
	 Same-Spin Energy          =      -0.5010760246865194 [Eh]
	 Opposite-Spin Energy      =      -1.6489354132256180 [Eh]
	 Correlation Energy        =      -2.1500114379121373 [Eh]
	 Total Energy              =    -823.9333432660415610 [Eh]

	 ================> DF-SCS-MP2 Energies <==================
	-----------------------------------------------------------
	 SCS Same-Spin Scale       =       0.3333333333333333 [-]
	 SCS Opposite-Spin Scale   =       1.2000000000000000 [-]
	 SCS Same-Spin Energy      =      -0.1670253415621731 [Eh]
	 SCS Opposite-Spin Energy  =      -1.9787224958707414 [Eh]
	 SCS Correlation Energy    =      -2.1457478374329146 [Eh]
	 SCS Total Energy          =    -823.9290796655624263 [Eh]
	-----------------------------------------------------------

  Dipole Moment: [D]
     X:    -0.2138      Y:     3.7978      Z:    -1.5690     Total:     4.1147

*** Psi4 exiting successfully. Buy a developer a beer!
