                               Psi4 1.4a3.dev225

  ==> Input File <==

--------------------------------------------------------------------------
#psi4
#
memory 32 gb

molecule  {
0 1
  S       -0.2573260    -0.3323280     0.1419150
  O       -0.2860210    -1.5224110    -0.7288200
  O       -0.1913230    -0.4820040     1.6079470
  C        1.1077430     0.7304620    -0.3526940
  C        2.4495880     0.2623560     0.2167580
  C       -1.7119910     0.6470300    -0.2467030
  C       -2.9773330    -0.1490110     0.0593080
  C        2.8936370    -1.0771870    -0.3692660
  C        3.4979800     1.3449170    -0.0414460
  C       -4.2305000     0.6643980    -0.2524990
  H        1.1201440     0.7512950    -1.4483370
  H        0.8637990     1.7314470     0.0219200
  H        2.3201640     0.1499000     1.2996700
  H       -1.6515560     0.9087510    -1.3087410
  H       -1.6485221     1.7272164     0.4645828
  H       -2.9641430    -1.0716000    -0.5283160
  H       -2.9644700    -0.4377180     1.1148610
  H        2.9999490    -1.0007780    -1.4570900
  H        2.1808400    -1.8761700    -0.1584720
  H        3.8652790    -1.3613920     0.0461660
  H        3.6372140     1.5009250    -1.1167480
  H        3.2107350     2.3002430     0.4092550
  H        4.4622490     1.0479330     0.3817310
  H       -4.2653590     1.5804770     0.3446860
  H       -4.2647910     0.9464390    -1.3091180
  H       -5.1305020     0.0846610    -0.0305780
units angstrom
no_reorient  #important for SAPT in psi4, default
symmetry c1  #important for SAPT in psi4, default
}

set PROPERTIES_ORIGIN ["COM"]
properties('MP2/aug-cc-pvtz', properties = ['dipole'])
--------------------------------------------------------------------------

    Molecular point group: c1
  Charge       = 0
  Multiplicity = 1
  Basis Set: AUG-CC-PVTZ
    Blend: AUG-CC-PVTZ
  Basis Set: (AUG-CC-PVTZ AUX)
    Blend: AUG-CC-PVTZ-JKFIT

    Orbital Energies [Eh]
    ---------------------

    Doubly Occupied:

       1A    -92.171523     2A    -20.536615     3A    -20.535382
       4A    -11.295271     5A    -11.273384     6A    -11.246475
       7A    -11.243303     8A    -11.229740     9A    -11.226716
      10A    -11.212949    11A     -9.141855    12A     -6.826270
      13A     -6.825835    14A     -6.825641    15A     -1.426536
      16A     -1.317303    17A     -1.115082    18A     -1.092067
      19A     -1.012727    20A     -0.956542    21A     -0.937689
      22A     -0.851214    23A     -0.797841    24A     -0.777079
      25A     -0.687281    26A     -0.671696    27A     -0.655640
      28A     -0.642282    29A     -0.619662    30A     -0.605073
      31A     -0.589237    32A     -0.580580    33A     -0.554015
      34A     -0.552614    35A     -0.539745    36A     -0.529337
      37A     -0.510907    38A     -0.500574    39A     -0.492881
      40A     -0.486511    41A     -0.481089    42A     -0.475331
      43A     -0.470940    44A     -0.455451    45A     -0.418856

  @DF-RHF Final Energy:  -821.76284011959240

   => Energetics <=

    Nuclear Repulsion Energy =            706.3300036684410088
    One-Electron Energy =               -2529.3962139615441629
    Two-Electron Energy =                1001.3033701735108707
    Total Energy =                       -821.7628401195923971
  Basis Set: (AUG-CC-PVTZ AUX)
    Blend: AUG-CC-PVTZ-RI
    Molecular point group: c1

    Geometry (in Angstrom), charge = 0, multiplicity = 1:

       Center              X                  Y                   Z               Mass
    ------------   -----------------  -----------------  -----------------  -----------------
         S           -0.246795340153    -0.292265006967     0.120827283311    31.972071174400
         O           -0.275490340153    -1.482348006967    -0.749907716689    15.994914619570
         O           -0.180792340153    -0.441941006967     1.586859283311    15.994914619570
         C            1.118273659847     0.770524993033    -0.373781716689    12.000000000000
         C            2.460118659847     0.302418993033     0.195670283311    12.000000000000
         C           -1.701460340153     0.687092993033    -0.267790716689    12.000000000000
         C           -2.966802340153    -0.108948006967     0.038220283311    12.000000000000
         C            2.904167659847    -1.037124006967    -0.390353716689    12.000000000000
         C            3.508510659847     1.384979993033    -0.062533716689    12.000000000000
         C           -4.219969340153     0.704460993033    -0.273586716689    12.000000000000
         H            1.130674659847     0.791357993033    -1.469424716689     1.007825032230
         H            0.874329659847     1.771509993033     0.000832283311     1.007825032230
         H            2.330694659847     0.189962993033     1.278582283311     1.007825032230
         H           -1.641025340153     0.948813993033    -1.329828716689     1.007825032230
         H           -1.637991440153     1.767279393033     0.443495083311     1.007825032230
         H           -2.953612340153    -1.031537006967    -0.549403716689     1.007825032230
         H           -2.953939340153    -0.397655006967     1.093773283311     1.007825032230
         H            3.010479659847    -0.960715006967    -1.478177716689     1.007825032230
         H            2.191370659847    -1.836107006967    -0.179559716689     1.007825032230
         H            3.875809659847    -1.321329006967     0.025078283311     1.007825032230
         H            3.647744659847     1.540987993033    -1.137835716689     1.007825032230
         H            3.221265659847     2.340305993033     0.388167283311     1.007825032230
         H            4.472779659847     1.087995993033     0.360643283311     1.007825032230
         H           -4.254828340153     1.620539993033     0.323598283311     1.007825032230
         H           -4.254260340153     0.986501993033    -1.330205716689     1.007825032230
         H           -5.119971340153     0.124723993033    -0.051665716689     1.007825032230

  Basis Set: AUG-CC-PVTZ
    Blend: AUG-CC-PVTZ
  Basis Set: (AUG-CC-PVTZ AUX)
    Blend: AUG-CC-PVTZ-JKFIT
	 Reference Energy          =    -821.7628401195923971 [Eh]
	 Singles Energy            =      -0.0000000000000000 [Eh]
	 Same-Spin Energy          =      -0.5014478208934305 [Eh]
	 Opposite-Spin Energy      =      -1.6508814609620037 [Eh]
	 Correlation Energy        =      -2.1523292818554340 [Eh]
	 Total Energy              =    -823.9151694014478835 [Eh]

	 ================> DF-SCS-MP2 Energies <==================
	-----------------------------------------------------------
	 SCS Same-Spin Scale       =       0.3333333333333333 [-]
	 SCS Opposite-Spin Scale   =       1.2000000000000000 [-]
	 SCS Same-Spin Energy      =      -0.1671492736311435 [Eh]
	 SCS Opposite-Spin Energy  =      -1.9810577531544045 [Eh]
	 SCS Correlation Energy    =      -2.1482070267855478 [Eh]
	 SCS Total Energy          =    -823.9110471463779959 [Eh]
	-----------------------------------------------------------

  Dipole Moment: [D]
     X:    -0.2196      Y:     3.7167      Z:    -1.5902     Total:     4.0486

*** Psi4 exiting successfully. Buy a developer a beer!
