                               Psi4 1.4a3.dev225

  ==> Input File <==

--------------------------------------------------------------------------
#psi4
#
memory 32 gb

molecule  {
0 1
  S       -0.2573260    -0.3323280     0.1419150
  O       -0.2860210    -1.5224110    -0.7288200
  O       -0.1913230    -0.4820040     1.6079470
  C        1.1077430     0.7304620    -0.3526940
  C        2.4495880     0.2623560     0.2167580
  C       -1.7119910     0.6470300    -0.2467030
  C       -2.9773330    -0.1490110     0.0593080
  C        2.8355178    -0.9018615    -0.2925645
  C        3.4979800     1.3449170    -0.0414460
  C       -4.2305000     0.6643980    -0.2524990
  H        1.1201440     0.7512950    -1.4483370
  H        0.8637990     1.7314470     0.0219200
  H        2.3201640     0.1499000     1.2996700
  H       -1.6515560     0.9087510    -1.3087410
  H       -1.6583250     1.5603790     0.3547230
  H       -2.9641430    -1.0716000    -0.5283160
  H       -2.9644700    -0.4377180     1.1148610
  H        2.9999490    -1.0007780    -1.4570900
  H        2.1808400    -1.8761700    -0.1584720
  H        3.8652790    -1.3613920     0.0461660
  H        3.6372140     1.5009250    -1.1167480
  H        3.2107350     2.3002430     0.4092550
  H        4.4622490     1.0479330     0.3817310
  H       -4.2653590     1.5804770     0.3446860
  H       -4.2647910     0.9464390    -1.3091180
  H       -5.1305020     0.0846610    -0.0305780
units angstrom
no_reorient  #important for SAPT in psi4, default
symmetry c1  #important for SAPT in psi4, default
}

set PROPERTIES_ORIGIN ["COM"]
properties('MP2/aug-cc-pvtz', properties = ['dipole'])
--------------------------------------------------------------------------

    Molecular point group: c1
  Charge       = 0
  Multiplicity = 1
  Basis Set: AUG-CC-PVTZ
    Blend: AUG-CC-PVTZ
  Basis Set: (AUG-CC-PVTZ AUX)
    Blend: AUG-CC-PVTZ-JKFIT

    Orbital Energies [Eh]
    ---------------------

    Doubly Occupied:

       1A    -92.170868     2A    -20.535963     3A    -20.534264
       4A    -11.275284     5A    -11.275049     6A    -11.241739
       7A    -11.237350     8A    -11.229893     9A    -11.227799
      10A    -11.225283    11A     -9.141297    12A     -6.825697
      13A     -6.825288    14A     -6.825076    15A     -1.426050
      16A     -1.316666    17A     -1.144282    18A     -1.098626
      19A     -1.020321    20A     -0.962958    21A     -0.941321
      22A     -0.849588    23A     -0.803486    24A     -0.778347
      25A     -0.691226    26A     -0.678695    27A     -0.667633
      28A     -0.649425    29A     -0.622826    30A     -0.612152
      31A     -0.592192    32A     -0.582510    33A     -0.568488
      34A     -0.560707    35A     -0.538137    36A     -0.527315
      37A     -0.519371    38A     -0.506110    39A     -0.498126
      40A     -0.486715    41A     -0.474785    42A     -0.461892
      43A     -0.456523    44A     -0.445935    45A     -0.413001

  @DF-RHF Final Energy:  -821.73299807749004

   => Energetics <=

    Nuclear Repulsion Energy =            710.9785495509305520
    One-Electron Energy =               -2538.4905723710221537
    Two-Electron Energy =                1005.7790247426016776
    Total Energy =                       -821.7329980774900378
  Basis Set: (AUG-CC-PVTZ AUX)
    Blend: AUG-CC-PVTZ-RI
    Molecular point group: c1

    Geometry (in Angstrom), charge = 0, multiplicity = 1:

       Center              X                  Y                   Z               Mass
    ------------   -----------------  -----------------  -----------------  -----------------
         S           -0.242484763612    -0.304062174940     0.115892717833    31.972071174400
         O           -0.271179763612    -1.494145174940    -0.754842282167    15.994914619570
         O           -0.176481763612    -0.453738174940     1.581924717833    15.994914619570
         C            1.122584236388     0.758727825060    -0.378716282167    12.000000000000
         C            2.464429236388     0.290621825060     0.190735717833    12.000000000000
         C           -1.697149763612     0.675295825060    -0.272725282167    12.000000000000
         C           -2.962491763612    -0.120745174940     0.033285717833    12.000000000000
         C            2.850359036388    -0.873595674940    -0.318586782167    12.000000000000
         C            3.512821236388     1.373182825060    -0.067468282167    12.000000000000
         C           -4.215658763612     0.692663825060    -0.278521282167    12.000000000000
         H            1.134985236388     0.779560825060    -1.474359282167     1.007825032230
         H            0.878640236388     1.759712825060    -0.004102282167     1.007825032230
         H            2.335005236388     0.178165825060     1.273647717833     1.007825032230
         H           -1.636714763612     0.937016825060    -1.334763282167     1.007825032230
         H           -1.643483763612     1.588644825060     0.328700717833     1.007825032230
         H           -2.949301763612    -1.043334174940    -0.554338282167     1.007825032230
         H           -2.949628763612    -0.409452174940     1.088838717833     1.007825032230
         H            3.014790236388    -0.972512174940    -1.483112282167     1.007825032230
         H            2.195681236388    -1.847904174940    -0.184494282167     1.007825032230
         H            3.880120236388    -1.333126174940     0.020143717833     1.007825032230
         H            3.652055236388     1.529190825060    -1.142770282167     1.007825032230
         H            3.225576236388     2.328508825060     0.383232717833     1.007825032230
         H            4.477090236388     1.076198825060     0.355708717833     1.007825032230
         H           -4.250517763612     1.608742825060     0.318663717833     1.007825032230
         H           -4.249949763612     0.974704825060    -1.335140282167     1.007825032230
         H           -5.115660763612     0.112926825060    -0.056600282167     1.007825032230

  Basis Set: AUG-CC-PVTZ
    Blend: AUG-CC-PVTZ
  Basis Set: (AUG-CC-PVTZ AUX)
    Blend: AUG-CC-PVTZ-JKFIT
	 Reference Energy          =    -821.7329980774900378 [Eh]
	 Singles Energy            =      -0.0000000000000000 [Eh]
	 Same-Spin Energy          =      -0.5043239427921716 [Eh]
	 Opposite-Spin Energy      =      -1.6532573158121666 [Eh]
	 Correlation Energy        =      -2.1575812586043384 [Eh]
	 Total Energy              =    -823.8905793360943335 [Eh]

	 ================> DF-SCS-MP2 Energies <==================
	-----------------------------------------------------------
	 SCS Same-Spin Scale       =       0.3333333333333333 [-]
	 SCS Opposite-Spin Scale   =       1.2000000000000000 [-]
	 SCS Same-Spin Energy      =      -0.1681079809307239 [Eh]
	 SCS Opposite-Spin Energy  =      -1.9839087789745999 [Eh]
	 SCS Correlation Energy    =      -2.1520167599053237 [Eh]
	 SCS Total Energy          =    -823.8850148373953743 [Eh]
	-----------------------------------------------------------

  Dipole Moment: [D]
     X:    -0.2650      Y:     3.7932      Z:    -1.5455     Total:     4.1045

*** Psi4 exiting successfully. Buy a developer a beer!
