                               Psi4 1.4a3.dev225

  ==> Input File <==

--------------------------------------------------------------------------
#psi4
#
memory 32 gb

molecule  {
0 1
  S       -0.2573260    -0.3323280     0.1419150
  O       -0.2860210    -1.5224110    -0.7288200
  O       -0.1913230    -0.4820040     1.6079470
  C        1.1077430     0.7304620    -0.3526940
  C        2.4517113     0.2854181     0.2300854
  C       -1.7119910     0.6470300    -0.2467030
  C       -2.9773330    -0.1490110     0.0593080
  C        2.8936370    -1.0771870    -0.3692660
  C        3.4979800     1.3449170    -0.0414460
  C       -4.2305000     0.6643980    -0.2524990
  H        1.1201440     0.7512950    -1.4483370
  H        0.8637990     1.7314470     0.0219200
  H        2.3201640     0.1499000     1.2996700
  H       -1.6515560     0.9087510    -1.3087410
  H       -1.6583250     1.5603790     0.3547230
  H       -2.9641430    -1.0716000    -0.5283160
  H       -2.9644700    -0.4377180     1.1148610
  H        2.9999490    -1.0007780    -1.4570900
  H        2.1808400    -1.8761700    -0.1584720
  H        3.8652790    -1.3613920     0.0461660
  H        3.6372140     1.5009250    -1.1167480
  H        3.2107350     2.3002430     0.4092550
  H        4.4622490     1.0479330     0.3817310
  H       -4.2653590     1.5804770     0.3446860
  H       -4.2647910     0.9464390    -1.3091180
  H       -5.1305020     0.0846610    -0.0305780
units angstrom
no_reorient  #important for SAPT in psi4, default
symmetry c1  #important for SAPT in psi4, default
}

set PROPERTIES_ORIGIN ["COM"]
properties('MP2/aug-cc-pvtz', properties = ['dipole'])
--------------------------------------------------------------------------

    Molecular point group: c1
  Charge       = 0
  Multiplicity = 1
  Basis Set: AUG-CC-PVTZ
    Blend: AUG-CC-PVTZ
  Basis Set: (AUG-CC-PVTZ AUX)
    Blend: AUG-CC-PVTZ-JKFIT

    Orbital Energies [Eh]
    ---------------------

    Doubly Occupied:

       1A    -92.170451     2A    -20.535599     3A    -20.534780
       4A    -11.274941     5A    -11.273519     6A    -11.246138
       7A    -11.241513     8A    -11.229718     9A    -11.226390
      10A    -11.213432    11A     -9.140888    12A     -6.825272
      13A     -6.824880    14A     -6.824678    15A     -1.425896
      16A     -1.316669    17A     -1.115458    18A     -1.096090
      19A     -1.013387    20A     -0.960719    21A     -0.935966
      22A     -0.850873    23A     -0.805532    24A     -0.779850
      25A     -0.687936    26A     -0.675615    27A     -0.663431
      28A     -0.642667    29A     -0.619115    30A     -0.604502
      31A     -0.591618    32A     -0.581040    33A     -0.568272
      34A     -0.555397    35A     -0.539154    36A     -0.528186
      37A     -0.510770    38A     -0.504305    39A     -0.496182
      40A     -0.487773    41A     -0.478999    42A     -0.474601
      43A     -0.470429    44A     -0.456399    45A     -0.419179

  @DF-RHF Final Energy:  -821.78298801101755

   => Energetics <=

    Nuclear Repulsion Energy =            707.1616620614306612
    One-Electron Energy =               -2531.0528823169488533
    Two-Electron Energy =                1002.1082322445006412
    Total Energy =                       -821.7829880110175509
  Basis Set: (AUG-CC-PVTZ AUX)
    Blend: AUG-CC-PVTZ-RI
    Molecular point group: c1

    Geometry (in Angstrom), charge = 0, multiplicity = 1:

       Center              X                  Y                   Z               Mass
    ------------   -----------------  -----------------  -----------------  -----------------
         S           -0.246890411563    -0.292926864550     0.120527385615    31.972071174400
         O           -0.275585411563    -1.483009864550    -0.750207614385    15.994914619570
         O           -0.180887411563    -0.442602864550     1.586559385615    15.994914619570
         C            1.118178588437     0.769863135450    -0.374081614385    12.000000000000
         C            2.462146888437     0.324819235450     0.208697785615    12.000000000000
         C           -1.701555411563     0.686431135450    -0.268090614385    12.000000000000
         C           -2.966897411563    -0.109609864550     0.037920385615    12.000000000000
         C            2.904072588437    -1.037785864550    -0.390653614385    12.000000000000
         C            3.508415588437     1.384318135450    -0.062833614385    12.000000000000
         C           -4.220064411563     0.703799135450    -0.273886614385    12.000000000000
         H            1.130579588437     0.790696135450    -1.469724614385     1.007825032230
         H            0.874234588437     1.770848135450     0.000532385615     1.007825032230
         H            2.330599588437     0.189301135450     1.278282385615     1.007825032230
         H           -1.641120411563     0.948152135450    -1.330128614385     1.007825032230
         H           -1.647889411563     1.599780135450     0.333335385615     1.007825032230
         H           -2.953707411563    -1.032198864550    -0.549703614385     1.007825032230
         H           -2.954034411563    -0.398316864550     1.093473385615     1.007825032230
         H            3.010384588437    -0.961376864550    -1.478477614385     1.007825032230
         H            2.191275588437    -1.836768864550    -0.179859614385     1.007825032230
         H            3.875714588437    -1.321990864550     0.024778385615     1.007825032230
         H            3.647649588437     1.540326135450    -1.138135614385     1.007825032230
         H            3.221170588437     2.339644135450     0.387867385615     1.007825032230
         H            4.472684588437     1.087334135450     0.360343385615     1.007825032230
         H           -4.254923411563     1.619878135450     0.323298385615     1.007825032230
         H           -4.254355411563     0.985840135450    -1.330505614385     1.007825032230
         H           -5.120066411563     0.124062135450    -0.051965614385     1.007825032230

  Basis Set: AUG-CC-PVTZ
    Blend: AUG-CC-PVTZ
  Basis Set: (AUG-CC-PVTZ AUX)
    Blend: AUG-CC-PVTZ-JKFIT
	 Reference Energy          =    -821.7829880110175509 [Eh]
	 Singles Energy            =      -0.0000000000000000 [Eh]
	 Same-Spin Energy          =      -0.5009758077666064 [Eh]
	 Opposite-Spin Energy      =      -1.6488388340264697 [Eh]
	 Correlation Energy        =      -2.1498146417930761 [Eh]
	 Total Energy              =    -823.9328026528106648 [Eh]

	 ================> DF-SCS-MP2 Energies <==================
	-----------------------------------------------------------
	 SCS Same-Spin Scale       =       0.3333333333333333 [-]
	 SCS Opposite-Spin Scale   =       1.2000000000000000 [-]
	 SCS Same-Spin Energy      =      -0.1669919359222021 [Eh]
	 SCS Opposite-Spin Energy  =      -1.9786066008317635 [Eh]
	 SCS Correlation Energy    =      -2.1455985367539658 [Eh]
	 SCS Total Energy          =    -823.9285865477714879 [Eh]
	-----------------------------------------------------------

  Dipole Moment: [D]
     X:    -0.2107      Y:     3.8130      Z:    -1.5711     Total:     4.1293

*** Psi4 exiting successfully. Buy a developer a beer!
