                               Psi4 1.4a3.dev225

  ==> Input File <==

--------------------------------------------------------------------------
#psi4
#
memory 32 gb

molecule  {
0 1
  S       -0.2573260    -0.3323280     0.1419150
  O       -0.2860210    -1.5224110    -0.7288200
  O       -0.1913230    -0.4820040     1.6079470
  C        1.1077430     0.7304620    -0.3526940
  C        2.4495880     0.2623560     0.2167580
  C       -1.7119910     0.6470300    -0.2467030
  C       -2.9773330    -0.1490110     0.0593080
  C        2.8936370    -1.0771870    -0.3692660
  C        3.4979800     1.3449170    -0.0414460
  C       -4.2305000     0.6643980    -0.2524990
  H        1.1201440     0.7512950    -1.4483370
  H        0.9083032     1.5488311    -0.0464232
  H        2.3201640     0.1499000     1.2996700
  H       -1.6515560     0.9087510    -1.3087410
  H       -1.6583250     1.5603790     0.3547230
  H       -2.9641430    -1.0716000    -0.5283160
  H       -2.9644700    -0.4377180     1.1148610
  H        2.9999490    -1.0007780    -1.4570900
  H        2.1808400    -1.8761700    -0.1584720
  H        3.8652790    -1.3613920     0.0461660
  H        3.6372140     1.5009250    -1.1167480
  H        3.2107350     2.3002430     0.4092550
  H        4.4622490     1.0479330     0.3817310
  H       -4.2653590     1.5804770     0.3446860
  H       -4.2647910     0.9464390    -1.3091180
  H       -5.1305020     0.0846610    -0.0305780
units angstrom
no_reorient  #important for SAPT in psi4, default
symmetry c1  #important for SAPT in psi4, default
}

set PROPERTIES_ORIGIN ["COM"]
properties('MP2/aug-cc-pvtz', properties = ['dipole'])
--------------------------------------------------------------------------

    Molecular point group: c1
  Charge       = 0
  Multiplicity = 1
  Basis Set: AUG-CC-PVTZ
    Blend: AUG-CC-PVTZ
  Basis Set: (AUG-CC-PVTZ AUX)
    Blend: AUG-CC-PVTZ-JKFIT

    Orbital Energies [Eh]
    ---------------------

    Doubly Occupied:

       1A    -92.169568     2A    -20.535761     3A    -20.533820
       4A    -11.275353     5A    -11.250593     6A    -11.245619
       7A    -11.241861     8A    -11.229907     9A    -11.226969
      10A    -11.211710    11A     -9.140146    12A     -6.824520
      13A     -6.824129    14A     -6.823931    15A     -1.425690
      16A     -1.316355    17A     -1.124203    18A     -1.096591
      19A     -1.020484    20A     -0.968207    21A     -0.937903
      22A     -0.853253    23A     -0.805190    24A     -0.788257
      25A     -0.696371    26A     -0.682761    27A     -0.667471
      28A     -0.650079    29A     -0.621025    30A     -0.606543
      31A     -0.591984    32A     -0.583095    33A     -0.568507
      34A     -0.557085    35A     -0.539918    36A     -0.529172
      37A     -0.510344    38A     -0.504180    39A     -0.495869
      40A     -0.487687    41A     -0.482608    42A     -0.475596
      43A     -0.470852    44A     -0.456538    45A     -0.418103

  @DF-RHF Final Energy:  -821.75076543014711

   => Energetics <=

    Nuclear Repulsion Energy =            708.5385014308301379
    One-Electron Energy =               -2533.6469194342716946
    Two-Electron Energy =                1003.3576525732944447
    Total Energy =                       -821.7507654301471121
  Basis Set: (AUG-CC-PVTZ AUX)
    Blend: AUG-CC-PVTZ-RI
    Molecular point group: c1

    Geometry (in Angstrom), charge = 0, multiplicity = 1:

       Center              X                  Y                   Z               Mass
    ------------   -----------------  -----------------  -----------------  -----------------
         S           -0.247008475973    -0.290118660415     0.121921808372    31.972071174400
         O           -0.275703475973    -1.480201660415    -0.748813191628    15.994914619570
         O           -0.181005475973    -0.439794660415     1.587953808372    15.994914619570
         C            1.118060524027     0.772671339585    -0.372687191628    12.000000000000
         C            2.459905524027     0.304565339585     0.196764808372    12.000000000000
         C           -1.701673475973     0.689239339585    -0.266696191628    12.000000000000
         C           -2.967015475973    -0.106801660415     0.039314808372    12.000000000000
         C            2.903954524027    -1.034977660415    -0.389259191628    12.000000000000
         C            3.508297524027     1.387126339585    -0.061439191628    12.000000000000
         C           -4.220182475973     0.706607339585    -0.272492191628    12.000000000000
         H            1.130461524027     0.793504339585    -1.468330191628     1.007825032230
         H            0.918620724027     1.591040439585    -0.066416391628     1.007825032230
         H            2.330481524027     0.192109339585     1.279676808372     1.007825032230
         H           -1.641238475973     0.950960339585    -1.328734191628     1.007825032230
         H           -1.648007475973     1.602588339585     0.334729808372     1.007825032230
         H           -2.953825475973    -1.029390660415    -0.548309191628     1.007825032230
         H           -2.954152475973    -0.395508660415     1.094867808372     1.007825032230
         H            3.010266524027    -0.958568660415    -1.477083191628     1.007825032230
         H            2.191157524027    -1.833960660415    -0.178465191628     1.007825032230
         H            3.875596524027    -1.319182660415     0.026172808372     1.007825032230
         H            3.647531524027     1.543134339585    -1.136741191628     1.007825032230
         H            3.221052524027     2.342452339585     0.389261808372     1.007825032230
         H            4.472566524027     1.090142339585     0.361737808372     1.007825032230
         H           -4.255041475973     1.622686339585     0.324692808372     1.007825032230
         H           -4.254473475973     0.988648339585    -1.329111191628     1.007825032230
         H           -5.120184475973     0.126870339585    -0.050571191628     1.007825032230

  Basis Set: AUG-CC-PVTZ
    Blend: AUG-CC-PVTZ
  Basis Set: (AUG-CC-PVTZ AUX)
    Blend: AUG-CC-PVTZ-JKFIT
	 Reference Energy          =    -821.7507654301471121 [Eh]
	 Singles Energy            =      -0.0000000000000000 [Eh]
	 Same-Spin Energy          =      -0.5007746364457226 [Eh]
	 Opposite-Spin Energy      =      -1.6479755841732107 [Eh]
	 Correlation Energy        =      -2.1487502206189335 [Eh]
	 Total Energy              =    -823.8995156507660340 [Eh]

	 ================> DF-SCS-MP2 Energies <==================
	-----------------------------------------------------------
	 SCS Same-Spin Scale       =       0.3333333333333333 [-]
	 SCS Opposite-Spin Scale   =       1.2000000000000000 [-]
	 SCS Same-Spin Energy      =      -0.1669248788152409 [Eh]
	 SCS Opposite-Spin Energy  =      -1.9775707010078527 [Eh]
	 SCS Correlation Energy    =      -2.1444955798230936 [Eh]
	 SCS Total Energy          =    -823.8952610099702270 [Eh]
	-----------------------------------------------------------

  Dipole Moment: [D]
     X:    -0.2492      Y:     3.8400      Z:    -1.5739     Total:     4.1575

*** Psi4 exiting successfully. Buy a developer a beer!
