                               Psi4 1.4a3.dev225

  ==> Input File <==

--------------------------------------------------------------------------
#psi4
#
memory 32 gb

molecule  {
0 1
  S       -0.2573260    -0.3323280     0.1419150
  O       -0.2860210    -1.5224110    -0.7288200
  O       -0.1913230    -0.4820040     1.6079470
  C        1.1077430     0.7304620    -0.3526940
  C        2.4495880     0.2623560     0.2167580
  C       -1.7119910     0.6470300    -0.2467030
  C       -2.9773330    -0.1490110     0.0593080
  C        2.8936370    -1.0771870    -0.3692660
  C        3.4979800     1.3449170    -0.0414460
  C       -4.2305000     0.6643980    -0.2524990
  H        1.1201440     0.7512950    -1.4483370
  H        0.8637990     1.7314470     0.0219200
  H        2.3201640     0.1499000     1.2996700
  H       -1.6515560     0.9087510    -1.3087410
  H       -1.6593053     1.5436953     0.3437370
  H       -2.9641430    -1.0716000    -0.5283160
  H       -2.9644700    -0.4377180     1.1148610
  H        2.9999490    -1.0007780    -1.4570900
  H        2.1808400    -1.8761700    -0.1584720
  H        3.8652790    -1.3613920     0.0461660
  H        3.6372140     1.5009250    -1.1167480
  H        3.2107350     2.3002430     0.4092550
  H        4.4622490     1.0479330     0.3817310
  H       -4.2653590     1.5804770     0.3446860
  H       -4.2647910     0.9464390    -1.3091180
  H       -5.1305020     0.0846610    -0.0305780
units angstrom
no_reorient  #important for SAPT in psi4, default
symmetry c1  #important for SAPT in psi4, default
}

set PROPERTIES_ORIGIN ["COM"]
properties('MP2/aug-cc-pvtz', properties = ['dipole'])
--------------------------------------------------------------------------

    Molecular point group: c1
  Charge       = 0
  Multiplicity = 1
  Basis Set: AUG-CC-PVTZ
    Blend: AUG-CC-PVTZ
  Basis Set: (AUG-CC-PVTZ AUX)
    Blend: AUG-CC-PVTZ-JKFIT

    Orbital Energies [Eh]
    ---------------------

    Doubly Occupied:

       1A    -92.170054     2A    -20.535550     3A    -20.534611
       4A    -11.273749     5A    -11.272542     6A    -11.246617
       7A    -11.241278     8A    -11.229646     9A    -11.226840
      10A    -11.212910    11A     -9.140545    12A     -6.824931
      13A     -6.824524    14A     -6.824333    15A     -1.425800
      16A     -1.316561    17A     -1.115877    18A     -1.096735
      19A     -1.013548    20A     -0.961130    21A     -0.937756
      22A     -0.850617    23A     -0.806066    24A     -0.778931
      25A     -0.688126    26A     -0.676545    27A     -0.664195
      28A     -0.642742    29A     -0.619235    30A     -0.605177
      31A     -0.591969    32A     -0.581170    33A     -0.569373
      34A     -0.553825    35A     -0.539693    36A     -0.528557
      37A     -0.510199    38A     -0.503324    39A     -0.495816
      40A     -0.487242    41A     -0.482478    42A     -0.475338
      43A     -0.470382    44A     -0.456416    45A     -0.418208

  @DF-RHF Final Energy:  -821.78360751225591

   => Energetics <=

    Nuclear Repulsion Energy =            707.4246799441834810
    One-Electron Energy =               -2531.5742532203248629
    Two-Electron Energy =                1002.3659657638854696
    Total Energy =                       -821.7836075122559123
  Basis Set: (AUG-CC-PVTZ AUX)
    Blend: AUG-CC-PVTZ-RI
    Molecular point group: c1

    Geometry (in Angstrom), charge = 0, multiplicity = 1:

       Center              X                  Y                   Z               Mass
    ------------   -----------------  -----------------  -----------------  -----------------
         S           -0.246729109603    -0.291137818069     0.121569519730    31.972071174400
         O           -0.275424109603    -1.481220818069    -0.749165480270    15.994914619570
         O           -0.180726109603    -0.440813818069     1.587601519730    15.994914619570
         C            1.118339890397     0.771652181931    -0.373039480270    12.000000000000
         C            2.460184890397     0.303546181931     0.196412519730    12.000000000000
         C           -1.701394109603     0.688220181931    -0.267048480270    12.000000000000
         C           -2.966736109603    -0.107820818069     0.038962519730    12.000000000000
         C            2.904233890397    -1.035996818069    -0.389611480270    12.000000000000
         C            3.508576890397     1.386107181931    -0.061791480270    12.000000000000
         C           -4.219903109603     0.705588181931    -0.272844480270    12.000000000000
         H            1.130740890397     0.792485181931    -1.468682480270     1.007825032230
         H            0.874395890397     1.772637181931     0.001574519730     1.007825032230
         H            2.330760890397     0.191090181931     1.279324519730     1.007825032230
         H           -1.640959109603     0.949941181931    -1.329086480270     1.007825032230
         H           -1.648708409603     1.584885481931     0.323391519730     1.007825032230
         H           -2.953546109603    -1.030409818069    -0.548661480270     1.007825032230
         H           -2.953873109603    -0.396527818069     1.094515519730     1.007825032230
         H            3.010545890397    -0.959587818069    -1.477435480270     1.007825032230
         H            2.191436890397    -1.834979818069    -0.178817480270     1.007825032230
         H            3.875875890397    -1.320201818069     0.025820519730     1.007825032230
         H            3.647810890397     1.542115181931    -1.137093480270     1.007825032230
         H            3.221331890397     2.341433181931     0.388909519730     1.007825032230
         H            4.472845890397     1.089123181931     0.361385519730     1.007825032230
         H           -4.254762109603     1.621667181931     0.324340519730     1.007825032230
         H           -4.254194109603     0.987629181931    -1.329463480270     1.007825032230
         H           -5.119905109603     0.125851181931    -0.050923480270     1.007825032230

  Basis Set: AUG-CC-PVTZ
    Blend: AUG-CC-PVTZ
  Basis Set: (AUG-CC-PVTZ AUX)
    Blend: AUG-CC-PVTZ-JKFIT
	 Reference Energy          =    -821.7836075122559123 [Eh]
	 Singles Energy            =      -0.0000000000000000 [Eh]
	 Same-Spin Energy          =      -0.5010109506179840 [Eh]
	 Opposite-Spin Energy      =      -1.6487388379543750 [Eh]
	 Correlation Energy        =      -2.1497497885723589 [Eh]
	 Total Energy              =    -823.9333573008282201 [Eh]

	 ================> DF-SCS-MP2 Energies <==================
	-----------------------------------------------------------
	 SCS Same-Spin Scale       =       0.3333333333333333 [-]
	 SCS Opposite-Spin Scale   =       1.2000000000000000 [-]
	 SCS Same-Spin Energy      =      -0.1670036502059946 [Eh]
	 SCS Opposite-Spin Energy  =      -1.9784866055452499 [Eh]
	 SCS Correlation Energy    =      -2.1454902557512447 [Eh]
	 SCS Total Energy          =    -823.9290977680071819 [Eh]
	-----------------------------------------------------------

  Dipole Moment: [D]
     X:    -0.2009      Y:     3.8045      Z:    -1.5739     Total:     4.1221

*** Psi4 exiting successfully. Buy a developer a beer!
