                               Psi4 1.4a3.dev225

  ==> Input File <==

--------------------------------------------------------------------------
#psi4
#
memory 32 gb

molecule  {
0 1
  S       -0.2573260    -0.3323280     0.1419150
  O       -0.2860210    -1.5224110    -0.7288200
  O       -0.1913230    -0.4820040     1.6079470
  C        1.1077430     0.7304620    -0.3526940
  C        2.4716338     0.2736982     0.2069297
  C       -1.7119910     0.6470300    -0.2467030
  C       -2.9773330    -0.1490110     0.0593080
  C        2.8936370    -1.0771870    -0.3692660
  C        3.4979800     1.3449170    -0.0414460
  C       -4.2305000     0.6643980    -0.2524990
  H        1.1201440     0.7512950    -1.4483370
  H        0.8637990     1.7314470     0.0219200
  H        2.3201640     0.1499000     1.2996700
  H       -1.6515560     0.9087510    -1.3087410
  H       -1.6583250     1.5603790     0.3547230
  H       -2.9641430    -1.0716000    -0.5283160
  H       -2.9644700    -0.4377180     1.1148610
  H        2.9999490    -1.0007780    -1.4570900
  H        2.1808400    -1.8761700    -0.1584720
  H        3.8652790    -1.3613920     0.0461660
  H        3.6372140     1.5009250    -1.1167480
  H        3.2107350     2.3002430     0.4092550
  H        4.4622490     1.0479330     0.3817310
  H       -4.2653590     1.5804770     0.3446860
  H       -4.2647910     0.9464390    -1.3091180
  H       -5.1305020     0.0846610    -0.0305780
units angstrom
no_reorient  #important for SAPT in psi4, default
symmetry c1  #important for SAPT in psi4, default
}

set PROPERTIES_ORIGIN ["COM"]
properties('MP2/aug-cc-pvtz', properties = ['dipole'])
--------------------------------------------------------------------------

    Molecular point group: c1
  Charge       = 0
  Multiplicity = 1
  Basis Set: AUG-CC-PVTZ
    Blend: AUG-CC-PVTZ
  Basis Set: (AUG-CC-PVTZ AUX)
    Blend: AUG-CC-PVTZ-JKFIT

    Orbital Energies [Eh]
    ---------------------

    Doubly Occupied:

       1A    -92.170419     2A    -20.535333     3A    -20.534669
       4A    -11.274912     5A    -11.273456     6A    -11.247386
       7A    -11.241491     8A    -11.229693     9A    -11.226200
      10A    -11.213024    11A     -9.140819    12A     -6.825200
      13A     -6.824821    14A     -6.824613    15A     -1.425691
      16A     -1.316482    17A     -1.115866    18A     -1.096339
      19A     -1.014409    20A     -0.960812    21A     -0.939484
      22A     -0.850178    23A     -0.804333    24A     -0.776902
      25A     -0.687688    26A     -0.675581    27A     -0.663023
      28A     -0.642838    29A     -0.619261    30A     -0.606587
      31A     -0.591635    32A     -0.581613    33A     -0.568210
      34A     -0.555187    35A     -0.539735    36A     -0.528642
      37A     -0.510505    38A     -0.505365    39A     -0.496027
      40A     -0.484498    41A     -0.480873    42A     -0.473807
      43A     -0.470263    44A     -0.456145    45A     -0.419257

  @DF-RHF Final Energy:  -821.78266004716249

   => Energetics <=

    Nuclear Repulsion Energy =            707.0944016681644371
    One-Electron Energy =               -2530.9155779201960286
    Two-Electron Energy =                1002.0385162048690972
    Total Energy =                       -821.7826600471624943
  Basis Set: (AUG-CC-PVTZ AUX)
    Blend: AUG-CC-PVTZ-RI
    Molecular point group: c1

    Geometry (in Angstrom), charge = 0, multiplicity = 1:

       Center              X                  Y                   Z               Mass
    ------------   -----------------  -----------------  -----------------  -----------------
         S           -0.248347381664    -0.292069766099     0.122220805746    31.972071174400
         O           -0.277042381664    -1.482152766099    -0.748514194254    15.994914619570
         O           -0.182344381664    -0.441745766099     1.588252805746    15.994914619570
         C            1.116721618336     0.770720233901    -0.372388194254    12.000000000000
         C            2.480612418336     0.313956433901     0.187235505746    12.000000000000
         C           -1.703012381664     0.687288233901    -0.266397194254    12.000000000000
         C           -2.968354381664    -0.108752766099     0.039613805746    12.000000000000
         C            2.902615618336    -1.036928766099    -0.388960194254    12.000000000000
         C            3.506958618336     1.385175233901    -0.061140194254    12.000000000000
         C           -4.221521381664     0.704656233901    -0.272193194254    12.000000000000
         H            1.129122618336     0.791553233901    -1.468031194254     1.007825032230
         H            0.872777618336     1.771705233901     0.002225805746     1.007825032230
         H            2.329142618336     0.190158233901     1.279975805746     1.007825032230
         H           -1.642577381664     0.949009233901    -1.328435194254     1.007825032230
         H           -1.649346381664     1.600637233901     0.335028805746     1.007825032230
         H           -2.955164381664    -1.031341766099    -0.548010194254     1.007825032230
         H           -2.955491381664    -0.397459766099     1.095166805746     1.007825032230
         H            3.008927618336    -0.960519766099    -1.476784194254     1.007825032230
         H            2.189818618336    -1.835911766099    -0.178166194254     1.007825032230
         H            3.874257618336    -1.321133766099     0.026471805746     1.007825032230
         H            3.646192618336     1.541183233901    -1.136442194254     1.007825032230
         H            3.219713618336     2.340501233901     0.389560805746     1.007825032230
         H            4.471227618336     1.088191233901     0.362036805746     1.007825032230
         H           -4.256380381664     1.620735233901     0.324991805746     1.007825032230
         H           -4.255812381664     0.986697233901    -1.328812194254     1.007825032230
         H           -5.121523381664     0.124919233901    -0.050272194254     1.007825032230

  Basis Set: AUG-CC-PVTZ
    Blend: AUG-CC-PVTZ
  Basis Set: (AUG-CC-PVTZ AUX)
    Blend: AUG-CC-PVTZ-JKFIT
	 Reference Energy          =    -821.7826600471624943 [Eh]
	 Singles Energy            =      -0.0000000000000000 [Eh]
	 Same-Spin Energy          =      -0.5011150234231350 [Eh]
	 Opposite-Spin Energy      =      -1.6489651620921619 [Eh]
	 Correlation Energy        =      -2.1500801855152969 [Eh]
	 Total Energy              =    -823.9327402326778156 [Eh]

	 ================> DF-SCS-MP2 Energies <==================
	-----------------------------------------------------------
	 SCS Same-Spin Scale       =       0.3333333333333333 [-]
	 SCS Opposite-Spin Scale   =       1.2000000000000000 [-]
	 SCS Same-Spin Energy      =      -0.1670383411410450 [Eh]
	 SCS Opposite-Spin Energy  =      -1.9787581945105943 [Eh]
	 SCS Correlation Energy    =      -2.1457965356516393 [Eh]
	 SCS Total Energy          =    -823.9284565828140785 [Eh]
	-----------------------------------------------------------

  Dipole Moment: [D]
     X:    -0.1973      Y:     3.8055      Z:    -1.5743     Total:     4.1230

*** Psi4 exiting successfully. Buy a developer a beer!
