                               Psi4 1.4a3.dev225

  ==> Input File <==

--------------------------------------------------------------------------
#psi4
#
memory 32 gb

molecule  {
0 1
  S       -0.2573260    -0.3323280     0.1419150
  O       -0.2860210    -1.5224110    -0.7288200
  O       -0.1913230    -0.4820040     1.6079470
  C        1.1077430     0.7304620    -0.3526940
  C        2.4495880     0.2623560     0.2167580
  C       -1.7119910     0.6470300    -0.2467030
  C       -2.9773330    -0.1490110     0.0593080
  C        2.8936370    -1.0771870    -0.3692660
  C        3.4979800     1.3449170    -0.0414460
  C       -4.2305000     0.6643980    -0.2524990
  H        1.1201440     0.7512950    -1.4483370
  H        0.8637990     1.7314470     0.0219200
  H        2.3201640     0.1499000     1.2996700
  H       -1.6515560     0.9087510    -1.3087410
  H       -1.6583250     1.5603790     0.3547230
  H       -2.9641430    -1.0716000    -0.5283160
  H       -2.9644700    -0.4377180     1.1148610
  H        3.0096519    -0.9938043    -1.5563735
  H        2.1808400    -1.8761700    -0.1584720
  H        3.8652790    -1.3613920     0.0461660
  H        3.6372140     1.5009250    -1.1167480
  H        3.2107350     2.3002430     0.4092550
  H        4.4622490     1.0479330     0.3817310
  H       -4.2653590     1.5804770     0.3446860
  H       -4.2647910     0.9464390    -1.3091180
  H       -5.1305020     0.0846610    -0.0305780
units angstrom
no_reorient  #important for SAPT in psi4, default
symmetry c1  #important for SAPT in psi4, default
}

set PROPERTIES_ORIGIN ["COM"]
properties('MP2/aug-cc-pvtz', properties = ['dipole'])
--------------------------------------------------------------------------

    Molecular point group: c1
  Charge       = 0
  Multiplicity = 1
  Basis Set: AUG-CC-PVTZ
    Blend: AUG-CC-PVTZ
  Basis Set: (AUG-CC-PVTZ AUX)
    Blend: AUG-CC-PVTZ-JKFIT

    Orbital Energies [Eh]
    ---------------------

    Doubly Occupied:

       1A    -92.170318     2A    -20.535786     3A    -20.534871
       4A    -11.274901     5A    -11.273889     6A    -11.248004
       7A    -11.241519     8A    -11.229715     9A    -11.227025
      10A    -11.225177    11A     -9.140803    12A     -6.825191
      13A     -6.824782    14A     -6.824590    15A     -1.426038
      16A     -1.316797    17A     -1.115620    18A     -1.096096
      19A     -1.013078    20A     -0.960374    21A     -0.933196
      22A     -0.850302    23A     -0.804357    24A     -0.776683
      25A     -0.687801    26A     -0.675965    27A     -0.663657
      28A     -0.642838    29A     -0.619158    30A     -0.605761
      31A     -0.591500    32A     -0.578911    33A     -0.568276
      34A     -0.552226    35A     -0.530906    36A     -0.528977
      37A     -0.510564    38A     -0.503251    39A     -0.495866
      40A     -0.487209    41A     -0.481433    42A     -0.473852
      43A     -0.469057    44A     -0.456516    45A     -0.418497

  @DF-RHF Final Energy:  -821.77720039064445

   => Energetics <=

    Nuclear Repulsion Energy =            706.8819181183275759
    One-Electron Energy =               -2530.4955708655065791
    Two-Electron Energy =                1001.8364523565345507
    Total Energy =                       -821.7772003906444525
  Basis Set: (AUG-CC-PVTZ AUX)
    Blend: AUG-CC-PVTZ-RI
    Molecular point group: c1

    Geometry (in Angstrom), charge = 0, multiplicity = 1:

       Center              X                  Y                   Z               Mass
    ------------   -----------------  -----------------  -----------------  -----------------
         S           -0.246794725952    -0.291283122116     0.122111844083    31.972071174400
         O           -0.275489725952    -1.481366122116    -0.748623155917    15.994914619570
         O           -0.180791725952    -0.440959122116     1.588143844083    15.994914619570
         C            1.118274274048     0.771506877884    -0.372497155917    12.000000000000
         C            2.460119274048     0.303400877884     0.196954844083    12.000000000000
         C           -1.701459725952     0.688074877884    -0.266506155917    12.000000000000
         C           -2.966801725952    -0.107966122116     0.039504844083    12.000000000000
         C            2.904168274048    -1.036142122116    -0.389069155917    12.000000000000
         C            3.508511274048     1.385961877884    -0.061249155917    12.000000000000
         C           -4.219968725952     0.705442877884    -0.272302155917    12.000000000000
         H            1.130675274048     0.792339877884    -1.468140155917     1.007825032230
         H            0.874330274048     1.772491877884     0.002116844083     1.007825032230
         H            2.330695274048     0.190944877884     1.279866844083     1.007825032230
         H           -1.641024725952     0.949795877884    -1.328544155917     1.007825032230
         H           -1.647793725952     1.601423877884     0.334919844083     1.007825032230
         H           -2.953611725952    -1.030555122116    -0.548119155917     1.007825032230
         H           -2.953938725952    -0.396673122116     1.095057844083     1.007825032230
         H            3.020183174048    -0.952759422116    -1.576176655917     1.007825032230
         H            2.191371274048    -1.835125122116    -0.178275155917     1.007825032230
         H            3.875810274048    -1.320347122116     0.026362844083     1.007825032230
         H            3.647745274048     1.541969877884    -1.136551155917     1.007825032230
         H            3.221266274048     2.341287877884     0.389451844083     1.007825032230
         H            4.472780274048     1.088977877884     0.361927844083     1.007825032230
         H           -4.254827725952     1.621521877884     0.324882844083     1.007825032230
         H           -4.254259725952     0.987483877884    -1.328921155917     1.007825032230
         H           -5.119970725952     0.125705877884    -0.050381155917     1.007825032230

  Basis Set: AUG-CC-PVTZ
    Blend: AUG-CC-PVTZ
  Basis Set: (AUG-CC-PVTZ AUX)
    Blend: AUG-CC-PVTZ-JKFIT
	 Reference Energy          =    -821.7772003906444525 [Eh]
	 Singles Energy            =      -0.0000000000000000 [Eh]
	 Same-Spin Energy          =      -0.5010377643220902 [Eh]
	 Opposite-Spin Energy      =      -1.6495715229652803 [Eh]
	 Correlation Energy        =      -2.1506092872873706 [Eh]
	 Total Energy              =    -823.9278096779318048 [Eh]

	 ================> DF-SCS-MP2 Energies <==================
	-----------------------------------------------------------
	 SCS Same-Spin Scale       =       0.3333333333333333 [-]
	 SCS Opposite-Spin Scale   =       1.2000000000000000 [-]
	 SCS Same-Spin Energy      =      -0.1670125881073634 [Eh]
	 SCS Opposite-Spin Energy  =      -1.9794858275583362 [Eh]
	 SCS Correlation Energy    =      -2.1464984156656994 [Eh]
	 SCS Total Energy          =    -823.9236988063101990 [Eh]
	-----------------------------------------------------------

  Dipole Moment: [D]
     X:    -0.2192      Y:     3.8055      Z:    -1.5106     Total:     4.1002

*** Psi4 exiting successfully. Buy a developer a beer!
