                               Psi4 1.4a3.dev225

  ==> Input File <==

--------------------------------------------------------------------------
#psi4
#
memory 32 gb

molecule  {
0 1
  S       -0.2573260    -0.3323280     0.1419150
  O       -0.2860210    -1.5224110    -0.7288200
  O       -0.1913230    -0.4820040     1.6079470
  C        1.1077430     0.7304620    -0.3526940
  C        2.4495880     0.2623560     0.2167580
  C       -1.7119910     0.6470300    -0.2467030
  C       -2.9773330    -0.1490110     0.0593080
  C        2.8936370    -1.0771870    -0.3692660
  C        3.4979800     1.3449170    -0.0414460
  C       -4.2305000     0.6643980    -0.2524990
  H        1.1201440     0.7512950    -1.4483370
  H        0.8637990     1.7314470     0.0219200
  H        2.3201640     0.1499000     1.2996700
  H       -1.6515560     0.9087510    -1.3087410
  H       -1.6583250     1.5603790     0.3547230
  H       -2.9641430    -1.0716000    -0.5283160
  H       -2.9644700    -0.4377180     1.1148610
  H        2.9999490    -1.0007780    -1.4570900
  H        2.1808400    -1.8761700    -0.1584720
  H        3.8652790    -1.3613920     0.0461660
  H        3.6372140     1.5009250    -1.1167480
  H        3.2107350     2.3002430     0.4092550
  H        4.4622490     1.0479330     0.3817310
  H       -4.1650747     1.6082925     0.2968902
  H       -4.2647910     0.9464390    -1.3091180
  H       -5.1305020     0.0846610    -0.0305780
units angstrom
no_reorient  #important for SAPT in psi4, default
symmetry c1  #important for SAPT in psi4, default
}

set PROPERTIES_ORIGIN ["COM"]
properties('MP2/aug-cc-pvtz', properties = ['dipole'])
--------------------------------------------------------------------------

    Molecular point group: c1
  Charge       = 0
  Multiplicity = 1
  Basis Set: AUG-CC-PVTZ
    Blend: AUG-CC-PVTZ
  Basis Set: (AUG-CC-PVTZ AUX)
    Blend: AUG-CC-PVTZ-JKFIT

    Orbital Energies [Eh]
    ---------------------

    Doubly Occupied:

       1A    -92.170275     2A    -20.535572     3A    -20.534754
       4A    -11.274965     5A    -11.273795     6A    -11.246655
       7A    -11.240674     8A    -11.229989     9A    -11.226876
      10A    -11.212943    11A     -9.140740    12A     -6.825131
      13A     -6.824722    14A     -6.824528    15A     -1.425872
      16A     -1.316630    17A     -1.115846    18A     -1.096564
      19A     -1.013668    20A     -0.960498    21A     -0.937786
      22A     -0.849837    23A     -0.805114    24A     -0.778820
      25A     -0.687712    26A     -0.675613    27A     -0.664277
      28A     -0.642404    29A     -0.619660    30A     -0.605033
      31A     -0.596140    32A     -0.581657    33A     -0.565356
      34A     -0.553563    35A     -0.539479    36A     -0.527542
      37A     -0.512633    38A     -0.503742    39A     -0.492719
      40A     -0.487366    41A     -0.482351    42A     -0.475405
      43A     -0.470052    44A     -0.456394    45A     -0.418426

  @DF-RHF Final Energy:  -821.78217005212105

   => Energetics <=

    Nuclear Repulsion Energy =            707.4887480497782235
    One-Electron Energy =               -2531.7022797991276093
    Two-Electron Energy =                1002.4313616972283398
    Total Energy =                       -821.7821700521210460
  Basis Set: (AUG-CC-PVTZ AUX)
    Blend: AUG-CC-PVTZ-RI
    Molecular point group: c1

    Geometry (in Angstrom), charge = 0, multiplicity = 1:

       Center              X                  Y                   Z               Mass
    ------------   -----------------  -----------------  -----------------  -----------------
         S           -0.247351078047    -0.291411132713     0.121795605984    31.972071174400
         O           -0.276046078047    -1.481494132713    -0.748939394016    15.994914619570
         O           -0.181348078047    -0.441087132713     1.587827605984    15.994914619570
         C            1.117717921953     0.771378867287    -0.372813394016    12.000000000000
         C            2.459562921953     0.303272867287     0.196638605984    12.000000000000
         C           -1.702016078047     0.687946867287    -0.266822394016    12.000000000000
         C           -2.967358078047    -0.108094132713     0.039188605984    12.000000000000
         C            2.903611921953    -1.036270132713    -0.389385394016    12.000000000000
         C            3.507954921953     1.385833867287    -0.061565394016    12.000000000000
         C           -4.220525078047     0.705314867287    -0.272618394016    12.000000000000
         H            1.130118921953     0.792211867287    -1.468456394016     1.007825032230
         H            0.873773921953     1.772363867287     0.001800605984     1.007825032230
         H            2.330138921953     0.190816867287     1.279550605984     1.007825032230
         H           -1.641581078047     0.949667867287    -1.328860394016     1.007825032230
         H           -1.648350078047     1.601295867287     0.334603605984     1.007825032230
         H           -2.954168078047    -1.030683132713    -0.548435394016     1.007825032230
         H           -2.954495078047    -0.396801132713     1.094741605984     1.007825032230
         H            3.009923921953    -0.959861132713    -1.477209394016     1.007825032230
         H            2.190814921953    -1.835253132713    -0.178591394016     1.007825032230
         H            3.875253921953    -1.320475132713     0.026046605984     1.007825032230
         H            3.647188921953     1.541841867287    -1.136867394016     1.007825032230
         H            3.220709921953     2.341159867287     0.389135605984     1.007825032230
         H            4.472223921953     1.088849867287     0.361611605984     1.007825032230
         H           -4.155099778047     1.649209367287     0.276770805984     1.007825032230
         H           -4.254816078047     0.987355867287    -1.329237394016     1.007825032230
         H           -5.120527078047     0.125577867287    -0.050697394016     1.007825032230

  Basis Set: AUG-CC-PVTZ
    Blend: AUG-CC-PVTZ
  Basis Set: (AUG-CC-PVTZ AUX)
    Blend: AUG-CC-PVTZ-JKFIT
	 Reference Energy          =    -821.7821700521210460 [Eh]
	 Singles Energy            =      -0.0000000000000000 [Eh]
	 Same-Spin Energy          =      -0.5011447656483097 [Eh]
	 Opposite-Spin Energy      =      -1.6490655852040017 [Eh]
	 Correlation Energy        =      -2.1502103508523112 [Eh]
	 Total Energy              =    -823.9323804029733083 [Eh]

	 ================> DF-SCS-MP2 Energies <==================
	-----------------------------------------------------------
	 SCS Same-Spin Scale       =       0.3333333333333333 [-]
	 SCS Opposite-Spin Scale   =       1.2000000000000000 [-]
	 SCS Same-Spin Energy      =      -0.1670482552161032 [Eh]
	 SCS Opposite-Spin Energy  =      -1.9788787022448020 [Eh]
	 SCS Correlation Energy    =      -2.1459269574609050 [Eh]
	 SCS Total Energy          =    -823.9280970095819612 [Eh]
	-----------------------------------------------------------

  Dipole Moment: [D]
     X:    -0.1782      Y:     3.7935      Z:    -1.5991     Total:     4.1206

*** Psi4 exiting successfully. Buy a developer a beer!
