                               Psi4 1.4a3.dev225

  ==> Input File <==

--------------------------------------------------------------------------
#psi4
#
memory 32 gb

molecule  {
0 1
  S       -0.2573260    -0.3323280     0.1419150
  O       -0.2850482    -1.4820662    -0.6993014
  O       -0.1913230    -0.4820040     1.6079470
  C        1.1077430     0.7304620    -0.3526940
  C        2.4495880     0.2623560     0.2167580
  C       -1.7119910     0.6470300    -0.2467030
  C       -2.9773330    -0.1490110     0.0593080
  C        2.8936370    -1.0771870    -0.3692660
  C        3.4979800     1.3449170    -0.0414460
  C       -4.2305000     0.6643980    -0.2524990
  H        1.1201440     0.7512950    -1.4483370
  H        0.8637990     1.7314470     0.0219200
  H        2.3201640     0.1499000     1.2996700
  H       -1.6515560     0.9087510    -1.3087410
  H       -1.6583250     1.5603790     0.3547230
  H       -2.9641430    -1.0716000    -0.5283160
  H       -2.9644700    -0.4377180     1.1148610
  H        2.9999490    -1.0007780    -1.4570900
  H        2.1808400    -1.8761700    -0.1584720
  H        3.8652790    -1.3613920     0.0461660
  H        3.6372140     1.5009250    -1.1167480
  H        3.2107350     2.3002430     0.4092550
  H        4.4622490     1.0479330     0.3817310
  H       -4.2653590     1.5804770     0.3446860
  H       -4.2647910     0.9464390    -1.3091180
  H       -5.1305020     0.0846610    -0.0305780
units angstrom
no_reorient  #important for SAPT in psi4, default
symmetry c1  #important for SAPT in psi4, default
}

set PROPERTIES_ORIGIN ["COM"]
properties('MP2/aug-cc-pvtz', properties = ['dipole'])
--------------------------------------------------------------------------

    Molecular point group: c1
  Charge       = 0
  Multiplicity = 1
  Basis Set: AUG-CC-PVTZ
    Blend: AUG-CC-PVTZ
  Basis Set: (AUG-CC-PVTZ AUX)
    Blend: AUG-CC-PVTZ-JKFIT

    Orbital Energies [Eh]
    ---------------------

    Doubly Occupied:

       1A    -92.166009     2A    -20.535944     3A    -20.531630
       4A    -11.271382     5A    -11.270404     6A    -11.245560
       7A    -11.240672     8A    -11.228963     9A    -11.225973
      10A    -11.213141    11A     -9.137269    12A     -6.821595
      13A     -6.821565    14A     -6.821093    15A     -1.444836
      16A     -1.326658    17A     -1.114275    18A     -1.094682
      19A     -1.011262    20A     -0.959388    21A     -0.937449
      22A     -0.849006    23A     -0.802881    24A     -0.777261
      25A     -0.691528    26A     -0.674978    27A     -0.665479
      28A     -0.645331    29A     -0.623253    30A     -0.604971
      31A     -0.591532    32A     -0.581903    33A     -0.568382
      34A     -0.553944    35A     -0.539491    36A     -0.529383
      37A     -0.510635    38A     -0.505402    39A     -0.495130
      40A     -0.486555    41A     -0.483296    42A     -0.476737
      43A     -0.471778    44A     -0.459850    45A     -0.417017

  @DF-RHF Final Energy:  -821.78608059076839

   => Energetics <=

    Nuclear Repulsion Energy =            709.7546346196606919
    One-Electron Energy =               -2536.2304791838701021
    Two-Electron Energy =                1004.6897639734410177
    Total Energy =                       -821.7860805907683925
  Basis Set: (AUG-CC-PVTZ AUX)
    Blend: AUG-CC-PVTZ-RI
    Molecular point group: c1

    Geometry (in Angstrom), charge = 0, multiplicity = 1:

       Center              X                  Y                   Z               Mass
    ------------   -----------------  -----------------  -----------------  -----------------
         S           -0.246829957408    -0.295173027894     0.118624623698    31.972071174400
         O           -0.274552157408    -1.444911227894    -0.722591776302    15.994914619570
         O           -0.180826957408    -0.444849027894     1.584656623698    15.994914619570
         C            1.118239042592     0.767616972106    -0.375984376302    12.000000000000
         C            2.460084042592     0.299510972106     0.193467623698    12.000000000000
         C           -1.701494957408     0.684184972106    -0.269993376302    12.000000000000
         C           -2.966836957408    -0.111856027894     0.036017623698    12.000000000000
         C            2.904133042592    -1.040032027894    -0.392556376302    12.000000000000
         C            3.508476042592     1.382071972106    -0.064736376302    12.000000000000
         C           -4.220003957408     0.701552972106    -0.275789376302    12.000000000000
         H            1.130640042592     0.788449972106    -1.471627376302     1.007825032230
         H            0.874295042592     1.768601972106    -0.001370376302     1.007825032230
         H            2.330660042592     0.187054972106     1.276379623698     1.007825032230
         H           -1.641059957408     0.945905972106    -1.332031376302     1.007825032230
         H           -1.647828957408     1.597533972106     0.331432623698     1.007825032230
         H           -2.953646957408    -1.034445027894    -0.551606376302     1.007825032230
         H           -2.953973957408    -0.400563027894     1.091570623698     1.007825032230
         H            3.010445042592    -0.963623027894    -1.480380376302     1.007825032230
         H            2.191336042592    -1.839015027894    -0.181762376302     1.007825032230
         H            3.875775042592    -1.324237027894     0.022875623698     1.007825032230
         H            3.647710042592     1.538079972106    -1.140038376302     1.007825032230
         H            3.221231042592     2.337397972106     0.385964623698     1.007825032230
         H            4.472745042592     1.085087972106     0.358440623698     1.007825032230
         H           -4.254862957408     1.617631972106     0.321395623698     1.007825032230
         H           -4.254294957408     0.983593972106    -1.332408376302     1.007825032230
         H           -5.120005957408     0.121815972106    -0.053868376302     1.007825032230

  Basis Set: AUG-CC-PVTZ
    Blend: AUG-CC-PVTZ
  Basis Set: (AUG-CC-PVTZ AUX)
    Blend: AUG-CC-PVTZ-JKFIT
	 Reference Energy          =    -821.7860805907683925 [Eh]
	 Singles Energy            =      -0.0000000000000000 [Eh]
	 Same-Spin Energy          =      -0.5000232238870461 [Eh]
	 Opposite-Spin Energy      =      -1.6463709016777337 [Eh]
	 Correlation Energy        =      -2.1463941255647798 [Eh]
	 Total Energy              =    -823.9324747163332177 [Eh]

	 ================> DF-SCS-MP2 Energies <==================
	-----------------------------------------------------------
	 SCS Same-Spin Scale       =       0.3333333333333333 [-]
	 SCS Opposite-Spin Scale   =       1.2000000000000000 [-]
	 SCS Same-Spin Energy      =      -0.1666744079623487 [Eh]
	 SCS Opposite-Spin Energy  =      -1.9756450820132803 [Eh]
	 SCS Correlation Energy    =      -2.1423194899756290 [Eh]
	 SCS Total Energy          =    -823.9284000807440407 [Eh]
	-----------------------------------------------------------

  Dipole Moment: [D]
     X:    -0.2056      Y:     3.5733      Z:    -1.7117     Total:     3.9675

*** Psi4 exiting successfully. Buy a developer a beer!
