                               Psi4 1.4a3.dev225

  ==> Input File <==

--------------------------------------------------------------------------
#psi4
#
memory 32 gb

molecule  {
0 1
  S       -0.2573260    -0.3323280     0.1419150
  O       -0.2860210    -1.5224110    -0.7288200
  O       -0.1913230    -0.4820040     1.6079470
  C        1.1077430     0.7304620    -0.3526940
  C        2.4495880     0.2623560     0.2167580
  C       -1.7119910     0.6470300    -0.2467030
  C       -2.9773330    -0.1490110     0.0593080
  C        2.8936370    -1.0771870    -0.3692660
  C        3.4979800     1.3449170    -0.0414460
  C       -4.2305000     0.6643980    -0.2524990
  H        1.1201440     0.7512950    -1.4483370
  H        0.8637990     1.7314470     0.0219200
  H        2.3201640     0.1499000     1.2996700
  H       -1.6515560     0.9087510    -1.3087410
  H       -1.6583250     1.5603790     0.3547230
  H       -2.9641430    -1.0716000    -0.5283160
  H       -2.9644700    -0.4377180     1.1148610
  H        2.9999490    -1.0007780    -1.4570900
  H        2.0502047    -2.0226007    -0.1198395
  H        3.8652790    -1.3613920     0.0461660
  H        3.6372140     1.5009250    -1.1167480
  H        3.2107350     2.3002430     0.4092550
  H        4.4622490     1.0479330     0.3817310
  H       -4.2653590     1.5804770     0.3446860
  H       -4.2647910     0.9464390    -1.3091180
  H       -5.1305020     0.0846610    -0.0305780
units angstrom
no_reorient  #important for SAPT in psi4, default
symmetry c1  #important for SAPT in psi4, default
}

set PROPERTIES_ORIGIN ["COM"]
properties('MP2/aug-cc-pvtz', properties = ['dipole'])
--------------------------------------------------------------------------

    Molecular point group: c1
  Charge       = 0
  Multiplicity = 1
  Basis Set: AUG-CC-PVTZ
    Blend: AUG-CC-PVTZ
  Basis Set: (AUG-CC-PVTZ AUX)
    Blend: AUG-CC-PVTZ-JKFIT

    Orbital Energies [Eh]
    ---------------------

    Doubly Occupied:

       1A    -92.169953     2A    -20.535146     3A    -20.533923
       4A    -11.274671     5A    -11.273984     6A    -11.248322
       7A    -11.241303     8A    -11.233174     9A    -11.229565
      10A    -11.228405    11A     -9.140411    12A     -6.824802
      13A     -6.824394    14A     -6.824197    15A     -1.425445
      16A     -1.316193    17A     -1.115515    18A     -1.095872
      19A     -1.012967    20A     -0.960501    21A     -0.927946
      22A     -0.850010    23A     -0.804023    24A     -0.777108
      25A     -0.687356    26A     -0.675402    27A     -0.663597
      28A     -0.641470    29A     -0.619185    30A     -0.598714
      31A     -0.591148    32A     -0.575927    33A     -0.568035
      34A     -0.552441    35A     -0.540947    36A     -0.525829
      37A     -0.509758    38A     -0.499167    39A     -0.493736
      40A     -0.486418    41A     -0.480683    42A     -0.473407
      43A     -0.460495    44A     -0.455908    45A     -0.414845

  @DF-RHF Final Energy:  -821.76253534960517

   => Energetics <=

    Nuclear Repulsion Energy =            706.7319679008114690
    One-Electron Energy =               -2530.2244072982325633
    Two-Electron Energy =                1001.7299040478159213
    Total Energy =                       -821.7625353496051730
  Basis Set: (AUG-CC-PVTZ AUX)
    Blend: AUG-CC-PVTZ-RI
    Molecular point group: c1

    Geometry (in Angstrom), charge = 0, multiplicity = 1:

       Center              X                  Y                   Z               Mass
    ------------   -----------------  -----------------  -----------------  -----------------
         S           -0.245932766967    -0.290340910367     0.121264762281    31.972071174400
         O           -0.274627766967    -1.480423910367    -0.749470237719    15.994914619570
         O           -0.179929766967    -0.440016910367     1.587296762281    15.994914619570
         C            1.119136233033     0.772449089633    -0.373344237719    12.000000000000
         C            2.460981233033     0.304343089633     0.196107762281    12.000000000000
         C           -1.700597766967     0.689017089633    -0.267353237719    12.000000000000
         C           -2.965939766967    -0.107023910367     0.038657762281    12.000000000000
         C            2.905030233033    -1.035199910367    -0.389916237719    12.000000000000
         C            3.509373233033     1.386904089633    -0.062096237719    12.000000000000
         C           -4.219106766967     0.706385089633    -0.273149237719    12.000000000000
         H            1.131537233033     0.793282089633    -1.468987237719     1.007825032230
         H            0.875192233033     1.773434089633     0.001269762281     1.007825032230
         H            2.331557233033     0.191887089633     1.279019762281     1.007825032230
         H           -1.640162766967     0.950738089633    -1.329391237719     1.007825032230
         H           -1.646931766967     1.602366089633     0.334072762281     1.007825032230
         H           -2.952749766967    -1.029612910367    -0.548966237719     1.007825032230
         H           -2.953076766967    -0.395730910367     1.094210762281     1.007825032230
         H            3.011342233033    -0.958790910367    -1.477740237719     1.007825032230
         H            2.061597933033    -1.980613610367    -0.140489737719     1.007825032230
         H            3.876672233033    -1.319404910367     0.025515762281     1.007825032230
         H            3.648607233033     1.542912089633    -1.137398237719     1.007825032230
         H            3.222128233033     2.342230089633     0.388604762281     1.007825032230
         H            4.473642233033     1.089920089633     0.361080762281     1.007825032230
         H           -4.253965766967     1.622464089633     0.324035762281     1.007825032230
         H           -4.253397766967     0.988426089633    -1.329768237719     1.007825032230
         H           -5.119108766967     0.126648089633    -0.051228237719     1.007825032230

  Basis Set: AUG-CC-PVTZ
    Blend: AUG-CC-PVTZ
  Basis Set: (AUG-CC-PVTZ AUX)
    Blend: AUG-CC-PVTZ-JKFIT
	 Reference Energy          =    -821.7625353496051730 [Eh]
	 Singles Energy            =      -0.0000000000000000 [Eh]
	 Same-Spin Energy          =      -0.5014289163526631 [Eh]
	 Opposite-Spin Energy      =      -1.6508792171372906 [Eh]
	 Correlation Energy        =      -2.1523081334899539 [Eh]
	 Total Energy              =    -823.9148434830951828 [Eh]

	 ================> DF-SCS-MP2 Energies <==================
	-----------------------------------------------------------
	 SCS Same-Spin Scale       =       0.3333333333333333 [-]
	 SCS Opposite-Spin Scale   =       1.2000000000000000 [-]
	 SCS Same-Spin Energy      =      -0.1671429721175544 [Eh]
	 SCS Opposite-Spin Energy  =      -1.9810550605647486 [Eh]
	 SCS Correlation Energy    =      -2.1481980326823029 [Eh]
	 SCS Total Energy          =    -823.9107333822875034 [Eh]
	-----------------------------------------------------------

  Dipole Moment: [D]
     X:    -0.1913      Y:     3.8761      Z:    -1.5838     Total:     4.1916

*** Psi4 exiting successfully. Buy a developer a beer!
