                               Psi4 1.4a3.dev225

  ==> Input File <==

--------------------------------------------------------------------------
#psi4
#
memory 32 gb

molecule  {
0 1
  S       -0.2573260    -0.3323280     0.1419150
  O       -0.2860210    -1.5224110    -0.7288200
  O       -0.1913230    -0.4820040     1.6079470
  C        1.1077430     0.7304620    -0.3526940
  C        2.4495880     0.2623560     0.2167580
  C       -1.7119910     0.6470300    -0.2467030
  C       -2.9773330    -0.1490110     0.0593080
  C        2.8936370    -1.0771870    -0.3692660
  C        3.4979800     1.3449170    -0.0414460
  C       -4.2305000     0.6643980    -0.2524990
  H        1.1201440     0.7512950    -1.4483370
  H        0.8749251     1.6857930     0.0048342
  H        2.3201640     0.1499000     1.2996700
  H       -1.6515560     0.9087510    -1.3087410
  H       -1.6583250     1.5603790     0.3547230
  H       -2.9641430    -1.0716000    -0.5283160
  H       -2.9644700    -0.4377180     1.1148610
  H        2.9999490    -1.0007780    -1.4570900
  H        2.1808400    -1.8761700    -0.1584720
  H        3.8652790    -1.3613920     0.0461660
  H        3.6372140     1.5009250    -1.1167480
  H        3.2107350     2.3002430     0.4092550
  H        4.4622490     1.0479330     0.3817310
  H       -4.2653590     1.5804770     0.3446860
  H       -4.2647910     0.9464390    -1.3091180
  H       -5.1305020     0.0846610    -0.0305780
units angstrom
no_reorient  #important for SAPT in psi4, default
symmetry c1  #important for SAPT in psi4, default
}

set PROPERTIES_ORIGIN ["COM"]
properties('MP2/aug-cc-pvtz', properties = ['dipole'])
--------------------------------------------------------------------------

    Molecular point group: c1
  Charge       = 0
  Multiplicity = 1
  Basis Set: AUG-CC-PVTZ
    Blend: AUG-CC-PVTZ
  Basis Set: (AUG-CC-PVTZ AUX)
    Blend: AUG-CC-PVTZ-JKFIT

    Orbital Energies [Eh]
    ---------------------

    Doubly Occupied:

       1A    -92.169930     2A    -20.535546     3A    -20.534440
       4A    -11.274925     5A    -11.268032     6A    -11.246296
       7A    -11.241531     8A    -11.229712     9A    -11.226866
      10A    -11.212543    11A     -9.140440    12A     -6.824824
      13A     -6.824421    14A     -6.824227    15A     -1.425747
      16A     -1.316495    17A     -1.117198    18A     -1.096188
      19A     -1.014714    20A     -0.962132    21A     -0.937773
      22A     -0.851119    23A     -0.804957    24A     -0.780567
      25A     -0.688471    26A     -0.677697    27A     -0.664752
      28A     -0.645155    29A     -0.619806    30A     -0.605582
      31A     -0.591629    32A     -0.581690    33A     -0.568269
      34A     -0.554822    35A     -0.539778    36A     -0.528786
      37A     -0.510275    38A     -0.503361    39A     -0.495744
      40A     -0.487307    41A     -0.482492    42A     -0.475403
      43A     -0.470560    44A     -0.456395    45A     -0.418157

  @DF-RHF Final Energy:  -821.78276845210621

   => Energetics <=

    Nuclear Repulsion Energy =            707.5976527807742968
    One-Electron Energy =               -2531.9073335374037015
    Two-Electron Energy =                1002.5269123045231936
    Total Energy =                       -821.7827684521062110
  Basis Set: (AUG-CC-PVTZ AUX)
    Blend: AUG-CC-PVTZ-RI
    Molecular point group: c1

    Geometry (in Angstrom), charge = 0, multiplicity = 1:

       Center              X                  Y                   Z               Mass
    ------------   -----------------  -----------------  -----------------  -----------------
         S           -0.246803467264    -0.290959882123     0.121606984778    31.972071174400
         O           -0.275498467264    -1.481042882123    -0.749128015222    15.994914619570
         O           -0.180800467264    -0.440635882123     1.587638984778    15.994914619570
         C            1.118265532736     0.771830117877    -0.373002015222    12.000000000000
         C            2.460110532736     0.303724117877     0.196449984778    12.000000000000
         C           -1.701468467264     0.688398117877    -0.267011015222    12.000000000000
         C           -2.966810467264    -0.107642882123     0.038999984778    12.000000000000
         C            2.904159532736    -1.035818882123    -0.389574015222    12.000000000000
         C            3.508502532736     1.386285117877    -0.061754015222    12.000000000000
         C           -4.219977467264     0.705766117877    -0.272807015222    12.000000000000
         H            1.130666532736     0.792663117877    -1.468645015222     1.007825032230
         H            0.885447632736     1.727161117877    -0.015473815222     1.007825032230
         H            2.330686532736     0.191268117877     1.279361984778     1.007825032230
         H           -1.641033467264     0.950119117877    -1.329049015222     1.007825032230
         H           -1.647802467264     1.601747117877     0.334414984778     1.007825032230
         H           -2.953620467264    -1.030231882123    -0.548624015222     1.007825032230
         H           -2.953947467264    -0.396349882123     1.094552984778     1.007825032230
         H            3.010471532736    -0.959409882123    -1.477398015222     1.007825032230
         H            2.191362532736    -1.834801882123    -0.178780015222     1.007825032230
         H            3.875801532736    -1.320023882123     0.025857984778     1.007825032230
         H            3.647736532736     1.542293117877    -1.137056015222     1.007825032230
         H            3.221257532736     2.341611117877     0.388946984778     1.007825032230
         H            4.472771532736     1.089301117877     0.361422984778     1.007825032230
         H           -4.254836467264     1.621845117877     0.324377984778     1.007825032230
         H           -4.254268467264     0.987807117877    -1.329426015222     1.007825032230
         H           -5.119979467264     0.126029117877    -0.050886015222     1.007825032230

  Basis Set: AUG-CC-PVTZ
    Blend: AUG-CC-PVTZ
  Basis Set: (AUG-CC-PVTZ AUX)
    Blend: AUG-CC-PVTZ-JKFIT
	 Reference Energy          =    -821.7827684521062110 [Eh]
	 Singles Energy            =      -0.0000000000000000 [Eh]
	 Same-Spin Energy          =      -0.5009470150109011 [Eh]
	 Opposite-Spin Energy      =      -1.6485118887792840 [Eh]
	 Correlation Energy        =      -2.1494589037901850 [Eh]
	 Total Energy              =    -823.9322273558964298 [Eh]

	 ================> DF-SCS-MP2 Energies <==================
	-----------------------------------------------------------
	 SCS Same-Spin Scale       =       0.3333333333333333 [-]
	 SCS Opposite-Spin Scale   =       1.2000000000000000 [-]
	 SCS Same-Spin Energy      =      -0.1669823383369670 [Eh]
	 SCS Opposite-Spin Energy  =      -1.9782142665351408 [Eh]
	 SCS Correlation Energy    =      -2.1451966048721078 [Eh]
	 SCS Total Energy          =    -823.9279650569783371 [Eh]
	-----------------------------------------------------------

  Dipole Moment: [D]
     X:    -0.2148      Y:     3.8143      Z:    -1.5738     Total:     4.1318

*** Psi4 exiting successfully. Buy a developer a beer!
