                               Psi4 1.4a3.dev225

  ==> Input File <==

--------------------------------------------------------------------------
#psi4
#
memory 32 gb

molecule  {
0 1
  S       -0.2573260    -0.3323280     0.1419150
  O       -0.2860210    -1.5224110    -0.7288200
  O       -0.1913230    -0.4820040     1.6079470
  C        1.1077430     0.7304620    -0.3526940
  C        2.4495880     0.2623560     0.2167580
  C       -1.7119910     0.6470300    -0.2467030
  C       -2.9773330    -0.1490110     0.0593080
  C        3.0261566    -1.0022512    -0.4183139
  C        3.4979800     1.3449170    -0.0414460
  C       -4.2305000     0.6643980    -0.2524990
  H        1.1201440     0.7512950    -1.4483370
  H        0.8637990     1.7314470     0.0219200
  H        2.3201640     0.1499000     1.2996700
  H       -1.6515560     0.9087510    -1.3087410
  H       -1.6583250     1.5603790     0.3547230
  H       -2.9641430    -1.0716000    -0.5283160
  H       -2.9644700    -0.4377180     1.1148610
  H        2.9999490    -1.0007780    -1.4570900
  H        2.1808400    -1.8761700    -0.1584720
  H        3.8652790    -1.3613920     0.0461660
  H        3.6372140     1.5009250    -1.1167480
  H        3.2107350     2.3002430     0.4092550
  H        4.4622490     1.0479330     0.3817310
  H       -4.2653590     1.5804770     0.3446860
  H       -4.2647910     0.9464390    -1.3091180
  H       -5.1305020     0.0846610    -0.0305780
units angstrom
no_reorient  #important for SAPT in psi4, default
symmetry c1  #important for SAPT in psi4, default
}

set PROPERTIES_ORIGIN ["COM"]
properties('MP2/aug-cc-pvtz', properties = ['dipole'])
--------------------------------------------------------------------------

    Molecular point group: c1
  Charge       = 0
  Multiplicity = 1
  Basis Set: AUG-CC-PVTZ
    Blend: AUG-CC-PVTZ
  Basis Set: (AUG-CC-PVTZ AUX)
    Blend: AUG-CC-PVTZ-JKFIT

    Orbital Energies [Eh]
    ---------------------

    Doubly Occupied:

       1A    -92.170308     2A    -20.535509     3A    -20.534386
       4A    -11.275931     5A    -11.274943     6A    -11.247773
       7A    -11.241501     8A    -11.229706     9A    -11.224415
      10A    -11.215446    11A     -9.140746    12A     -6.825144
      13A     -6.824729    14A     -6.824529    15A     -1.425609
      16A     -1.316351    17A     -1.116803    18A     -1.096373
      19A     -1.015542    20A     -0.962463    21A     -0.934439
      22A     -0.851666    23A     -0.805993    24A     -0.780835
      25A     -0.687519    26A     -0.677041    27A     -0.666609
      28A     -0.643336    29A     -0.624520    30A     -0.605445
      31A     -0.591395    32A     -0.576566    33A     -0.568266
      34A     -0.559807    35A     -0.549339    36A     -0.526953
      37A     -0.512423    38A     -0.500756    39A     -0.497146
      40A     -0.491342    41A     -0.481289    42A     -0.473987
      43A     -0.456195    44A     -0.448577    45A     -0.412455

  @DF-RHF Final Energy:  -821.75932637029177

   => Energetics <=

    Nuclear Repulsion Energy =            706.2320090567174020
    One-Electron Energy =               -2529.1384639751940995
    Two-Electron Energy =                1001.1471285481850373
    Total Energy =                       -821.7593263702917739
  Basis Set: (AUG-CC-PVTZ AUX)
    Blend: AUG-CC-PVTZ-RI
    Molecular point group: c1

    Geometry (in Angstrom), charge = 0, multiplicity = 1:

       Center              X                  Y                   Z               Mass
    ------------   -----------------  -----------------  -----------------  -----------------
         S           -0.256426539577    -0.296720486330     0.125089009263    31.972071174400
         O           -0.285121539577    -1.486803486330    -0.745645990737    15.994914619570
         O           -0.190423539577    -0.446396486330     1.591121009263    15.994914619570
         C            1.108642460423     0.766069513670    -0.369519990737    12.000000000000
         C            2.450487460423     0.297963513670     0.199932009263    12.000000000000
         C           -1.711091539577     0.682637513670    -0.263528990737    12.000000000000
         C           -2.976433539577    -0.113403486330     0.042482009263    12.000000000000
         C            3.027056060423    -0.966643686330    -0.435139890737    12.000000000000
         C            3.498879460423     1.380524513670    -0.058271990737    12.000000000000
         C           -4.229600539577     0.700005513670    -0.269324990737    12.000000000000
         H            1.121043460423     0.786902513670    -1.465162990737     1.007825032230
         H            0.864698460423     1.767054513670     0.005094009263     1.007825032230
         H            2.321063460423     0.185507513670     1.282844009263     1.007825032230
         H           -1.650656539577     0.944358513670    -1.325566990737     1.007825032230
         H           -1.657425539577     1.595986513670     0.337897009263     1.007825032230
         H           -2.963243539577    -1.035992486330    -0.545141990737     1.007825032230
         H           -2.963570539577    -0.402110486330     1.098035009263     1.007825032230
         H            3.000848460423    -0.965170486330    -1.473915990737     1.007825032230
         H            2.181739460423    -1.840562486330    -0.175297990737     1.007825032230
         H            3.866178460423    -1.325784486330     0.029340009263     1.007825032230
         H            3.638113460423     1.536532513670    -1.133573990737     1.007825032230
         H            3.211634460423     2.335850513670     0.392429009263     1.007825032230
         H            4.463148460423     1.083540513670     0.364905009263     1.007825032230
         H           -4.264459539577     1.616084513670     0.327860009263     1.007825032230
         H           -4.263891539577     0.982046513670    -1.325943990737     1.007825032230
         H           -5.129602539577     0.120268513670    -0.047403990737     1.007825032230

  Basis Set: AUG-CC-PVTZ
    Blend: AUG-CC-PVTZ
  Basis Set: (AUG-CC-PVTZ AUX)
    Blend: AUG-CC-PVTZ-JKFIT
	 Reference Energy          =    -821.7593263702917739 [Eh]
	 Singles Energy            =      -0.0000000000000000 [Eh]
	 Same-Spin Energy          =      -0.5015976909930002 [Eh]
	 Opposite-Spin Energy      =      -1.6502885256170989 [Eh]
	 Correlation Energy        =      -2.1518862166100989 [Eh]
	 Total Energy              =    -823.9112125869019110 [Eh]

	 ================> DF-SCS-MP2 Energies <==================
	-----------------------------------------------------------
	 SCS Same-Spin Scale       =       0.3333333333333333 [-]
	 SCS Opposite-Spin Scale   =       1.2000000000000000 [-]
	 SCS Same-Spin Energy      =      -0.1671992303310001 [Eh]
	 SCS Opposite-Spin Energy  =      -1.9803462307405186 [Eh]
	 SCS Correlation Energy    =      -2.1475454610715188 [Eh]
	 SCS Total Energy          =    -823.9068718313633326 [Eh]
	-----------------------------------------------------------

  Dipole Moment: [D]
     X:    -0.2229      Y:     3.7965      Z:    -1.5995     Total:     4.1257

*** Psi4 exiting successfully. Buy a developer a beer!
