                               Psi4 1.4a3.dev225

  ==> Input File <==

--------------------------------------------------------------------------
#psi4
#
memory 32 gb

molecule  {
0 1
  S       -0.2573260    -0.3323280     0.1419150
  O       -0.2860210    -1.5224110    -0.7288200
  O       -0.1913230    -0.4820040     1.6079470
  C        1.1077430     0.7304620    -0.3526940
  C        2.4495880     0.2623560     0.2167580
  C       -1.7119910     0.6470300    -0.2467030
  C       -2.9773330    -0.1490110     0.0593080
  C        2.8936370    -1.0771870    -0.3692660
  C        3.4979800     1.3449170    -0.0414460
  C       -4.2305000     0.6643980    -0.2524990
  H        1.1201440     0.7512950    -1.4483370
  H        0.8637990     1.7314470     0.0219200
  H        2.3201640     0.1499000     1.2996700
  H       -1.6515560     0.9087510    -1.3087410
  H       -1.6583250     1.5603790     0.3547230
  H       -2.9641430    -1.0716000    -0.5283160
  H       -2.9644700    -0.4377180     1.1148610
  H        3.0048004    -0.9972912    -1.5067318
  H        2.1808400    -1.8761700    -0.1584720
  H        3.8652790    -1.3613920     0.0461660
  H        3.6372140     1.5009250    -1.1167480
  H        3.2107350     2.3002430     0.4092550
  H        4.4622490     1.0479330     0.3817310
  H       -4.2653590     1.5804770     0.3446860
  H       -4.2647910     0.9464390    -1.3091180
  H       -5.1305020     0.0846610    -0.0305780
units angstrom
no_reorient  #important for SAPT in psi4, default
symmetry c1  #important for SAPT in psi4, default
}

set PROPERTIES_ORIGIN ["COM"]
properties('MP2/aug-cc-pvtz', properties = ['dipole'])
--------------------------------------------------------------------------

    Molecular point group: c1
  Charge       = 0
  Multiplicity = 1
  Basis Set: AUG-CC-PVTZ
    Blend: AUG-CC-PVTZ
  Basis Set: (AUG-CC-PVTZ AUX)
    Blend: AUG-CC-PVTZ-JKFIT

    Orbital Energies [Eh]
    ---------------------

    Doubly Occupied:

       1A    -92.170226     2A    -20.535641     3A    -20.534805
       4A    -11.274836     5A    -11.273788     6A    -11.247266
       7A    -11.241467     8A    -11.229679     9A    -11.226914
      10A    -11.219129    11A     -9.140708    12A     -6.825096
      13A     -6.824687    14A     -6.824495    15A     -1.425929
      16A     -1.316692    17A     -1.115633    18A     -1.096070
      19A     -1.013203    20A     -0.960413    21A     -0.935213
      22A     -0.850446    23A     -0.804599    24A     -0.777634
      25A     -0.687790    26A     -0.675862    27A     -0.663592
      28A     -0.642747    29A     -0.619176    30A     -0.605397
      31A     -0.591480    32A     -0.579797    33A     -0.568228
      34A     -0.552734    35A     -0.535367    36A     -0.528833
      37A     -0.510391    38A     -0.503132    39A     -0.495777
      40A     -0.487058    41A     -0.481994    42A     -0.474661
      43A     -0.470069    44A     -0.456435    45A     -0.418363

  @DF-RHF Final Energy:  -821.78149978638282

   => Energetics <=

    Nuclear Repulsion Energy =            707.0936125054448667
    One-Electron Energy =               -2530.9233118831934917
    Two-Electron Energy =                1002.0481995913656874
    Total Energy =                       -821.7814997863828239
  Basis Set: (AUG-CC-PVTZ AUX)
    Blend: AUG-CC-PVTZ-RI
    Molecular point group: c1

    Geometry (in Angstrom), charge = 0, multiplicity = 1:

       Center              X                  Y                   Z               Mass
    ------------   -----------------  -----------------  -----------------  -----------------
         S           -0.246764927978    -0.291261705533     0.121806944139    31.972071174400
         O           -0.275459927978    -1.481344705533    -0.748928055861    15.994914619570
         O           -0.180761927978    -0.440937705533     1.587838944139    15.994914619570
         C            1.118304072022     0.771528294467    -0.372802055861    12.000000000000
         C            2.460149072022     0.303422294467     0.196649944139    12.000000000000
         C           -1.701429927978     0.688096294467    -0.266811055861    12.000000000000
         C           -2.966771927978    -0.107944705533     0.039199944139    12.000000000000
         C            2.904198072022    -1.036120705533    -0.389374055861    12.000000000000
         C            3.508541072022     1.385983294467    -0.061554055861    12.000000000000
         C           -4.219938927978     0.705464294467    -0.272607055861    12.000000000000
         H            1.130705072022     0.792361294467    -1.468445055861     1.007825032230
         H            0.874360072022     1.772513294467     0.001811944139     1.007825032230
         H            2.330725072022     0.190966294467     1.279561944139     1.007825032230
         H           -1.640994927978     0.949817294467    -1.328849055861     1.007825032230
         H           -1.647763927978     1.601445294467     0.334614944139     1.007825032230
         H           -2.953581927978    -1.030533705533    -0.548424055861     1.007825032230
         H           -2.953908927978    -0.396651705533     1.094752944139     1.007825032230
         H            3.015361472022    -0.956224905533    -1.526839855861     1.007825032230
         H            2.191401072022    -1.835103705533    -0.178580055861     1.007825032230
         H            3.875840072022    -1.320325705533     0.026057944139     1.007825032230
         H            3.647775072022     1.541991294467    -1.136856055861     1.007825032230
         H            3.221296072022     2.341309294467     0.389146944139     1.007825032230
         H            4.472810072022     1.088999294467     0.361622944139     1.007825032230
         H           -4.254797927978     1.621543294467     0.324577944139     1.007825032230
         H           -4.254229927978     0.987505294467    -1.329226055861     1.007825032230
         H           -5.119940927978     0.125727294467    -0.050686055861     1.007825032230

  Basis Set: AUG-CC-PVTZ
    Blend: AUG-CC-PVTZ
  Basis Set: (AUG-CC-PVTZ AUX)
    Blend: AUG-CC-PVTZ-JKFIT
	 Reference Energy          =    -821.7814997863828239 [Eh]
	 Singles Energy            =      -0.0000000000000000 [Eh]
	 Same-Spin Energy          =      -0.5010409468225797 [Eh]
	 Opposite-Spin Energy      =      -1.6492071143347464 [Eh]
	 Correlation Energy        =      -2.1502480611573263 [Eh]
	 Total Energy              =    -823.9317478475401231 [Eh]

	 ================> DF-SCS-MP2 Energies <==================
	-----------------------------------------------------------
	 SCS Same-Spin Scale       =       0.3333333333333333 [-]
	 SCS Opposite-Spin Scale   =       1.2000000000000000 [-]
	 SCS Same-Spin Energy      =      -0.1670136489408599 [Eh]
	 SCS Opposite-Spin Energy  =      -1.9790485372016957 [Eh]
	 SCS Correlation Energy    =      -2.1460621861425557 [Eh]
	 SCS Total Energy          =    -823.9275619725253819 [Eh]
	-----------------------------------------------------------

  Dipole Moment: [D]
     X:    -0.2107      Y:     3.8020      Z:    -1.5443     Total:     4.1091

*** Psi4 exiting successfully. Buy a developer a beer!
