                               Psi4 1.4a3.dev225

  ==> Input File <==

--------------------------------------------------------------------------
#psi4
#
memory 32 gb

molecule  {
0 1
  S       -0.2573260    -0.3323280     0.1419150
  O       -0.2860210    -1.5224110    -0.7288200
  O       -0.1913230    -0.4820040     1.6079470
  C        1.1077430     0.7304620    -0.3526940
  C        2.4495880     0.2623560     0.2167580
  C       -1.7119910     0.6470300    -0.2467030
  C       -2.9773330    -0.1490110     0.0593080
  C        2.8936370    -1.0771870    -0.3692660
  C        3.4979800     1.3449170    -0.0414460
  C       -4.2305000     0.6643980    -0.2524990
  H        1.1201440     0.7512950    -1.4483370
  H        0.8637990     1.7314470     0.0219200
  H        2.3201640     0.1499000     1.2996700
  H       -1.6515560     0.9087510    -1.3087410
  H       -1.6583250     1.5603790     0.3547230
  H       -2.9641430    -1.0716000    -0.5283160
  H       -2.9644700    -0.4377180     1.1148610
  H        2.9748409    -1.0293759    -1.4608802
  H        2.1808400    -1.8761700    -0.1584720
  H        3.8652790    -1.3613920     0.0461660
  H        3.6372140     1.5009250    -1.1167480
  H        3.2107350     2.3002430     0.4092550
  H        4.4622490     1.0479330     0.3817310
  H       -4.2653590     1.5804770     0.3446860
  H       -4.2647910     0.9464390    -1.3091180
  H       -5.1305020     0.0846610    -0.0305780
units angstrom
no_reorient  #important for SAPT in psi4, default
symmetry c1  #important for SAPT in psi4, default
}

set PROPERTIES_ORIGIN ["COM"]
properties('MP2/aug-cc-pvtz', properties = ['dipole'])
--------------------------------------------------------------------------

    Molecular point group: c1
  Charge       = 0
  Multiplicity = 1
  Basis Set: AUG-CC-PVTZ
    Blend: AUG-CC-PVTZ
  Basis Set: (AUG-CC-PVTZ AUX)
    Blend: AUG-CC-PVTZ-JKFIT

    Orbital Energies [Eh]
    ---------------------

    Doubly Occupied:

       1A    -92.170171     2A    -20.535512     3A    -20.534782
       4A    -11.274802     5A    -11.273752     6A    -11.246854
       7A    -11.241439     8A    -11.229660     9A    -11.226762
      10A    -11.212754    11A     -9.140648    12A     -6.825037
      13A     -6.824628    14A     -6.824436    15A     -1.425849
      16A     -1.316619    17A     -1.115686    18A     -1.096072
      19A     -1.013365    20A     -0.960491    21A     -0.937848
      22A     -0.850655    23A     -0.805005    24A     -0.778967
      25A     -0.687714    26A     -0.675784    27A     -0.663528
      28A     -0.642840    29A     -0.619169    30A     -0.605655
      31A     -0.591464    32A     -0.580149    33A     -0.568204
      34A     -0.553548    35A     -0.540122    36A     -0.528656
      37A     -0.510257    38A     -0.502738    39A     -0.495629
      40A     -0.486875    41A     -0.483317    42A     -0.475263
      43A     -0.470072    44A     -0.456387    45A     -0.418273

  @DF-RHF Final Energy:  -821.78341458245234

   => Energetics <=

    Nuclear Repulsion Energy =            707.3172389370676001
    One-Electron Energy =               -2531.3664331220547865
    Two-Electron Energy =                1002.2657796025349626
    Total Energy =                       -821.7834145824523375
  Basis Set: (AUG-CC-PVTZ AUX)
    Blend: AUG-CC-PVTZ-RI
    Molecular point group: c1

    Geometry (in Angstrom), charge = 0, multiplicity = 1:

       Center              X                  Y                   Z               Mass
    ------------   -----------------  -----------------  -----------------  -----------------
         S           -0.246580916353    -0.291064640903     0.121525323036    31.972071174400
         O           -0.275275916353    -1.481147640903    -0.749209676964    15.994914619570
         O           -0.180577916353    -0.440740640903     1.587557323036    15.994914619570
         C            1.118488083647     0.771725359097    -0.373083676964    12.000000000000
         C            2.460333083647     0.303619359097     0.196368323036    12.000000000000
         C           -1.701245916353     0.688293359097    -0.267092676964    12.000000000000
         C           -2.966587916353    -0.107747640903     0.038918323036    12.000000000000
         C            2.904382083647    -1.035923640903    -0.389655676964    12.000000000000
         C            3.508725083647     1.386180359097    -0.061835676964    12.000000000000
         C           -4.219754916353     0.705661359097    -0.272888676964    12.000000000000
         H            1.130889083647     0.792558359097    -1.468726676964     1.007825032230
         H            0.874544083647     1.772710359097     0.001530323036     1.007825032230
         H            2.330909083647     0.191163359097     1.279280323036     1.007825032230
         H           -1.640810916353     0.950014359097    -1.329130676964     1.007825032230
         H           -1.647579916353     1.601642359097     0.334333323036     1.007825032230
         H           -2.953397916353    -1.030336640903    -0.548705676964     1.007825032230
         H           -2.953724916353    -0.396454640903     1.094471323036     1.007825032230
         H            2.985585983647    -0.988112540903    -1.481269876964     1.007825032230
         H            2.191585083647    -1.834906640903    -0.178861676964     1.007825032230
         H            3.876024083647    -1.320128640903     0.025776323036     1.007825032230
         H            3.647959083647     1.542188359097    -1.137137676964     1.007825032230
         H            3.221480083647     2.341506359097     0.388865323036     1.007825032230
         H            4.472994083647     1.089196359097     0.361341323036     1.007825032230
         H           -4.254613916353     1.621740359097     0.324296323036     1.007825032230
         H           -4.254045916353     0.987702359097    -1.329507676964     1.007825032230
         H           -5.119756916353     0.125924359097    -0.050967676964     1.007825032230

  Basis Set: AUG-CC-PVTZ
    Blend: AUG-CC-PVTZ
  Basis Set: (AUG-CC-PVTZ AUX)
    Blend: AUG-CC-PVTZ-JKFIT
	 Reference Energy          =    -821.7834145824523375 [Eh]
	 Singles Energy            =      -0.0000000000000000 [Eh]
	 Same-Spin Energy          =      -0.5010344759174004 [Eh]
	 Opposite-Spin Energy      =      -1.6488639197127908 [Eh]
	 Correlation Energy        =      -2.1498983956301911 [Eh]
	 Total Energy              =    -823.9333129780825402 [Eh]

	 ================> DF-SCS-MP2 Energies <==================
	-----------------------------------------------------------
	 SCS Same-Spin Scale       =       0.3333333333333333 [-]
	 SCS Opposite-Spin Scale   =       1.2000000000000000 [-]
	 SCS Same-Spin Energy      =      -0.1670114919724668 [Eh]
	 SCS Opposite-Spin Energy  =      -1.9786367036553489 [Eh]
	 SCS Correlation Energy    =      -2.1456481956278157 [Eh]
	 SCS Total Energy          =    -823.9290627780801515 [Eh]
	-----------------------------------------------------------

  Dipole Moment: [D]
     X:    -0.2121      Y:     3.7930      Z:    -1.5789     Total:     4.1140

*** Psi4 exiting successfully. Buy a developer a beer!
