                               Psi4 1.4a3.dev225

  ==> Input File <==

--------------------------------------------------------------------------
#psi4
#
memory 32 gb

molecule  {
0 1
  S       -0.2573260    -0.3323280     0.1419150
  O       -0.2860210    -1.5224110    -0.7288200
  O       -0.1913230    -0.4820040     1.6079470
  C        1.1077430     0.7304620    -0.3526940
  C        2.4495880     0.2623560     0.2167580
  C       -1.7119910     0.6470300    -0.2467030
  C       -2.9773330    -0.1490110     0.0593080
  C        2.8936370    -1.0771870    -0.3692660
  C        3.4979800     1.3449170    -0.0414460
  C       -4.2305000     0.6643980    -0.2524990
  H        1.1201440     0.7512950    -1.4483370
  H        0.8637990     1.7314470     0.0219200
  H        2.3201640     0.1499000     1.2996700
  H       -1.6515560     0.9087510    -1.3087410
  H       -1.6583250     1.5603790     0.3547230
  H       -2.9641430    -1.0716000    -0.5283160
  H       -2.9644700    -0.4377180     1.1148610
  H        2.9999490    -1.0007780    -1.4570900
  H        2.1808400    -1.8761700    -0.1584720
  H        3.8652790    -1.3613920     0.0461660
  H        3.6372140     1.5009250    -1.1167480
  H        3.2107350     2.3002430     0.4092550
  H        4.4622490     1.0479330     0.3817310
  H       -4.2987565     1.5689565     0.3591878
  H       -4.2647910     0.9464390    -1.3091180
  H       -5.1305020     0.0846610    -0.0305780
units angstrom
no_reorient  #important for SAPT in psi4, default
symmetry c1  #important for SAPT in psi4, default
}

set PROPERTIES_ORIGIN ["COM"]
properties('MP2/aug-cc-pvtz', properties = ['dipole'])
--------------------------------------------------------------------------

    Molecular point group: c1
  Charge       = 0
  Multiplicity = 1
  Basis Set: AUG-CC-PVTZ
    Blend: AUG-CC-PVTZ
  Basis Set: (AUG-CC-PVTZ AUX)
    Blend: AUG-CC-PVTZ-JKFIT

    Orbital Energies [Eh]
    ---------------------

    Doubly Occupied:

       1A    -92.170117     2A    -20.535502     3A    -20.534754
       4A    -11.274731     5A    -11.273686     6A    -11.246583
       7A    -11.241692     8A    -11.229543     9A    -11.226811
      10A    -11.212897    11A     -9.140600    12A     -6.824987
      13A     -6.824579    14A     -6.824387    15A     -1.425830
      16A     -1.316599    17A     -1.115726    18A     -1.095952
      19A     -1.013367    20A     -0.960574    21A     -0.937733
      22A     -0.850952    23A     -0.804904    24A     -0.778725
      25A     -0.687889    26A     -0.675836    27A     -0.663349
      28A     -0.642837    29A     -0.619174    30A     -0.605235
      31A     -0.590222    32A     -0.580787    33A     -0.569075
      34A     -0.553884    35A     -0.539771    36A     -0.529044
      37A     -0.509422    38A     -0.502563    39A     -0.496475
      40A     -0.487095    41A     -0.482428    42A     -0.475306
      43A     -0.470507    44A     -0.456357    45A     -0.418190

  @DF-RHF Final Energy:  -821.78339683812806

   => Energetics <=

    Nuclear Repulsion Energy =            707.2624685546052206
    One-Electron Energy =               -2531.2583811269564649
    Two-Electron Energy =                1002.2125157342231887
    Total Energy =                       -821.7833968381280556
  Basis Set: (AUG-CC-PVTZ AUX)
    Blend: AUG-CC-PVTZ-RI
    Molecular point group: c1

    Geometry (in Angstrom), charge = 0, multiplicity = 1:

       Center              X                  Y                   Z               Mass
    ------------   -----------------  -----------------  -----------------  -----------------
         S           -0.246530002754    -0.291169530508     0.121412973343    31.972071174400
         O           -0.275225002754    -1.481252530508    -0.749322026657    15.994914619570
         O           -0.180527002754    -0.440845530508     1.587444973343    15.994914619570
         C            1.118538997246     0.771620469492    -0.373196026657    12.000000000000
         C            2.460383997246     0.303514469492     0.196255973343    12.000000000000
         C           -1.701195002754     0.688188469492    -0.267205026657    12.000000000000
         C           -2.966537002754    -0.107852530508     0.038805973343    12.000000000000
         C            2.904432997246    -1.036028530508    -0.389768026657    12.000000000000
         C            3.508775997246     1.386075469492    -0.061948026657    12.000000000000
         C           -4.219704002754     0.705556469492    -0.273001026657    12.000000000000
         H            1.130939997246     0.792453469492    -1.468839026657     1.007825032230
         H            0.874594997246     1.772605469492     0.001417973343     1.007825032230
         H            2.330959997246     0.191058469492     1.279167973343     1.007825032230
         H           -1.640760002754     0.949909469492    -1.329243026657     1.007825032230
         H           -1.647529002754     1.601537469492     0.334220973343     1.007825032230
         H           -2.953347002754    -1.030441530508    -0.548818026657     1.007825032230
         H           -2.953674002754    -0.396559530508     1.094358973343     1.007825032230
         H            3.010744997246    -0.959619530508    -1.477592026657     1.007825032230
         H            2.191635997246    -1.835011530508    -0.178974026657     1.007825032230
         H            3.876074997246    -1.320233530508     0.025663973343     1.007825032230
         H            3.648009997246     1.542083469492    -1.137250026657     1.007825032230
         H            3.221530997246     2.341401469492     0.388752973343     1.007825032230
         H            4.473044997246     1.089091469492     0.361228973343     1.007825032230
         H           -4.287960502754     1.610114969492     0.338685773343     1.007825032230
         H           -4.253995002754     0.987597469492    -1.329620026657     1.007825032230
         H           -5.119706002754     0.125819469492    -0.051080026657     1.007825032230

  Basis Set: AUG-CC-PVTZ
    Blend: AUG-CC-PVTZ
  Basis Set: (AUG-CC-PVTZ AUX)
    Blend: AUG-CC-PVTZ-JKFIT
	 Reference Energy          =    -821.7833968381280556 [Eh]
	 Singles Energy            =      -0.0000000000000000 [Eh]
	 Same-Spin Energy          =      -0.5010376636373594 [Eh]
	 Opposite-Spin Energy      =      -1.6488627929607218 [Eh]
	 Correlation Energy        =      -2.1499004565980813 [Eh]
	 Total Energy              =    -823.9332972947261169 [Eh]

	 ================> DF-SCS-MP2 Energies <==================
	-----------------------------------------------------------
	 SCS Same-Spin Scale       =       0.3333333333333333 [-]
	 SCS Opposite-Spin Scale   =       1.2000000000000000 [-]
	 SCS Same-Spin Energy      =      -0.1670125545457865 [Eh]
	 SCS Opposite-Spin Energy  =      -1.9786353515528661 [Eh]
	 SCS Correlation Energy    =      -2.1456479060986524 [Eh]
	 SCS Total Energy          =    -823.9290447442267578 [Eh]
	-----------------------------------------------------------

  Dipole Moment: [D]
     X:    -0.2118      Y:     3.7992      Z:    -1.5666     Total:     4.1149

*** Psi4 exiting successfully. Buy a developer a beer!
