                               Psi4 1.4a3.dev225

  ==> Input File <==

--------------------------------------------------------------------------
#psi4
#
memory 32 gb

molecule  {
0 1
  S       -0.2573260    -0.3323280     0.1419150
  O       -0.2860210    -1.5224110    -0.7288200
  O       -0.1913230    -0.4820040     1.6079470
  C        1.1077430     0.7304620    -0.3526940
  C        2.4495880     0.2623560     0.2167580
  C       -1.7119910     0.6470300    -0.2467030
  C       -2.9773330    -0.1490110     0.0593080
  C        2.8936370    -1.0771870    -0.3692660
  C        3.4979800     1.3449170    -0.0414460
  C       -4.2305000     0.6643980    -0.2524990
  H        1.1201440     0.7512950    -1.4483370
  H        0.8637990     1.7314470     0.0219200
  H        2.3201640     0.1499000     1.2996700
  H       -1.6515560     0.9087510    -1.3087410
  H       -1.6583250     1.5603790     0.3547230
  H       -2.9641430    -1.0716000    -0.5283160
  H       -2.9644700    -0.4377180     1.1148610
  H        3.1098976    -1.0298775    -1.4423432
  H        2.1808400    -1.8761700    -0.1584720
  H        3.8652790    -1.3613920     0.0461660
  H        3.6372140     1.5009250    -1.1167480
  H        3.2107350     2.3002430     0.4092550
  H        4.4622490     1.0479330     0.3817310
  H       -4.2653590     1.5804770     0.3446860
  H       -4.2647910     0.9464390    -1.3091180
  H       -5.1305020     0.0846610    -0.0305780
units angstrom
no_reorient  #important for SAPT in psi4, default
symmetry c1  #important for SAPT in psi4, default
}

set PROPERTIES_ORIGIN ["COM"]
properties('MP2/aug-cc-pvtz', properties = ['dipole'])
--------------------------------------------------------------------------

    Molecular point group: c1
  Charge       = 0
  Multiplicity = 1
  Basis Set: AUG-CC-PVTZ
    Blend: AUG-CC-PVTZ
  Basis Set: (AUG-CC-PVTZ AUX)
    Blend: AUG-CC-PVTZ-JKFIT

    Orbital Energies [Eh]
    ---------------------

    Doubly Occupied:

       1A    -92.170072     2A    -20.535529     3A    -20.534633
       4A    -11.274719     5A    -11.273562     6A    -11.247423
       7A    -11.241373     8A    -11.229604     9A    -11.226997
      10A    -11.212664    11A     -9.140558    12A     -6.824946
      13A     -6.824538    14A     -6.824345    15A     -1.425790
      16A     -1.316550    17A     -1.115555    18A     -1.095996
      19A     -1.013429    20A     -0.960611    21A     -0.937741
      22A     -0.850855    23A     -0.805294    24A     -0.779300
      25A     -0.687783    26A     -0.675664    27A     -0.662999
      28A     -0.642904    29A     -0.618596    30A     -0.604491
      31A     -0.591539    32A     -0.583094    33A     -0.568140
      34A     -0.555345    35A     -0.536922    36A     -0.527108
      37A     -0.510159    38A     -0.503638    39A     -0.496034
      40A     -0.485466    41A     -0.482224    42A     -0.476819
      43A     -0.470351    44A     -0.456309    45A     -0.418172

  @DF-RHF Final Energy:  -821.78238466880634

   => Energetics <=

    Nuclear Repulsion Energy =            707.1090270532874911
    One-Electron Energy =               -2530.9511390400243727
    Two-Electron Energy =                1002.0597273179305375
    Total Energy =                       -821.7823846688063441
  Basis Set: (AUG-CC-PVTZ AUX)
    Blend: AUG-CC-PVTZ-RI
    Molecular point group: c1

    Geometry (in Angstrom), charge = 0, multiplicity = 1:

       Center              X                  Y                   Z               Mass
    ------------   -----------------  -----------------  -----------------  -----------------
         S           -0.247410436299    -0.291061560069     0.121411468550    31.972071174400
         O           -0.276105436299    -1.481144560069    -0.749323531450    15.994914619570
         O           -0.181407436299    -0.440737560069     1.587443468550    15.994914619570
         C            1.117658563701     0.771728439931    -0.373197531450    12.000000000000
         C            2.459503563701     0.303622439931     0.196254468550    12.000000000000
         C           -1.702075436299     0.688296439931    -0.267206531450    12.000000000000
         C           -2.967417436299    -0.107744560069     0.038804468550    12.000000000000
         C            2.903552563701    -1.035920560069    -0.389769531450    12.000000000000
         C            3.507895563701     1.386183439931    -0.061949531450    12.000000000000
         C           -4.220584436299     0.705664439931    -0.273002531450    12.000000000000
         H            1.130059563701     0.792561439931    -1.468840531450     1.007825032230
         H            0.873714563701     1.772713439931     0.001416468550     1.007825032230
         H            2.330079563701     0.191166439931     1.279166468550     1.007825032230
         H           -1.641640436299     0.950017439931    -1.329244531450     1.007825032230
         H           -1.648409436299     1.601645439931     0.334219468550     1.007825032230
         H           -2.954227436299    -1.030333560069    -0.548819531450     1.007825032230
         H           -2.954554436299    -0.396451560069     1.094357468550     1.007825032230
         H            3.119813163701    -0.988611060069    -1.462846731450     1.007825032230
         H            2.190755563701    -1.834903560069    -0.178975531450     1.007825032230
         H            3.875194563701    -1.320125560069     0.025662468550     1.007825032230
         H            3.647129563701     1.542191439931    -1.137251531450     1.007825032230
         H            3.220650563701     2.341509439931     0.388751468550     1.007825032230
         H            4.472164563701     1.089199439931     0.361227468550     1.007825032230
         H           -4.255443436299     1.621743439931     0.324182468550     1.007825032230
         H           -4.254875436299     0.987705439931    -1.329621531450     1.007825032230
         H           -5.120586436299     0.125927439931    -0.051081531450     1.007825032230

  Basis Set: AUG-CC-PVTZ
    Blend: AUG-CC-PVTZ
  Basis Set: (AUG-CC-PVTZ AUX)
    Blend: AUG-CC-PVTZ-JKFIT
	 Reference Energy          =    -821.7823846688063441 [Eh]
	 Singles Energy            =      -0.0000000000000000 [Eh]
	 Same-Spin Energy          =      -0.5010359827856650 [Eh]
	 Opposite-Spin Energy      =      -1.6488600478521411 [Eh]
	 Correlation Energy        =      -2.1498960306378061 [Eh]
	 Total Energy              =    -823.9322806994441635 [Eh]

	 ================> DF-SCS-MP2 Energies <==================
	-----------------------------------------------------------
	 SCS Same-Spin Scale       =       0.3333333333333333 [-]
	 SCS Opposite-Spin Scale   =       1.2000000000000000 [-]
	 SCS Same-Spin Energy      =      -0.1670119942618883 [Eh]
	 SCS Opposite-Spin Energy  =      -1.9786320574225693 [Eh]
	 SCS Correlation Energy    =      -2.1456440516844575 [Eh]
	 SCS Total Energy          =    -823.9280287204908291 [Eh]
	-----------------------------------------------------------

  Dipole Moment: [D]
     X:    -0.1692      Y:     3.8022      Z:    -1.5869     Total:     4.1236

*** Psi4 exiting successfully. Buy a developer a beer!
