                               Psi4 1.4a3.dev225

  ==> Input File <==

--------------------------------------------------------------------------
#psi4
#
memory 32 gb

molecule  {
0 1
  S       -0.2573260    -0.3323280     0.1419150
  O       -0.2860210    -1.5224110    -0.7288200
  O       -0.1913230    -0.4820040     1.6079470
  C        1.1077430     0.7304620    -0.3526940
  C        2.4495880     0.2623560     0.2167580
  C       -1.7119910     0.6470300    -0.2467030
  C       -2.9773330    -0.1490110     0.0593080
  C        2.8936370    -1.0771870    -0.3692660
  C        3.4979800     1.3449170    -0.0414460
  C       -4.2305000     0.6643980    -0.2524990
  H        1.1201440     0.7512950    -1.4483370
  H        0.8637990     1.7314470     0.0219200
  H        2.3201640     0.1499000     1.2996700
  H       -1.6571482     0.8341776    -1.3246840
  H       -1.6583250     1.5603790     0.3547230
  H       -2.9641430    -1.0716000    -0.5283160
  H       -2.9644700    -0.4377180     1.1148610
  H        2.9999490    -1.0007780    -1.4570900
  H        2.1808400    -1.8761700    -0.1584720
  H        3.8652790    -1.3613920     0.0461660
  H        3.6372140     1.5009250    -1.1167480
  H        3.2107350     2.3002430     0.4092550
  H        4.4622490     1.0479330     0.3817310
  H       -4.2653590     1.5804770     0.3446860
  H       -4.2647910     0.9464390    -1.3091180
  H       -5.1305020     0.0846610    -0.0305780
units angstrom
no_reorient  #important for SAPT in psi4, default
symmetry c1  #important for SAPT in psi4, default
}

set PROPERTIES_ORIGIN ["COM"]
properties('MP2/aug-cc-pvtz', properties = ['dipole'])
--------------------------------------------------------------------------

    Molecular point group: c1
  Charge       = 0
  Multiplicity = 1
  Basis Set: AUG-CC-PVTZ
    Blend: AUG-CC-PVTZ
  Basis Set: (AUG-CC-PVTZ AUX)
    Blend: AUG-CC-PVTZ-JKFIT

    Orbital Energies [Eh]
    ---------------------

    Doubly Occupied:

       1A    -92.169633     2A    -20.535052     3A    -20.534797
       4A    -11.275069     5A    -11.273672     6A    -11.246572
       7A    -11.241139     8A    -11.229704     9A    -11.226798
      10A    -11.212893    11A     -9.140189    12A     -6.824545
      13A     -6.824171    14A     -6.823975    15A     -1.425711
      16A     -1.316477    17A     -1.115764    18A     -1.096572
      19A     -1.013389    20A     -0.960640    21A     -0.937723
      22A     -0.850569    23A     -0.803520    24A     -0.778304
      25A     -0.686891    26A     -0.678712    27A     -0.664321
      28A     -0.642859    29A     -0.619223    30A     -0.605087
      31A     -0.589356    32A     -0.581070    33A     -0.570877
      34A     -0.553766    35A     -0.539666    36A     -0.528431
      37A     -0.509487    38A     -0.503351    39A     -0.495655
      40A     -0.486835    41A     -0.482401    42A     -0.475093
      43A     -0.470098    44A     -0.456374    45A     -0.417874

  @DF-RHF Final Energy:  -821.78303095671458

   => Energetics <=

    Nuclear Repulsion Energy =            707.4058862655014082
    One-Electron Energy =               -2531.5492286723206234
    Two-Electron Energy =                1002.3603114501045184
    Total Energy =                       -821.7830309567145832
  Basis Set: (AUG-CC-PVTZ AUX)
    Blend: AUG-CC-PVTZ-RI
    Molecular point group: c1

    Geometry (in Angstrom), charge = 0, multiplicity = 1:

       Center              X                  Y                   Z               Mass
    ------------   -----------------  -----------------  -----------------  -----------------
         S           -0.246700783256    -0.290782258805     0.121599965686    31.972071174400
         O           -0.275395783256    -1.480865258805    -0.749135034314    15.994914619570
         O           -0.180697783256    -0.440458258805     1.587631965686    15.994914619570
         C            1.118368216744     0.772007741195    -0.373009034314    12.000000000000
         C            2.460213216744     0.303901741195     0.196442965686    12.000000000000
         C           -1.701365783256     0.688575741195    -0.267018034314    12.000000000000
         C           -2.966707783256    -0.107465258805     0.038992965686    12.000000000000
         C            2.904262216744    -1.035641258805    -0.389581034314    12.000000000000
         C            3.508605216744     1.386462741195    -0.061761034314    12.000000000000
         C           -4.219874783256     0.705943741195    -0.272814034314    12.000000000000
         H            1.130769216744     0.792840741195    -1.468652034314     1.007825032230
         H            0.874424216744     1.772992741195     0.001604965686     1.007825032230
         H            2.330789216744     0.191445741195     1.279354965686     1.007825032230
         H           -1.646522983256     0.875723341195    -1.344999034314     1.007825032230
         H           -1.647699783256     1.601924741195     0.334407965686     1.007825032230
         H           -2.953517783256    -1.030054258805    -0.548631034314     1.007825032230
         H           -2.953844783256    -0.396172258805     1.094545965686     1.007825032230
         H            3.010574216744    -0.959232258805    -1.477405034314     1.007825032230
         H            2.191465216744    -1.834624258805    -0.178787034314     1.007825032230
         H            3.875904216744    -1.319846258805     0.025850965686     1.007825032230
         H            3.647839216744     1.542470741195    -1.137063034314     1.007825032230
         H            3.221360216744     2.341788741195     0.388939965686     1.007825032230
         H            4.472874216744     1.089478741195     0.361415965686     1.007825032230
         H           -4.254733783256     1.622022741195     0.324370965686     1.007825032230
         H           -4.254165783256     0.987984741195    -1.329433034314     1.007825032230
         H           -5.119876783256     0.126206741195    -0.050893034314     1.007825032230

  Basis Set: AUG-CC-PVTZ
    Blend: AUG-CC-PVTZ
  Basis Set: (AUG-CC-PVTZ AUX)
    Blend: AUG-CC-PVTZ-JKFIT
	 Reference Energy          =    -821.7830309567145832 [Eh]
	 Singles Energy            =      -0.0000000000000000 [Eh]
	 Same-Spin Energy          =      -0.5011106036704212 [Eh]
	 Opposite-Spin Energy      =      -1.6489744567247038 [Eh]
	 Correlation Energy        =      -2.1500850603951251 [Eh]
	 Total Energy              =    -823.9331160171096826 [Eh]

	 ================> DF-SCS-MP2 Energies <==================
	-----------------------------------------------------------
	 SCS Same-Spin Scale       =       0.3333333333333333 [-]
	 SCS Opposite-Spin Scale   =       1.2000000000000000 [-]
	 SCS Same-Spin Energy      =      -0.1670368678901404 [Eh]
	 SCS Opposite-Spin Energy  =      -1.9787693480696444 [Eh]
	 SCS Correlation Energy    =      -2.1458062159597846 [Eh]
	 SCS Total Energy          =    -823.9288371726743208 [Eh]
	-----------------------------------------------------------

  Dipole Moment: [D]
     X:    -0.2105      Y:     3.7819      Z:    -1.5815     Total:     4.1046

*** Psi4 exiting successfully. Buy a developer a beer!
