                               Psi4 1.4a3.dev225

  ==> Input File <==

--------------------------------------------------------------------------
#psi4
#
memory 32 gb

molecule  {
0 1
  S       -0.2573260    -0.3323280     0.1419150
  O       -0.2860210    -1.5224110    -0.7288200
  O       -0.1913230    -0.4820040     1.6079470
  C        1.1077430     0.7304620    -0.3526940
  C        2.4495880     0.2623560     0.2167580
  C       -1.7119910     0.6470300    -0.2467030
  C       -2.9773330    -0.1490110     0.0593080
  C        2.8936370    -1.0771870    -0.3692660
  C        3.4979800     1.3449170    -0.0414460
  C       -4.2305000     0.6643980    -0.2524990
  H        1.1201440     0.7512950    -1.4483370
  H        0.8637990     1.7314470     0.0219200
  H        2.3201640     0.1499000     1.2996700
  H       -1.6515560     0.9087510    -1.3087410
  H       -1.6583250     1.5603790     0.3547230
  H       -2.9641430    -1.0716000    -0.5283160
  H       -2.9644700    -0.4377180     1.1148610
  H        2.9243586    -1.0867117    -1.4644679
  H        2.1808400    -1.8761700    -0.1584720
  H        3.8652790    -1.3613920     0.0461660
  H        3.6372140     1.5009250    -1.1167480
  H        3.2107350     2.3002430     0.4092550
  H        4.4622490     1.0479330     0.3817310
  H       -4.2653590     1.5804770     0.3446860
  H       -4.2647910     0.9464390    -1.3091180
  H       -5.1305020     0.0846610    -0.0305780
units angstrom
no_reorient  #important for SAPT in psi4, default
symmetry c1  #important for SAPT in psi4, default
}

set PROPERTIES_ORIGIN ["COM"]
properties('MP2/aug-cc-pvtz', properties = ['dipole'])
--------------------------------------------------------------------------

    Molecular point group: c1
  Charge       = 0
  Multiplicity = 1
  Basis Set: AUG-CC-PVTZ
    Blend: AUG-CC-PVTZ
  Basis Set: (AUG-CC-PVTZ AUX)
    Blend: AUG-CC-PVTZ-JKFIT

    Orbital Energies [Eh]
    ---------------------

    Doubly Occupied:

       1A    -92.170229     2A    -20.535516     3A    -20.534873
       4A    -11.274852     5A    -11.273843     6A    -11.247386
       7A    -11.241477     8A    -11.229691     9A    -11.226647
      10A    -11.212454    11A     -9.140703    12A     -6.825091
      13A     -6.824682    14A     -6.824492    15A     -1.425893
      16A     -1.316669    17A     -1.115589    18A     -1.096079
      19A     -1.013280    20A     -0.960439    21A     -0.938147
      22A     -0.850695    23A     -0.805161    24A     -0.779439
      25A     -0.687551    26A     -0.675820    27A     -0.663485
      28A     -0.643161    29A     -0.619056    30A     -0.607013
      31A     -0.591446    32A     -0.578466    33A     -0.568239
      34A     -0.552901    35A     -0.540980    36A     -0.528574
      37A     -0.510295    38A     -0.502247    39A     -0.495511
      40A     -0.486168    41A     -0.484866    42A     -0.474947
      43A     -0.469028    44A     -0.456450    45A     -0.418324

  @DF-RHF Final Energy:  -821.78237140889019

   => Energetics <=

    Nuclear Repulsion Energy =            707.3255116265374909
    One-Electron Energy =               -2531.3800549542056615
    Two-Electron Energy =                1002.2721719187779854
    Total Energy =                       -821.7823714088901852
  Basis Set: (AUG-CC-PVTZ AUX)
    Blend: AUG-CC-PVTZ-RI
    Molecular point group: c1

    Geometry (in Angstrom), charge = 0, multiplicity = 1:

       Center              X                  Y                   Z               Mass
    ------------   -----------------  -----------------  -----------------  -----------------
         S           -0.246270853433    -0.290712483700     0.121547358735    31.972071174400
         O           -0.274965853433    -1.480795483700    -0.749187641265    15.994914619570
         O           -0.180267853433    -0.440388483700     1.587579358735    15.994914619570
         C            1.118798146567     0.772077516300    -0.373061641265    12.000000000000
         C            2.460643146567     0.303971516300     0.196390358735    12.000000000000
         C           -1.700935853433     0.688645516300    -0.267070641265    12.000000000000
         C           -2.966277853433    -0.107395483700     0.038940358735    12.000000000000
         C            2.904692146567    -1.035571483700    -0.389633641265    12.000000000000
         C            3.509035146567     1.386532516300    -0.061813641265    12.000000000000
         C           -4.219444853433     0.706013516300    -0.272866641265    12.000000000000
         H            1.131199146567     0.792910516300    -1.468704641265     1.007825032230
         H            0.874854146567     1.773062516300     0.001552358735     1.007825032230
         H            2.331219146567     0.191515516300     1.279302358735     1.007825032230
         H           -1.640500853433     0.950366516300    -1.329108641265     1.007825032230
         H           -1.647269853433     1.601994516300     0.334355358735     1.007825032230
         H           -2.953087853433    -1.029984483700    -0.548683641265     1.007825032230
         H           -2.953414853433    -0.396102483700     1.094493358735     1.007825032230
         H            2.935413746567    -1.045096183700    -1.484835541265     1.007825032230
         H            2.191895146567    -1.834554483700    -0.178839641265     1.007825032230
         H            3.876334146567    -1.319776483700     0.025798358735     1.007825032230
         H            3.648269146567     1.542540516300    -1.137115641265     1.007825032230
         H            3.221790146567     2.341858516300     0.388887358735     1.007825032230
         H            4.473304146567     1.089548516300     0.361363358735     1.007825032230
         H           -4.254303853433     1.622092516300     0.324318358735     1.007825032230
         H           -4.253735853433     0.988054516300    -1.329485641265     1.007825032230
         H           -5.119446853433     0.126276516300    -0.050945641265     1.007825032230

  Basis Set: AUG-CC-PVTZ
    Blend: AUG-CC-PVTZ
  Basis Set: (AUG-CC-PVTZ AUX)
    Blend: AUG-CC-PVTZ-JKFIT
	 Reference Energy          =    -821.7823714088901852 [Eh]
	 Singles Energy            =      -0.0000000000000000 [Eh]
	 Same-Spin Energy          =      -0.5010596472639296 [Eh]
	 Opposite-Spin Energy      =      -1.6488839048498716 [Eh]
	 Correlation Energy        =      -2.1499435521138013 [Eh]
	 Total Energy              =    -823.9323149610039536 [Eh]

	 ================> DF-SCS-MP2 Energies <==================
	-----------------------------------------------------------
	 SCS Same-Spin Scale       =       0.3333333333333333 [-]
	 SCS Opposite-Spin Scale   =       1.2000000000000000 [-]
	 SCS Same-Spin Energy      =      -0.1670198824213099 [Eh]
	 SCS Opposite-Spin Energy  =      -1.9786606858198459 [Eh]
	 SCS Correlation Energy    =      -2.1456805682411559 [Eh]
	 SCS Total Energy          =    -823.9280519771313038 [Eh]
	-----------------------------------------------------------

  Dipole Moment: [D]
     X:    -0.2321      Y:     3.7801      Z:    -1.5854     Total:     4.1057

*** Psi4 exiting successfully. Buy a developer a beer!
