                               Psi4 1.4a3.dev225

  ==> Input File <==

--------------------------------------------------------------------------
#psi4
#
memory 32 gb

molecule  {
0 1
  S       -0.2573260    -0.3323280     0.1419150
  O       -0.2821299    -1.3610318    -0.6107454
  O       -0.1913230    -0.4820040     1.6079470
  C        1.1077430     0.7304620    -0.3526940
  C        2.4495880     0.2623560     0.2167580
  C       -1.7119910     0.6470300    -0.2467030
  C       -2.9773330    -0.1490110     0.0593080
  C        2.8936370    -1.0771870    -0.3692660
  C        3.4979800     1.3449170    -0.0414460
  C       -4.2305000     0.6643980    -0.2524990
  H        1.1201440     0.7512950    -1.4483370
  H        0.8637990     1.7314470     0.0219200
  H        2.3201640     0.1499000     1.2996700
  H       -1.6515560     0.9087510    -1.3087410
  H       -1.6583250     1.5603790     0.3547230
  H       -2.9641430    -1.0716000    -0.5283160
  H       -2.9644700    -0.4377180     1.1148610
  H        2.9999490    -1.0007780    -1.4570900
  H        2.1808400    -1.8761700    -0.1584720
  H        3.8652790    -1.3613920     0.0461660
  H        3.6372140     1.5009250    -1.1167480
  H        3.2107350     2.3002430     0.4092550
  H        4.4622490     1.0479330     0.3817310
  H       -4.2653590     1.5804770     0.3446860
  H       -4.2647910     0.9464390    -1.3091180
  H       -5.1305020     0.0846610    -0.0305780
units angstrom
no_reorient  #important for SAPT in psi4, default
symmetry c1  #important for SAPT in psi4, default
}

set PROPERTIES_ORIGIN ["COM"]
properties('MP2/aug-cc-pvtz', properties = ['dipole'])
--------------------------------------------------------------------------

    Molecular point group: c1
  Charge       = 0
  Multiplicity = 1
  Basis Set: AUG-CC-PVTZ
    Blend: AUG-CC-PVTZ
  Basis Set: (AUG-CC-PVTZ AUX)
    Blend: AUG-CC-PVTZ-JKFIT

    Orbital Energies [Eh]
    ---------------------

    Doubly Occupied:

       1A    -92.145176     2A    -20.539820     3A    -20.518707
       4A    -11.260077     5A    -11.259351     6A    -11.242290
       7A    -11.238431     8A    -11.226844     9A    -11.223257
      10A    -11.214172    11A     -9.123679    12A     -6.810489
      13A     -6.806654    14A     -6.806129    15A     -1.535792
      16A     -1.334999    17A     -1.109788    18A     -1.090474
      19A     -1.004774    20A     -0.956334    21A     -0.936666
      22A     -0.844455    23A     -0.797288    24A     -0.773252
      25A     -0.715322    26A     -0.687368    27A     -0.677148
      28A     -0.651401    29A     -0.635720    30A     -0.605210
      31A     -0.590987    32A     -0.584112    33A     -0.566846
      34A     -0.555306    35A     -0.539303    36A     -0.537507
      37A     -0.514549    38A     -0.506469    39A     -0.493235
      40A     -0.490028    41A     -0.481812    42A     -0.477795
      43A     -0.472059    44A     -0.461371    45A     -0.411292

  @DF-RHF Final Energy:  -821.74266590562058

   => Energetics <=

    Nuclear Repulsion Energy =            717.8753612394231141
    One-Electron Energy =               -2552.3285761884158092
    Two-Electron Energy =                1012.7105490433722252
    Total Energy =                       -821.7426659056205835
  Basis Set: (AUG-CC-PVTZ AUX)
    Blend: AUG-CC-PVTZ-RI
    Molecular point group: c1

    Geometry (in Angstrom), charge = 0, multiplicity = 1:

       Center              X                  Y                   Z               Mass
    ------------   -----------------  -----------------  -----------------  -----------------
         S           -0.247114428028    -0.306971242885     0.109992344554    31.972071174400
         O           -0.271918328028    -1.335675042885    -0.642668055446    15.994914619570
         O           -0.181111428028    -0.456647242885     1.576024344554    15.994914619570
         C            1.117954571972     0.755818757115    -0.384616655446    12.000000000000
         C            2.459799571972     0.287712757115     0.184835344554    12.000000000000
         C           -1.701779428028     0.672386757115    -0.278625655446    12.000000000000
         C           -2.967121428028    -0.123654242885     0.027385344554    12.000000000000
         C            2.903848571972    -1.051830242885    -0.401188655446    12.000000000000
         C            3.508191571972     1.370273757115    -0.073368655446    12.000000000000
         C           -4.220288428028     0.689754757115    -0.284421655446    12.000000000000
         H            1.130355571972     0.776651757115    -1.480259655446     1.007825032230
         H            0.874010571972     1.756803757115    -0.010002655446     1.007825032230
         H            2.330375571972     0.175256757115     1.267747344554     1.007825032230
         H           -1.641344428028     0.934107757115    -1.340663655446     1.007825032230
         H           -1.648113428028     1.585735757115     0.322800344554     1.007825032230
         H           -2.953931428028    -1.046243242885    -0.560238655446     1.007825032230
         H           -2.954258428028    -0.412361242885     1.082938344554     1.007825032230
         H            3.010160571972    -0.975421242885    -1.489012655446     1.007825032230
         H            2.191051571972    -1.850813242885    -0.190394655446     1.007825032230
         H            3.875490571972    -1.336035242885     0.014243344554     1.007825032230
         H            3.647425571972     1.526281757115    -1.148670655446     1.007825032230
         H            3.220946571972     2.325599757115     0.377332344554     1.007825032230
         H            4.472460571972     1.073289757115     0.349808344554     1.007825032230
         H           -4.255147428028     1.605833757115     0.312763344554     1.007825032230
         H           -4.254579428028     0.971795757115    -1.341040655446     1.007825032230
         H           -5.120290428028     0.110017757115    -0.062500655446     1.007825032230

  Basis Set: AUG-CC-PVTZ
    Blend: AUG-CC-PVTZ
  Basis Set: (AUG-CC-PVTZ AUX)
    Blend: AUG-CC-PVTZ-JKFIT
	 Reference Energy          =    -821.7426659056205835 [Eh]
	 Singles Energy            =      -0.0000000000000000 [Eh]
	 Same-Spin Energy          =      -0.4965490569635713 [Eh]
	 Opposite-Spin Energy      =      -1.6384306673456999 [Eh]
	 Correlation Energy        =      -2.1349797243092712 [Eh]
	 Total Energy              =    -823.8776456299298161 [Eh]

	 ================> DF-SCS-MP2 Energies <==================
	-----------------------------------------------------------
	 SCS Same-Spin Scale       =       0.3333333333333333 [-]
	 SCS Opposite-Spin Scale   =       1.2000000000000000 [-]
	 SCS Same-Spin Energy      =      -0.1655163523211904 [Eh]
	 SCS Opposite-Spin Energy  =      -1.9661168008148397 [Eh]
	 SCS Correlation Energy    =      -2.1316331531360300 [Eh]
	 SCS Total Energy          =    -823.8742990587566055 [Eh]
	-----------------------------------------------------------

  Dipole Moment: [D]
     X:    -0.2098      Y:     2.8801      Z:    -2.1231     Total:     3.5842

*** Psi4 exiting successfully. Buy a developer a beer!
