                               Psi4 1.4a3.dev225

  ==> Input File <==

--------------------------------------------------------------------------
#psi4
#
memory 32 gb

molecule  {
0 1
  S       -0.2573260    -0.3323280     0.1419150
  O       -0.2860210    -1.5224110    -0.7288200
  O       -0.1913230    -0.4820040     1.6079470
  C        1.1077430     0.7304620    -0.3526940
  C        2.4495880     0.2623560     0.2167580
  C       -1.7119910     0.6470300    -0.2467030
  C       -2.9773330    -0.1490110     0.0593080
  C        2.8936370    -1.0771870    -0.3692660
  C        3.4979800     1.3449170    -0.0414460
  C       -4.2305000     0.6643980    -0.2524990
  H        1.1201440     0.7512950    -1.4483370
  H        0.8637990     1.7314470     0.0219200
  H        2.3201640     0.1499000     1.2996700
  H       -1.6515560     0.9087510    -1.3087410
  H       -1.6583250     1.5603790     0.3547230
  H       -2.9641430    -1.0716000    -0.5283160
  H       -2.9644700    -0.4377180     1.1148610
  H        2.9999490    -1.0007780    -1.4570900
  H        2.1808400    -1.8761700    -0.1584720
  H        3.8652790    -1.3613920     0.0461660
  H        3.6372140     1.5009250    -1.1167480
  H        3.1582540     2.4747854     0.4916001
  H        4.4622490     1.0479330     0.3817310
  H       -4.2653590     1.5804770     0.3446860
  H       -4.2647910     0.9464390    -1.3091180
  H       -5.1305020     0.0846610    -0.0305780
units angstrom
no_reorient  #important for SAPT in psi4, default
symmetry c1  #important for SAPT in psi4, default
}

set PROPERTIES_ORIGIN ["COM"]
properties('MP2/aug-cc-pvtz', properties = ['dipole'])
--------------------------------------------------------------------------

    Molecular point group: c1
  Charge       = 0
  Multiplicity = 1
  Basis Set: AUG-CC-PVTZ
    Blend: AUG-CC-PVTZ
  Basis Set: (AUG-CC-PVTZ AUX)
    Blend: AUG-CC-PVTZ-JKFIT

    Orbital Energies [Eh]
    ---------------------

    Doubly Occupied:

       1A    -92.170396     2A    -20.535797     3A    -20.535076
       4A    -11.274932     5A    -11.273908     6A    -11.250472
       7A    -11.249227     8A    -11.241549     9A    -11.229713
      10A    -11.215614    11A     -9.140888    12A     -6.825272
      13A     -6.824868    14A     -6.824676    15A     -1.426161
      16A     -1.316928    17A     -1.115910    18A     -1.096186
      19A     -1.013080    20A     -0.960010    21A     -0.930135
      22A     -0.850128    23A     -0.804295    24A     -0.778527
      25A     -0.687669    26A     -0.675778    27A     -0.664094
      28A     -0.641523    29A     -0.619646    30A     -0.597299
      31A     -0.591586    32A     -0.580611    33A     -0.568312
      34A     -0.546547    35A     -0.539643    36A     -0.528906
      37A     -0.510924    38A     -0.501005    39A     -0.496112
      40A     -0.487350    41A     -0.476989    42A     -0.472138
      43A     -0.468426    44A     -0.456668    45A     -0.418968

  @DF-RHF Final Energy:  -821.76372256360276

   => Energetics <=

    Nuclear Repulsion Energy =            706.5427490403941420
    One-Electron Energy =               -2529.7850579281025603
    Two-Electron Energy =                1001.4785863241057768
    Total Energy =                       -821.7637225636027551
  Basis Set: (AUG-CC-PVTZ AUX)
    Blend: AUG-CC-PVTZ-RI
    Molecular point group: c1

    Geometry (in Angstrom), charge = 0, multiplicity = 1:

       Center              X                  Y                   Z               Mass
    ------------   -----------------  -----------------  -----------------  -----------------
         S           -0.246412791658    -0.292312331173     0.120996278943    31.972071174400
         O           -0.275107791658    -1.482395331173    -0.749738721057    15.994914619570
         O           -0.180409791658    -0.441988331173     1.587028278943    15.994914619570
         C            1.118656208342     0.770477668827    -0.373612721057    12.000000000000
         C            2.460501208342     0.302371668827     0.195839278943    12.000000000000
         C           -1.701077791658     0.687045668827    -0.267621721057    12.000000000000
         C           -2.966419791658    -0.108995331173     0.038389278943    12.000000000000
         C            2.904550208342    -1.037171331173    -0.390184721057    12.000000000000
         C            3.508893208342     1.384932668827    -0.062364721057    12.000000000000
         C           -4.219586791658     0.704413668827    -0.273417721057    12.000000000000
         H            1.131057208342     0.791310668827    -1.469255721057     1.007825032230
         H            0.874712208342     1.771462668827     0.001001278943     1.007825032230
         H            2.331077208342     0.189915668827     1.278751278943     1.007825032230
         H           -1.640642791658     0.948766668827    -1.329659721057     1.007825032230
         H           -1.647411791658     1.600394668827     0.333804278943     1.007825032230
         H           -2.953229791658    -1.031584331173    -0.549234721057     1.007825032230
         H           -2.953556791658    -0.397702331173     1.093942278943     1.007825032230
         H            3.010862208342    -0.960762331173    -1.478008721057     1.007825032230
         H            2.191753208342    -1.836154331173    -0.179390721057     1.007825032230
         H            3.876192208342    -1.321376331173     0.025247278943     1.007825032230
         H            3.648127208342     1.540940668827    -1.137666721057     1.007825032230
         H            3.169167208342     2.514801068827     0.470681378943     1.007825032230
         H            4.473162208342     1.087948668827     0.360812278943     1.007825032230
         H           -4.254445791658     1.620492668827     0.323767278943     1.007825032230
         H           -4.253877791658     0.986454668827    -1.330036721057     1.007825032230
         H           -5.119588791658     0.124676668827    -0.051496721057     1.007825032230

  Basis Set: AUG-CC-PVTZ
    Blend: AUG-CC-PVTZ
  Basis Set: (AUG-CC-PVTZ AUX)
    Blend: AUG-CC-PVTZ-JKFIT
	 Reference Energy          =    -821.7637225636027551 [Eh]
	 Singles Energy            =      -0.0000000000000000 [Eh]
	 Same-Spin Energy          =      -0.5010069063275561 [Eh]
	 Opposite-Spin Energy      =      -1.6504069868043310 [Eh]
	 Correlation Energy        =      -2.1514138931318869 [Eh]
	 Total Energy              =    -823.9151364567346718 [Eh]

	 ================> DF-SCS-MP2 Energies <==================
	-----------------------------------------------------------
	 SCS Same-Spin Scale       =       0.3333333333333333 [-]
	 SCS Opposite-Spin Scale   =       1.2000000000000000 [-]
	 SCS Same-Spin Energy      =      -0.1670023021091853 [Eh]
	 SCS Opposite-Spin Energy  =      -1.9804883841651970 [Eh]
	 SCS Correlation Energy    =      -2.1474906862743826 [Eh]
	 SCS Total Energy          =    -823.9112132498771643 [Eh]
	-----------------------------------------------------------

  Dipole Moment: [D]
     X:    -0.1959      Y:     3.6338      Z:    -1.6280     Total:     3.9866

*** Psi4 exiting successfully. Buy a developer a beer!
