                               Psi4 1.4a3.dev225

  ==> Input File <==

--------------------------------------------------------------------------
#psi4
#
memory 32 gb

molecule  {
0 1
  S       -0.2573260    -0.3323280     0.1419150
  O       -0.2860210    -1.5224110    -0.7288200
  O       -0.1913230    -0.4820040     1.6079470
  C        1.1077430     0.7304620    -0.3526940
  C        2.4495880     0.2623560     0.2167580
  C       -1.7119910     0.6470300    -0.2467030
  C       -2.9939177    -0.1594446     0.0633189
  C        2.8936370    -1.0771870    -0.3692660
  C        3.4979800     1.3449170    -0.0414460
  C       -4.2305000     0.6643980    -0.2524990
  H        1.1201440     0.7512950    -1.4483370
  H        0.8637990     1.7314470     0.0219200
  H        2.3201640     0.1499000     1.2996700
  H       -1.6515560     0.9087510    -1.3087410
  H       -1.6583250     1.5603790     0.3547230
  H       -2.9641430    -1.0716000    -0.5283160
  H       -2.9644700    -0.4377180     1.1148610
  H        2.9999490    -1.0007780    -1.4570900
  H        2.1808400    -1.8761700    -0.1584720
  H        3.8652790    -1.3613920     0.0461660
  H        3.6372140     1.5009250    -1.1167480
  H        3.2107350     2.3002430     0.4092550
  H        4.4622490     1.0479330     0.3817310
  H       -4.2653590     1.5804770     0.3446860
  H       -4.2647910     0.9464390    -1.3091180
  H       -5.1305020     0.0846610    -0.0305780
units angstrom
no_reorient  #important for SAPT in psi4, default
symmetry c1  #important for SAPT in psi4, default
}

set PROPERTIES_ORIGIN ["COM"]
properties('MP2/aug-cc-pvtz', properties = ['dipole'])
--------------------------------------------------------------------------

    Molecular point group: c1
  Charge       = 0
  Multiplicity = 1
  Basis Set: AUG-CC-PVTZ
    Blend: AUG-CC-PVTZ
  Basis Set: (AUG-CC-PVTZ AUX)
    Blend: AUG-CC-PVTZ-JKFIT

    Orbital Energies [Eh]
    ---------------------

    Doubly Occupied:

       1A    -92.169917     2A    -20.535291     3A    -20.534527
       4A    -11.274974     5A    -11.273484     6A    -11.246441
       7A    -11.241666     8A    -11.229454     9A    -11.226708
      10A    -11.212792    11A     -9.140369    12A     -6.824754
      13A     -6.824353    14A     -6.824164    15A     -1.425578
      16A     -1.316399    17A     -1.115388    18A     -1.094073
      19A     -1.013975    20A     -0.960370    21A     -0.937623
      22A     -0.850606    23A     -0.805449    24A     -0.778485
      25A     -0.687112    26A     -0.675294    27A     -0.663165
      28A     -0.642556    29A     -0.619431    30A     -0.604965
      31A     -0.590639    32A     -0.580966    33A     -0.568729
      34A     -0.553725    35A     -0.539646    36A     -0.529557
      37A     -0.509420    38A     -0.502248    39A     -0.497602
      40A     -0.486681    41A     -0.482213    42A     -0.475512
      43A     -0.470504    44A     -0.456212    45A     -0.417836

  @DF-RHF Final Energy:  -821.78334619919610

   => Energetics <=

    Nuclear Repulsion Energy =            707.0106583261269861
    One-Electron Energy =               -2530.7662994634692950
    Two-Electron Energy =                1001.9722949381462058
    Total Energy =                       -821.7833461991961030
  Basis Set: (AUG-CC-PVTZ AUX)
    Blend: AUG-CC-PVTZ-RI
    Molecular point group: c1

    Geometry (in Angstrom), charge = 0, multiplicity = 1:

       Center              X                  Y                   Z               Mass
    ------------   -----------------  -----------------  -----------------  -----------------
         S           -0.245522260144    -0.290477260664     0.121208718878    31.972071174400
         O           -0.274217260144    -1.480560260664    -0.749526281122    15.994914619570
         O           -0.179519260144    -0.440153260664     1.587240718878    15.994914619570
         C            1.119546739856     0.772312739336    -0.373400281122    12.000000000000
         C            2.461391739856     0.304206739336     0.196051718878    12.000000000000
         C           -1.700187260144     0.688880739336    -0.267409281122    12.000000000000
         C           -2.982113960144    -0.117593860664     0.042612618878    12.000000000000
         C            2.905440739856    -1.035336260664    -0.389972281122    12.000000000000
         C            3.509783739856     1.386767739336    -0.062152281122    12.000000000000
         C           -4.218696260144     0.706248739336    -0.273205281122    12.000000000000
         H            1.131947739856     0.793145739336    -1.469043281122     1.007825032230
         H            0.875602739856     1.773297739336     0.001213718878     1.007825032230
         H            2.331967739856     0.191750739336     1.278963718878     1.007825032230
         H           -1.639752260144     0.950601739336    -1.329447281122     1.007825032230
         H           -1.646521260144     1.602229739336     0.334016718878     1.007825032230
         H           -2.952339260144    -1.029749260664    -0.549022281122     1.007825032230
         H           -2.952666260144    -0.395867260664     1.094154718878     1.007825032230
         H            3.011752739856    -0.958927260664    -1.477796281122     1.007825032230
         H            2.192643739856    -1.834319260664    -0.179178281122     1.007825032230
         H            3.877082739856    -1.319541260664     0.025459718878     1.007825032230
         H            3.649017739856     1.542775739336    -1.137454281122     1.007825032230
         H            3.222538739856     2.342093739336     0.388548718878     1.007825032230
         H            4.474052739856     1.089783739336     0.361024718878     1.007825032230
         H           -4.253555260144     1.622327739336     0.323979718878     1.007825032230
         H           -4.252987260144     0.988289739336    -1.329824281122     1.007825032230
         H           -5.118698260144     0.126511739336    -0.051284281122     1.007825032230

  Basis Set: AUG-CC-PVTZ
    Blend: AUG-CC-PVTZ
  Basis Set: (AUG-CC-PVTZ AUX)
    Blend: AUG-CC-PVTZ-JKFIT
	 Reference Energy          =    -821.7833461991961030 [Eh]
	 Singles Energy            =      -0.0000000000000000 [Eh]
	 Same-Spin Energy          =      -0.5009488681588168 [Eh]
	 Opposite-Spin Energy      =      -1.6487856565625150 [Eh]
	 Correlation Energy        =      -2.1497345247213318 [Eh]
	 Total Energy              =    -823.9330807239174419 [Eh]

	 ================> DF-SCS-MP2 Energies <==================
	-----------------------------------------------------------
	 SCS Same-Spin Scale       =       0.3333333333333333 [-]
	 SCS Opposite-Spin Scale   =       1.2000000000000000 [-]
	 SCS Same-Spin Energy      =      -0.1669829560529389 [Eh]
	 SCS Opposite-Spin Energy  =      -1.9785427878750179 [Eh]
	 SCS Correlation Energy    =      -2.1455257439279567 [Eh]
	 SCS Total Energy          =    -823.9288719431240224 [Eh]
	-----------------------------------------------------------

  Dipole Moment: [D]
     X:    -0.2266      Y:     3.7999      Z:    -1.5747     Total:     4.1195

*** Psi4 exiting successfully. Buy a developer a beer!
