                               Psi4 1.3.2 release

  ==> Input File <==

--------------------------------------------------------------------------
#psi4
#
memory 32 gb

molecule  {
0 1
  F        1.9821660     1.2528190    -0.0004060
  F        1.9351680    -0.6366780     1.0868470
  F        1.9352150    -0.6374130    -1.0863900
  C       -0.0483970     0.0270950    -0.0000420
  C       -0.7128873     1.2539758    -0.0000220
  C       -0.7204310    -1.1995770    -0.0000260
  C        1.4474980     0.0105280     0.0000000
  C       -2.1511760     1.2020250     0.0000010
  C       -2.1135870    -1.2175920     0.0000010
  C       -2.8302990    -0.0173450     0.0000170
  H       -0.2211530     2.1747870    -0.0000390
  H       -0.1550120    -2.1281220    -0.0000490
  H       -2.7078980     2.1355510     0.0000090
  H       -2.6414440    -2.1677340     0.0000090
  H       -3.9172820    -0.0340560     0.0000400
units angstrom
no_reorient  #important for SAPT in psi4, default
symmetry c1  #important for SAPT in psi4, default
}

set PROPERTIES_ORIGIN ["COM"]
properties('MP2/aug-cc-pvtz', properties = ['dipole'])
--------------------------------------------------------------------------

    Molecular point group: c1
  Charge       = 0
  Multiplicity = 1
  Basis Set: AUG-CC-PVTZ
    Blend: AUG-CC-PVTZ
  Basis Set: (AUG-CC-PVTZ AUX)
    Blend: AUG-CC-PVTZ-JKFIT

    Orbital Energies [Eh]
    ---------------------

    Doubly Occupied:

       1A    -26.337592     2A    -26.332088     3A    -26.332067
       4A    -11.508551     5A    -11.271814     6A    -11.265526
       7A    -11.263611     8A    -11.261862     9A    -11.259923
      10A    -11.258084    11A     -1.718287    12A     -1.628504
      13A     -1.623503    14A     -1.178274    15A     -1.072400
      16A     -1.035187    17A     -0.961839    18A     -0.863291
      19A     -0.860005    20A     -0.812054    21A     -0.807155
      22A     -0.784556    23A     -0.711703    24A     -0.703846
      25A     -0.701655    26A     -0.662742    27A     -0.657215
      28A     -0.656811    29A     -0.643589    30A     -0.636737
      31A     -0.607460    32A     -0.591518    33A     -0.525993
      34A     -0.522460    35A     -0.515870    36A     -0.366069
      37A     -0.353576

  @DF-RHF Final Energy:  -566.52670809773701

   => Energetics <=

    Nuclear Repulsion Energy =            526.5431310747442240
    One-Electron Energy =               -1825.5528455954640776
    Two-Electron Energy =                 732.4830064229828395
    Total Energy =                       -566.5267080977370142
  Basis Set: (AUG-CC-PVTZ AUX)
    Blend: AUG-CC-PVTZ-RI
    Molecular point group: c1

    Geometry (in Angstrom), charge = 0, multiplicity = 1:

       Center              X                  Y                   Z               Mass
    ------------   -----------------  -----------------  -----------------  -----------------
         F            1.873154035552     1.250864278862    -0.000406593585    18.998403162730
         F            1.826156035552    -0.638632721138     1.086846406415    18.998403162730
         F            1.826203035552    -0.639367721138    -1.086390593585    18.998403162730
         C           -0.157408964448     0.025140278862    -0.000042593585    12.000000000000
         C           -0.821899264448     1.252021078862    -0.000022593585    12.000000000000
         C           -0.829442964448    -1.201531721138    -0.000026593585    12.000000000000
         C            1.338486035552     0.008573278862    -0.000000593585    12.000000000000
         C           -2.260187964448     1.200070278862     0.000000406415    12.000000000000
         C           -2.222598964448    -1.219546721138     0.000000406415    12.000000000000
         C           -2.939310964448    -0.019299721138     0.000016406415    12.000000000000
         H           -0.330164964448     2.172832278862    -0.000039593585     1.007825032230
         H           -0.264023964448    -2.130076721138    -0.000049593585     1.007825032230
         H           -2.816909964448     2.133596278862     0.000008406415     1.007825032230
         H           -2.750455964448    -2.169688721138     0.000008406415     1.007825032230
         H           -4.026293964448    -0.036010721138     0.000039406415     1.007825032230

  Basis Set: AUG-CC-PVTZ
    Blend: AUG-CC-PVTZ
  Basis Set: (AUG-CC-PVTZ AUX)
    Blend: AUG-CC-PVTZ-JKFIT
	 Reference Energy          =    -566.5267080977370142 [Eh]
	 Singles Energy            =      -0.0000000000000000 [Eh]
	 Same-Spin Energy          =      -0.5181880583790721 [Eh]
	 Opposite-Spin Energy      =      -1.5397956090052882 [Eh]
	 Correlation Energy        =      -2.0579836673843603 [Eh]
	 Total Energy              =    -568.5846917651214198 [Eh]

	 ================> DF-SCS-MP2 Energies <==================
	-----------------------------------------------------------
	 SCS Same-Spin Scale       =       0.3333333333333333 [-]
	 SCS Opposite-Spin Scale   =       1.2000000000000000 [-]
	 SCS Same-Spin Energy      =      -0.1727293527930240 [Eh]
	 SCS Opposite-Spin Energy  =      -1.8477547308063458 [Eh]
	 SCS Correlation Energy    =      -2.0204840835993698 [Eh]
	 SCS Total Energy          =    -568.5471921813364133 [Eh]
	-----------------------------------------------------------

  Dipole Moment: [D]
     X:    -2.9065      Y:     0.0592      Z:    -0.0000     Total:     2.9071

*** Psi4 exiting successfully. Buy a developer a beer!
