                               Psi4 1.3.2 release

  ==> Input File <==

--------------------------------------------------------------------------
#psi4
#
memory 32 gb

molecule  {
0 1
  F        1.9384850     1.2707219    -0.0004131
  F        1.9351680    -0.6366780     1.0868470
  F        1.9352150    -0.6374130    -1.0863900
  C       -0.0483970     0.0270950    -0.0000420
  C       -0.7553000     1.2300380    -0.0000240
  C       -0.7204310    -1.1995770    -0.0000260
  C        1.4474980     0.0105280     0.0000000
  C       -2.1511760     1.2020250     0.0000010
  C       -2.1135870    -1.2175920     0.0000010
  C       -2.8302990    -0.0173450     0.0000170
  H       -0.2211530     2.1747870    -0.0000390
  H       -0.1550120    -2.1281220    -0.0000490
  H       -2.7078980     2.1355510     0.0000090
  H       -2.6414440    -2.1677340     0.0000090
  H       -3.9172820    -0.0340560     0.0000400
units angstrom
no_reorient  #important for SAPT in psi4, default
symmetry c1  #important for SAPT in psi4, default
}

set PROPERTIES_ORIGIN ["COM"]
properties('MP2/aug-cc-pvtz', properties = ['dipole'])
--------------------------------------------------------------------------

    Molecular point group: c1
  Charge       = 0
  Multiplicity = 1
  Basis Set: AUG-CC-PVTZ
    Blend: AUG-CC-PVTZ
  Basis Set: (AUG-CC-PVTZ AUX)
    Blend: AUG-CC-PVTZ-JKFIT

    Orbital Energies [Eh]
    ---------------------

    Doubly Occupied:

       1A    -26.338863     2A    -26.334508     3A    -26.334486
       4A    -11.510503     5A    -11.268992     6A    -11.262854
       7A    -11.262648     8A    -11.259683     9A    -11.256293
      10A    -11.255749    11A     -1.718810    12A     -1.631290
      13A     -1.625298    14A     -1.180402    15A     -1.071563
      16A     -1.037851    17A     -0.962720    18A     -0.863516
      19A     -0.857553    20A     -0.813266    21A     -0.808453
      22A     -0.785925    23A     -0.712586    24A     -0.704391
      25A     -0.700440    26A     -0.665739    27A     -0.659280
      28A     -0.651854    29A     -0.645972    30A     -0.637165
      31A     -0.607022    32A     -0.588670    33A     -0.524487
      34A     -0.521101    35A     -0.517426    36A     -0.363328
      37A     -0.357179

  @DF-RHF Final Energy:  -566.52961065820250

   => Energetics <=

    Nuclear Repulsion Energy =            527.1735438637922471
    One-Electron Energy =               -1826.8105752124795345
    Two-Electron Energy =                 733.1074206904847870
    Total Energy =                       -566.5296106582025004
  Basis Set: (AUG-CC-PVTZ AUX)
    Blend: AUG-CC-PVTZ-RI
    Molecular point group: c1

    Geometry (in Angstrom), charge = 0, multiplicity = 1:

       Center              X                  Y                   Z               Mass
    ------------   -----------------  -----------------  -----------------  -----------------
         F            1.838640890850     1.268405120775    -0.000412605562    18.998403162730
         F            1.835323890850    -0.638994779225     1.086847494438    18.998403162730
         F            1.835370890850    -0.639729779225    -1.086389505562    18.998403162730
         C           -0.148241109150     0.024778220775    -0.000041505562    12.000000000000
         C           -0.855144109150     1.227721220775    -0.000023505562    12.000000000000
         C           -0.820275109150    -1.201893779225    -0.000025505562    12.000000000000
         C            1.347653890850     0.008211220775     0.000000494438    12.000000000000
         C           -2.251020109150     1.199708220775     0.000001494438    12.000000000000
         C           -2.213431109150    -1.219908779225     0.000001494438    12.000000000000
         C           -2.930143109150    -0.019661779225     0.000017494438    12.000000000000
         H           -0.320997109150     2.172470220775    -0.000038505562     1.007825032230
         H           -0.254856109150    -2.130438779225    -0.000048505562     1.007825032230
         H           -2.807742109150     2.133234220775     0.000009494438     1.007825032230
         H           -2.741288109150    -2.170050779225     0.000009494438     1.007825032230
         H           -4.017126109150    -0.036372779225     0.000040494438     1.007825032230

  Basis Set: AUG-CC-PVTZ
    Blend: AUG-CC-PVTZ
  Basis Set: (AUG-CC-PVTZ AUX)
    Blend: AUG-CC-PVTZ-JKFIT
	 Reference Energy          =    -566.5296106582025004 [Eh]
	 Singles Energy            =      -0.0000000000000000 [Eh]
	 Same-Spin Energy          =      -0.5183360096583214 [Eh]
	 Opposite-Spin Energy      =      -1.5396366290560675 [Eh]
	 Correlation Energy        =      -2.0579726387143888 [Eh]
	 Total Energy              =    -568.5875832969169323 [Eh]

	 ================> DF-SCS-MP2 Energies <==================
	-----------------------------------------------------------
	 SCS Same-Spin Scale       =       0.3333333333333333 [-]
	 SCS Opposite-Spin Scale   =       1.2000000000000000 [-]
	 SCS Same-Spin Energy      =      -0.1727786698861071 [Eh]
	 SCS Opposite-Spin Energy  =      -1.8475639548672809 [Eh]
	 SCS Correlation Energy    =      -2.0203426247533880 [Eh]
	 SCS Total Energy          =    -568.5499532829559257 [Eh]
	-----------------------------------------------------------

  Dipole Moment: [D]
     X:    -2.7951      Y:     0.0414      Z:    -0.0000     Total:     2.7954

*** Psi4 exiting successfully. Buy a developer a beer!
