                               Psi4 1.3.2 release

  ==> Input File <==

--------------------------------------------------------------------------
#psi4
#
memory 32 gb

molecule  {
0 1
  F        1.9821660     1.2528190    -0.0004060
  F        1.9351680    -0.6366780     1.0868470
  F        1.9352150    -0.6374130    -1.0863900
  C       -0.0483970     0.0270950    -0.0000420
  C       -0.7341981     1.2421919    -0.0000230
  C       -0.7204310    -1.1995770    -0.0000260
  C        1.4474980     0.0105280     0.0000000
  C       -2.1511760     1.2020250     0.0000010
  C       -2.1135870    -1.2175920     0.0000010
  C       -2.8302990    -0.0173450     0.0000170
  H       -0.2211530     2.1747870    -0.0000390
  H       -0.1550120    -2.1281220    -0.0000490
  H       -2.7078980     2.1355510     0.0000090
  H       -2.6414440    -2.1677340     0.0000090
  H       -3.9172820    -0.0340560     0.0000400
units angstrom
no_reorient  #important for SAPT in psi4, default
symmetry c1  #important for SAPT in psi4, default
}

set PROPERTIES_ORIGIN ["COM"]
properties('MP2/aug-cc-pvtz', properties = ['dipole'])
--------------------------------------------------------------------------

    Molecular point group: c1
  Charge       = 0
  Multiplicity = 1
  Basis Set: AUG-CC-PVTZ
    Blend: AUG-CC-PVTZ
  Basis Set: (AUG-CC-PVTZ AUX)
    Blend: AUG-CC-PVTZ-JKFIT

    Orbital Energies [Eh]
    ---------------------

    Doubly Occupied:

       1A    -26.337663     2A    -26.332431     3A    -26.332409
       4A    -11.509296     5A    -11.271154     6A    -11.264627
       7A    -11.263723     8A    -11.260479     9A    -11.258926
      10A    -11.257560    11A     -1.718499    12A     -1.628623
      13A     -1.623807    14A     -1.179714    15A     -1.072202
      16A     -1.036914    17A     -0.962111    18A     -0.863372
      19A     -0.859254    20A     -0.812282    21A     -0.806887
      22A     -0.785339    23A     -0.711494    24A     -0.704042
      25A     -0.701135    26A     -0.662717    27A     -0.657023
      28A     -0.654883    29A     -0.643815    30A     -0.637281
      31A     -0.607868    32A     -0.591128    33A     -0.523823
      34A     -0.522795    35A     -0.518693    36A     -0.365110
      37A     -0.355720

  @DF-RHF Final Energy:  -566.52929761123789

   => Energetics <=

    Nuclear Repulsion Energy =            526.7026894738156670
    One-Electron Energy =               -1825.8743808619410629
    Two-Electron Energy =                 732.6423937768876158
    Total Energy =                       -566.5292976112378938
  Basis Set: (AUG-CC-PVTZ AUX)
    Blend: AUG-CC-PVTZ-RI
    Molecular point group: c1

    Geometry (in Angstrom), charge = 0, multiplicity = 1:

       Center              X                  Y                   Z               Mass
    ------------   -----------------  -----------------  -----------------  -----------------
         F            1.874905196337     1.251832590872    -0.000406511413    18.998403162730
         F            1.827907196337    -0.637664409128     1.086846488587    18.998403162730
         F            1.827954196337    -0.638399409128    -1.086390511413    18.998403162730
         C           -0.155657803663     0.026108590872    -0.000042511413    12.000000000000
         C           -0.841458903663     1.241205490872    -0.000023511413    12.000000000000
         C           -0.827691803663    -1.200563409128    -0.000026511413    12.000000000000
         C            1.340237196337     0.009541590872    -0.000000511413    12.000000000000
         C           -2.258436803663     1.201038590872     0.000000488587    12.000000000000
         C           -2.220847803663    -1.218578409128     0.000000488587    12.000000000000
         C           -2.937559803663    -0.018331409128     0.000016488587    12.000000000000
         H           -0.328413803663     2.173800590872    -0.000039511413     1.007825032230
         H           -0.262272803663    -2.129108409128    -0.000049511413     1.007825032230
         H           -2.815158803663     2.134564590872     0.000008488587     1.007825032230
         H           -2.748704803663    -2.168720409128     0.000008488587     1.007825032230
         H           -4.024542803663    -0.035042409128     0.000039488587     1.007825032230

  Basis Set: AUG-CC-PVTZ
    Blend: AUG-CC-PVTZ
  Basis Set: (AUG-CC-PVTZ AUX)
    Blend: AUG-CC-PVTZ-JKFIT
	 Reference Energy          =    -566.5292976112378938 [Eh]
	 Singles Energy            =      -0.0000000000000000 [Eh]
	 Same-Spin Energy          =      -0.5182016028448934 [Eh]
	 Opposite-Spin Energy      =      -1.5395825182225398 [Eh]
	 Correlation Energy        =      -2.0577841210674332 [Eh]
	 Total Energy              =    -568.5870817323053643 [Eh]

	 ================> DF-SCS-MP2 Energies <==================
	-----------------------------------------------------------
	 SCS Same-Spin Scale       =       0.3333333333333333 [-]
	 SCS Opposite-Spin Scale   =       1.2000000000000000 [-]
	 SCS Same-Spin Energy      =      -0.1727338676149645 [Eh]
	 SCS Opposite-Spin Energy  =      -1.8474990218670477 [Eh]
	 SCS Correlation Energy    =      -2.0202328894820121 [Eh]
	 SCS Total Energy          =    -568.5495305007199249 [Eh]
	-----------------------------------------------------------

  Dipole Moment: [D]
     X:    -2.9022      Y:     0.0552      Z:    -0.0000     Total:     2.9028

*** Psi4 exiting successfully. Buy a developer a beer!
