                               Psi4 1.3.2 release

  ==> Input File <==

--------------------------------------------------------------------------
#psi4
#
memory 32 gb

molecule  {
0 1
  F        1.9821660     1.2528190    -0.0004060
  F        1.9351680    -0.6366780     1.0868470
  F        1.9352150    -0.6374130    -1.0863900
  C       -0.0483970     0.0270950    -0.0000420
  C       -0.8771693     1.1495567    -0.0000300
  C       -0.7204310    -1.1995770    -0.0000260
  C        1.4474980     0.0105280     0.0000000
  C       -2.1511760     1.2020250     0.0000010
  C       -2.1135870    -1.2175920     0.0000010
  C       -2.8302990    -0.0173450     0.0000170
  H       -0.2211530     2.1747870    -0.0000390
  H       -0.1550120    -2.1281220    -0.0000490
  H       -2.7078980     2.1355510     0.0000090
  H       -2.6414440    -2.1677340     0.0000090
  H       -3.9172820    -0.0340560     0.0000400
units angstrom
no_reorient  #important for SAPT in psi4, default
symmetry c1  #important for SAPT in psi4, default
}

set PROPERTIES_ORIGIN ["COM"]
properties('MP2/aug-cc-pvtz', properties = ['dipole'])
--------------------------------------------------------------------------

    Molecular point group: c1
  Charge       = 0
  Multiplicity = 1
  Basis Set: AUG-CC-PVTZ
    Blend: AUG-CC-PVTZ
  Basis Set: (AUG-CC-PVTZ AUX)
    Blend: AUG-CC-PVTZ-JKFIT

    Orbital Energies [Eh]
    ---------------------

    Doubly Occupied:

       1A    -26.337839     2A    -26.334763     3A    -26.334741
       4A    -11.514563     5A    -11.269023     6A    -11.265364
       7A    -11.262034     8A    -11.259176     9A    -11.254428
      10A    -11.240968    11A     -1.719900    12A     -1.629281
      13A     -1.625881    14A     -1.194376    15A     -1.077075
      16A     -1.047385    17A     -0.964124    18A     -0.870379
      19A     -0.850162    20A     -0.813839    21A     -0.805700
      22A     -0.793479    23A     -0.712731    24A     -0.705321
      25A     -0.699969    26A     -0.665906    27A     -0.658435
      28A     -0.648608    29A     -0.645253    30A     -0.642085
      31A     -0.606494    32A     -0.582454    33A     -0.537031
      34A     -0.534675    35A     -0.484553    36A     -0.372907
      37A     -0.359852

  @DF-RHF Final Energy:  -566.50175245241360

   => Energetics <=

    Nuclear Repulsion Energy =            528.1591536250641639
    One-Electron Energy =               -1828.6803087228056484
    Two-Electron Energy =                 734.0194026453278866
    Total Energy =                       -566.5017524524135979
  Basis Set: (AUG-CC-PVTZ AUX)
    Blend: AUG-CC-PVTZ-RI
    Molecular point group: c1

    Geometry (in Angstrom), charge = 0, multiplicity = 1:

       Center              X                  Y                   Z               Mass
    ------------   -----------------  -----------------  -----------------  -----------------
         F            1.886653491038     1.259444652807    -0.000405936205    18.998403162730
         F            1.839655491038    -0.630052347193     1.086847063795    18.998403162730
         F            1.839702491038    -0.630787347193    -1.086389936205    18.998403162730
         C           -0.143909508962     0.033720652807    -0.000041936205    12.000000000000
         C           -0.972681808962     1.156182352807    -0.000029936205    12.000000000000
         C           -0.815943508962    -1.192951347193    -0.000025936205    12.000000000000
         C            1.351985491038     0.017153652807     0.000000063795    12.000000000000
         C           -2.246688508962     1.208650652807     0.000001063795    12.000000000000
         C           -2.209099508962    -1.210966347193     0.000001063795    12.000000000000
         C           -2.925811508962    -0.010719347193     0.000017063795    12.000000000000
         H           -0.316665508962     2.181412652807    -0.000038936205     1.007825032230
         H           -0.250524508962    -2.121496347193    -0.000048936205     1.007825032230
         H           -2.803410508962     2.142176652807     0.000009063795     1.007825032230
         H           -2.736956508962    -2.161108347193     0.000009063795     1.007825032230
         H           -4.012794508962    -0.027430347193     0.000040063795     1.007825032230

  Basis Set: AUG-CC-PVTZ
    Blend: AUG-CC-PVTZ
  Basis Set: (AUG-CC-PVTZ AUX)
    Blend: AUG-CC-PVTZ-JKFIT
	 Reference Energy          =    -566.5017524524135979 [Eh]
	 Singles Energy            =      -0.0000000000000000 [Eh]
	 Same-Spin Energy          =      -0.5187718845055618 [Eh]
	 Opposite-Spin Energy      =      -1.5404245318871301 [Eh]
	 Correlation Energy        =      -2.0591964163926919 [Eh]
	 Total Energy              =    -568.5609488688062356 [Eh]

	 ================> DF-SCS-MP2 Energies <==================
	-----------------------------------------------------------
	 SCS Same-Spin Scale       =       0.3333333333333333 [-]
	 SCS Opposite-Spin Scale   =       1.2000000000000000 [-]
	 SCS Same-Spin Energy      =      -0.1729239615018539 [Eh]
	 SCS Opposite-Spin Energy  =      -1.8485094382645562 [Eh]
	 SCS Correlation Energy    =      -2.0214333997664102 [Eh]
	 SCS Total Energy          =    -568.5231858521800632 [Eh]
	-----------------------------------------------------------

  Dipole Moment: [D]
     X:    -2.9013      Y:    -0.0424      Z:    -0.0000     Total:     2.9016

*** Psi4 exiting successfully. Buy a developer a beer!
