                               Psi4 1.3.2 release

  ==> Input File <==

--------------------------------------------------------------------------
#psi4
#
memory 32 gb

molecule  {
0 1
  F        1.9821660     1.2528190    -0.0004060
  F        1.9351680    -0.6366780     1.0868470
  F        1.9352150    -0.6374130    -1.0863900
  C       -0.0483970     0.0270950    -0.0000420
  C       -0.7553000     1.2300380    -0.0000240
  C       -0.7204310    -1.1995770    -0.0000260
  C        1.6474857     0.0083131     0.0000056
  C       -2.1511760     1.2020250     0.0000010
  C       -2.1135870    -1.2175920     0.0000010
  C       -2.8302990    -0.0173450     0.0000170
  H       -0.2211530     2.1747870    -0.0000390
  H       -0.1550120    -2.1281220    -0.0000490
  H       -2.7078980     2.1355510     0.0000090
  H       -2.6414440    -2.1677340     0.0000090
  H       -3.9172820    -0.0340560     0.0000400
units angstrom
no_reorient  #important for SAPT in psi4, default
symmetry c1  #important for SAPT in psi4, default
}

set PROPERTIES_ORIGIN ["COM"]
properties('MP2/aug-cc-pvtz', properties = ['dipole'])
--------------------------------------------------------------------------

    Molecular point group: c1
  Charge       = 0
  Multiplicity = 1
  Basis Set: AUG-CC-PVTZ
    Blend: AUG-CC-PVTZ
  Basis Set: (AUG-CC-PVTZ AUX)
    Blend: AUG-CC-PVTZ-JKFIT

    Orbital Energies [Eh]
    ---------------------

    Doubly Occupied:

       1A    -26.362330     2A    -26.356341     3A    -26.356320
       4A    -11.518434     5A    -11.258048     6A    -11.246139
       7A    -11.245763     8A    -11.244965     9A    -11.244524
      10A    -11.243174    11A     -1.764469    12A     -1.675668
      13A     -1.669145    14A     -1.159547    15A     -1.037382
      16A     -1.023668    17A     -0.974812    18A     -0.863798
      19A     -0.861462    20A     -0.857293    21A     -0.831345
      22A     -0.790813    23A     -0.731503    24A     -0.729435
      25A     -0.699046    26A     -0.695703    27A     -0.695351
      28A     -0.672372    29A     -0.634485    30A     -0.624684
      31A     -0.595081    32A     -0.554263    33A     -0.509966
      34A     -0.503716    35A     -0.468751    36A     -0.345806
      37A     -0.344132

  @DF-RHF Final Energy:  -566.49759388470466

   => Energetics <=

    Nuclear Repulsion Energy =            526.4926230056233862
    One-Electron Energy =               -1825.2009685144396371
    Two-Electron Energy =                 732.2107516241117082
    Total Energy =                       -566.4975938847046564
  Basis Set: (AUG-CC-PVTZ AUX)
    Blend: AUG-CC-PVTZ-RI
    Molecular point group: c1

    Geometry (in Angstrom), charge = 0, multiplicity = 1:

       Center              X                  Y                   Z               Mass
    ------------   -----------------  -----------------  -----------------  -----------------
         F            1.860205710732     1.253013310464    -0.000406889406    18.998403162730
         F            1.813207710732    -0.636483689536     1.086846110594    18.998403162730
         F            1.813254710732    -0.637218689536    -1.086390889406    18.998403162730
         C           -0.170357289268     0.027289310464    -0.000042889406    12.000000000000
         C           -0.877260289268     1.230232310464    -0.000024889406    12.000000000000
         C           -0.842391289268    -1.199382689536    -0.000026889406    12.000000000000
         C            1.525525410732     0.008507410464     0.000004710594    12.000000000000
         C           -2.273136289268     1.202219310464     0.000000110594    12.000000000000
         C           -2.235547289268    -1.217397689536     0.000000110594    12.000000000000
         C           -2.952259289268    -0.017150689536     0.000016110594    12.000000000000
         H           -0.343113289268     2.174981310464    -0.000039889406     1.007825032230
         H           -0.276972289268    -2.127927689536    -0.000049889406     1.007825032230
         H           -2.829858289268     2.135745310464     0.000008110594     1.007825032230
         H           -2.763404289268    -2.167539689536     0.000008110594     1.007825032230
         H           -4.039242289268    -0.033861689536     0.000039110594     1.007825032230

  Basis Set: AUG-CC-PVTZ
    Blend: AUG-CC-PVTZ
  Basis Set: (AUG-CC-PVTZ AUX)
    Blend: AUG-CC-PVTZ-JKFIT
	 Reference Energy          =    -566.4975938847046564 [Eh]
	 Singles Energy            =      -0.0000000000000000 [Eh]
	 Same-Spin Energy          =      -0.5177075890960779 [Eh]
	 Opposite-Spin Energy      =      -1.5365741983327266 [Eh]
	 Correlation Energy        =      -2.0542817874288044 [Eh]
	 Total Energy              =    -568.5518756721334057 [Eh]

	 ================> DF-SCS-MP2 Energies <==================
	-----------------------------------------------------------
	 SCS Same-Spin Scale       =       0.3333333333333333 [-]
	 SCS Opposite-Spin Scale   =       1.2000000000000000 [-]
	 SCS Same-Spin Energy      =      -0.1725691963653593 [Eh]
	 SCS Opposite-Spin Energy  =      -1.8438890379992718 [Eh]
	 SCS Correlation Energy    =      -2.0164582343646313 [Eh]
	 SCS Total Energy          =    -568.5140521190693335 [Eh]
	-----------------------------------------------------------

  Dipole Moment: [D]
     X:    -0.9406      Y:     0.0447      Z:    -0.0000     Total:     0.9417

*** Psi4 exiting successfully. Buy a developer a beer!
