                               Psi4 1.3.2 release

  ==> Input File <==

--------------------------------------------------------------------------
#psi4
#
memory 32 gb

molecule  {
0 1
  F        1.8942057     1.2870894    -0.0004197
  F        1.9351680    -0.6366780     1.0868470
  F        1.9352150    -0.6374130    -1.0863900
  C       -0.0483970     0.0270950    -0.0000420
  C       -0.7553000     1.2300380    -0.0000240
  C       -0.7204310    -1.1995770    -0.0000260
  C        1.4474980     0.0105280     0.0000000
  C       -2.1511760     1.2020250     0.0000010
  C       -2.1135870    -1.2175920     0.0000010
  C       -2.8302990    -0.0173450     0.0000170
  H       -0.2211530     2.1747870    -0.0000390
  H       -0.1550120    -2.1281220    -0.0000490
  H       -2.7078980     2.1355510     0.0000090
  H       -2.6414440    -2.1677340     0.0000090
  H       -3.9172820    -0.0340560     0.0000400
units angstrom
no_reorient  #important for SAPT in psi4, default
symmetry c1  #important for SAPT in psi4, default
}

set PROPERTIES_ORIGIN ["COM"]
properties('MP2/aug-cc-pvtz', properties = ['dipole'])
--------------------------------------------------------------------------

    Molecular point group: c1
  Charge       = 0
  Multiplicity = 1
  Basis Set: AUG-CC-PVTZ
    Blend: AUG-CC-PVTZ
  Basis Set: (AUG-CC-PVTZ AUX)
    Blend: AUG-CC-PVTZ-JKFIT

    Orbital Energies [Eh]
    ---------------------

    Doubly Occupied:

       1A    -26.339875     2A    -26.336222     3A    -26.336200
       4A    -11.510968     5A    -11.267386     6A    -11.261782
       7A    -11.261528     8A    -11.258898     9A    -11.255482
      10A    -11.254953    11A     -1.718975    12A     -1.633781
      13A     -1.626483    14A     -1.179479    15A     -1.070954
      16A     -1.037013    17A     -0.963066    18A     -0.863073
      19A     -0.857035    20A     -0.814030    21A     -0.810225
      22A     -0.785596    23A     -0.714000    24A     -0.704584
      25A     -0.699885    26A     -0.668494    27A     -0.661318
      28A     -0.651002    29A     -0.647814    30A     -0.636189
      31A     -0.606070    32A     -0.586666    33A     -0.523645
      34A     -0.520008    35A     -0.516530    36A     -0.362434
      37A     -0.356382

  @DF-RHF Final Energy:  -566.52820729519067

   => Energetics <=

    Nuclear Repulsion Energy =            527.5092485537913944
    One-Electron Energy =               -1827.4788576386383738
    Two-Electron Energy =                 733.4414017896563109
    Total Energy =                       -566.5282072951906684
  Basis Set: (AUG-CC-PVTZ AUX)
    Blend: AUG-CC-PVTZ-RI
    Molecular point group: c1

    Geometry (in Angstrom), charge = 0, multiplicity = 1:

       Center              X                  Y                   Z               Mass
    ------------   -----------------  -----------------  -----------------  -----------------
         F            1.800122126516     1.282643283420    -0.000418346932    18.998403162730
         F            1.841084426516    -0.641124116580     1.086848353068    18.998403162730
         F            1.841131426516    -0.641859116580    -1.086388646932    18.998403162730
         C           -0.142480573484     0.022648883420    -0.000040646932    12.000000000000
         C           -0.849383573484     1.225591883420    -0.000022646932    12.000000000000
         C           -0.814514573484    -1.204023116580    -0.000024646932    12.000000000000
         C            1.353414426516     0.006081883420     0.000001353068    12.000000000000
         C           -2.245259573484     1.197578883420     0.000002353068    12.000000000000
         C           -2.207670573484    -1.222038116580     0.000002353068    12.000000000000
         C           -2.924382573484    -0.021791116580     0.000018353068    12.000000000000
         H           -0.315236573484     2.170340883420    -0.000037646932     1.007825032230
         H           -0.249095573484    -2.132568116580    -0.000047646932     1.007825032230
         H           -2.801981573484     2.131104883420     0.000010353068     1.007825032230
         H           -2.735527573484    -2.172180116580     0.000010353068     1.007825032230
         H           -4.011365573484    -0.038502116580     0.000041353068     1.007825032230

  Basis Set: AUG-CC-PVTZ
    Blend: AUG-CC-PVTZ
  Basis Set: (AUG-CC-PVTZ AUX)
    Blend: AUG-CC-PVTZ-JKFIT
	 Reference Energy          =    -566.5282072951906684 [Eh]
	 Singles Energy            =      -0.0000000000000000 [Eh]
	 Same-Spin Energy          =      -0.5184637341426834 [Eh]
	 Opposite-Spin Energy      =      -1.5398567481901901 [Eh]
	 Correlation Energy        =      -2.0583204823328733 [Eh]
	 Total Energy              =    -568.5865277775235427 [Eh]

	 ================> DF-SCS-MP2 Energies <==================
	-----------------------------------------------------------
	 SCS Same-Spin Scale       =       0.3333333333333333 [-]
	 SCS Opposite-Spin Scale   =       1.2000000000000000 [-]
	 SCS Same-Spin Energy      =      -0.1728212447142278 [Eh]
	 SCS Opposite-Spin Energy  =      -1.8478280978282280 [Eh]
	 SCS Correlation Energy    =      -2.0206493425424559 [Eh]
	 SCS Total Energy          =    -568.5488566377331381 [Eh]
	-----------------------------------------------------------

  Dipole Moment: [D]
     X:    -2.6892      Y:     0.0359      Z:    -0.0000     Total:     2.6894

*** Psi4 exiting successfully. Buy a developer a beer!
