                               Psi4 1.3.2 release

  ==> Input File <==

--------------------------------------------------------------------------
#psi4
#
memory 32 gb

molecule  {
0 1
  F        2.0037655     1.2432986    -0.0004023
  F        1.9351680    -0.6366780     1.0868470
  F        1.9352150    -0.6374130    -1.0863900
  C       -0.0483970     0.0270950    -0.0000420
  C       -0.7553000     1.2300380    -0.0000240
  C       -0.7204310    -1.1995770    -0.0000260
  C        1.4474980     0.0105280     0.0000000
  C       -2.1511760     1.2020250     0.0000010
  C       -2.1135870    -1.2175920     0.0000010
  C       -2.8302990    -0.0173450     0.0000170
  H       -0.2211530     2.1747870    -0.0000390
  H       -0.1550120    -2.1281220    -0.0000490
  H       -2.7078980     2.1355510     0.0000090
  H       -2.6414440    -2.1677340     0.0000090
  H       -3.9172820    -0.0340560     0.0000400
units angstrom
no_reorient  #important for SAPT in psi4, default
symmetry c1  #important for SAPT in psi4, default
}

set PROPERTIES_ORIGIN ["COM"]
properties('MP2/aug-cc-pvtz', properties = ['dipole'])
--------------------------------------------------------------------------

    Molecular point group: c1
  Charge       = 0
  Multiplicity = 1
  Basis Set: AUG-CC-PVTZ
    Blend: AUG-CC-PVTZ
  Basis Set: (AUG-CC-PVTZ AUX)
    Blend: AUG-CC-PVTZ-JKFIT

    Orbital Energies [Eh]
    ---------------------

    Doubly Occupied:

       1A    -26.337116     2A    -26.331895     3A    -26.331874
       4A    -11.509821     5A    -11.271364     6A    -11.264399
       7A    -11.264237     8A    -11.260815     9A    -11.257461
      10A    -11.256884    11A     -1.718687    12A     -1.627439
      13A     -1.623514    14A     -1.181737    15A     -1.072457
      16A     -1.039067    17A     -0.962230    18A     -0.864468
      19A     -0.858101    20A     -0.812136    21A     -0.805724
      22A     -0.786397    23A     -0.710986    24A     -0.704174
      25A     -0.700645    26A     -0.661550    27A     -0.656212
      28A     -0.653059    29A     -0.643032    30A     -0.638400
      31A     -0.608371    32A     -0.591405    33A     -0.525697
      34A     -0.522690    35A     -0.518669    36A     -0.364620
      37A     -0.358325

  @DF-RHF Final Energy:  -566.53035402486603

   => Energetics <=

    Nuclear Repulsion Energy =            526.7390249514523930
    One-Electron Energy =               -1825.9474461612799132
    Two-Electron Energy =                 732.6780671849614919
    Total Energy =                       -566.5303540248660283
  Basis Set: (AUG-CC-PVTZ AUX)
    Blend: AUG-CC-PVTZ-RI
    Molecular point group: c1

    Geometry (in Angstrom), charge = 0, multiplicity = 1:

       Center              X                  Y                   Z               Mass
    ------------   -----------------  -----------------  -----------------  -----------------
         F            1.895428694522     1.244549467456    -0.000403210593    18.998403162730
         F            1.826831194522    -0.635427132544     1.086846089407    18.998403162730
         F            1.826878194522    -0.636162132544    -1.086390910593    18.998403162730
         C           -0.156733805478     0.028345867456    -0.000042910593    12.000000000000
         C           -0.863636805478     1.231288867456    -0.000024910593    12.000000000000
         C           -0.828767805478    -1.198326132544    -0.000026910593    12.000000000000
         C            1.339161194522     0.011778867456    -0.000000910593    12.000000000000
         C           -2.259512805478     1.203275867456     0.000000089407    12.000000000000
         C           -2.221923805478    -1.216341132544     0.000000089407    12.000000000000
         C           -2.938635805478    -0.016094132544     0.000016089407    12.000000000000
         H           -0.329489805478     2.176037867456    -0.000039910593     1.007825032230
         H           -0.263348805478    -2.126871132544    -0.000049910593     1.007825032230
         H           -2.816234805478     2.136801867456     0.000008089407     1.007825032230
         H           -2.749780805478    -2.166483132544     0.000008089407     1.007825032230
         H           -4.025618805478    -0.032805132544     0.000039089407     1.007825032230

  Basis Set: AUG-CC-PVTZ
    Blend: AUG-CC-PVTZ
  Basis Set: (AUG-CC-PVTZ AUX)
    Blend: AUG-CC-PVTZ-JKFIT
	 Reference Energy          =    -566.5303540248660283 [Eh]
	 Singles Energy            =      -0.0000000000000000 [Eh]
	 Same-Spin Energy          =      -0.5181889896075063 [Eh]
	 Opposite-Spin Energy      =      -1.5393852072638450 [Eh]
	 Correlation Energy        =      -2.0575741968713510 [Eh]
	 Total Energy              =    -568.5879282217373429 [Eh]

	 ================> DF-SCS-MP2 Energies <==================
	-----------------------------------------------------------
	 SCS Same-Spin Scale       =       0.3333333333333333 [-]
	 SCS Opposite-Spin Scale   =       1.2000000000000000 [-]
	 SCS Same-Spin Energy      =      -0.1727296632025021 [Eh]
	 SCS Opposite-Spin Energy  =      -1.8472622487166139 [Eh]
	 SCS Correlation Energy    =      -2.0199919119191159 [Eh]
	 SCS Total Energy          =    -568.5503459367851065 [Eh]
	-----------------------------------------------------------

  Dipole Moment: [D]
     X:    -2.9495      Y:     0.0538      Z:    -0.0000     Total:     2.9499

*** Psi4 exiting successfully. Buy a developer a beer!
