                               Psi4 1.3.2 release

  ==> Input File <==

--------------------------------------------------------------------------
#psi4
#
memory 32 gb

molecule  {
0 1
  F        2.0675214     1.2124963    -0.0003903
  F        1.9351680    -0.6366780     1.0868470
  F        1.9352150    -0.6374130    -1.0863900
  C       -0.0483970     0.0270950    -0.0000420
  C       -0.7553000     1.2300380    -0.0000240
  C       -0.7204310    -1.1995770    -0.0000260
  C        1.4474980     0.0105280     0.0000000
  C       -2.1511760     1.2020250     0.0000010
  C       -2.1135870    -1.2175920     0.0000010
  C       -2.8302990    -0.0173450     0.0000170
  H       -0.2211530     2.1747870    -0.0000390
  H       -0.1550120    -2.1281220    -0.0000490
  H       -2.7078980     2.1355510     0.0000090
  H       -2.6414440    -2.1677340     0.0000090
  H       -3.9172820    -0.0340560     0.0000400
units angstrom
no_reorient  #important for SAPT in psi4, default
symmetry c1  #important for SAPT in psi4, default
}

set PROPERTIES_ORIGIN ["COM"]
properties('MP2/aug-cc-pvtz', properties = ['dipole'])
--------------------------------------------------------------------------

    Molecular point group: c1
  Charge       = 0
  Multiplicity = 1
  Basis Set: AUG-CC-PVTZ
    Blend: AUG-CC-PVTZ
  Basis Set: (AUG-CC-PVTZ AUX)
    Blend: AUG-CC-PVTZ-JKFIT

    Orbital Energies [Eh]
    ---------------------

    Doubly Occupied:

       1A    -26.335093     2A    -26.329234     3A    -26.329212
       4A    -11.509159     5A    -11.273685     6A    -11.265868
       7A    -11.265727     8A    -11.261892     9A    -11.258573
      10A    -11.257951    11A     -1.718717    12A     -1.623419
      13A     -1.621727    14A     -1.183015    15A     -1.073328
      16A     -1.040233    17A     -0.961765    18A     -0.865595
      19A     -0.858525    20A     -0.811026    21A     -0.802892
      22A     -0.786839    23A     -0.710314    24A     -0.704051
      25A     -0.699763    26A     -0.657440    27A     -0.654156
      28A     -0.653152    29A     -0.639836    30A     -0.639253
      31A     -0.609628    32A     -0.593848    33A     -0.526847
      34A     -0.524207    35A     -0.519819    36A     -0.365851
      37A     -0.359415

  @DF-RHF Final Energy:  -566.52954392271374

   => Energetics <=

    Nuclear Repulsion Energy =            526.3853255663417485
    One-Electron Energy =               -1825.2476336787890432
    Two-Electron Energy =                 732.3327641897336662
    Total Energy =                       -566.5295439227137422
  Basis Set: (AUG-CC-PVTZ AUX)
    Blend: AUG-CC-PVTZ-RI
    Molecular point group: c1

    Geometry (in Angstrom), charge = 0, multiplicity = 1:

       Center              X                  Y                   Z               Mass
    ------------   -----------------  -----------------  -----------------  -----------------
         F            1.950890241724     1.217754406680    -0.000392771739    18.998403162730
         F            1.818536841724    -0.631419893320     1.086844528261    18.998403162730
         F            1.818583841724    -0.632154893320    -1.086392471739    18.998403162730
         C           -0.165028158276     0.032353106680    -0.000044471739    12.000000000000
         C           -0.871931158276     1.235296106680    -0.000026471739    12.000000000000
         C           -0.837062158276    -1.194318893320    -0.000028471739    12.000000000000
         C            1.330866841724     0.015786106680    -0.000002471739    12.000000000000
         C           -2.267807158276     1.207283106680    -0.000001471739    12.000000000000
         C           -2.230218158276    -1.212333893320    -0.000001471739    12.000000000000
         C           -2.946930158276    -0.012086893320     0.000014528261    12.000000000000
         H           -0.337784158276     2.180045106680    -0.000041471739     1.007825032230
         H           -0.271643158276    -2.122863893320    -0.000051471739     1.007825032230
         H           -2.824529158276     2.140809106680     0.000006528261     1.007825032230
         H           -2.758075158276    -2.162475893320     0.000006528261     1.007825032230
         H           -4.033913158276    -0.028797893320     0.000037528261     1.007825032230

  Basis Set: AUG-CC-PVTZ
    Blend: AUG-CC-PVTZ
  Basis Set: (AUG-CC-PVTZ AUX)
    Blend: AUG-CC-PVTZ-JKFIT
	 Reference Energy          =    -566.5295439227137422 [Eh]
	 Singles Energy            =      -0.0000000000000000 [Eh]
	 Same-Spin Energy          =      -0.5180931627810643 [Eh]
	 Opposite-Spin Energy      =      -1.5392240616555928 [Eh]
	 Correlation Energy        =      -2.0573172244366571 [Eh]
	 Total Energy              =    -568.5868611471504437 [Eh]

	 ================> DF-SCS-MP2 Energies <==================
	-----------------------------------------------------------
	 SCS Same-Spin Scale       =       0.3333333333333333 [-]
	 SCS Opposite-Spin Scale   =       1.2000000000000000 [-]
	 SCS Same-Spin Energy      =      -0.1726977209270214 [Eh]
	 SCS Opposite-Spin Energy  =      -1.8470688739867112 [Eh]
	 SCS Correlation Energy    =      -2.0197665949137327 [Eh]
	 SCS Total Energy          =    -568.5493105176274184 [Eh]
	-----------------------------------------------------------

  Dipole Moment: [D]
     X:    -3.0985      Y:     0.0707      Z:    -0.0001     Total:     3.0993

*** Psi4 exiting successfully. Buy a developer a beer!
