                               Psi4 1.3.2 release

  ==> Input File <==

--------------------------------------------------------------------------
#psi4
#
memory 32 gb

molecule  {
0 1
  F        1.9821660     1.2528190    -0.0004060
  F        1.9351680    -0.6366780     1.0868470
  F        1.9352150    -0.6374130    -1.0863900
  C       -0.0483970     0.0270950    -0.0000420
  C       -0.7553000     1.2300380    -0.0000240
  C       -0.7204310    -1.1995770    -0.0000260
  C        1.2475103     0.0127429    -0.0000056
  C       -2.1511760     1.2020250     0.0000010
  C       -2.1135870    -1.2175920     0.0000010
  C       -2.8302990    -0.0173450     0.0000170
  H       -0.2211530     2.1747870    -0.0000390
  H       -0.1550120    -2.1281220    -0.0000490
  H       -2.7078980     2.1355510     0.0000090
  H       -2.6414440    -2.1677340     0.0000090
  H       -3.9172820    -0.0340560     0.0000400
units angstrom
no_reorient  #important for SAPT in psi4, default
symmetry c1  #important for SAPT in psi4, default
}

set PROPERTIES_ORIGIN ["COM"]
properties('MP2/aug-cc-pvtz', properties = ['dipole'])
--------------------------------------------------------------------------

    Molecular point group: c1
  Charge       = 0
  Multiplicity = 1
  Basis Set: AUG-CC-PVTZ
    Blend: AUG-CC-PVTZ
  Basis Set: (AUG-CC-PVTZ AUX)
    Blend: AUG-CC-PVTZ-JKFIT

    Orbital Energies [Eh]
    ---------------------

    Doubly Occupied:

       1A    -26.309187     2A    -26.303114     3A    -26.303091
       4A    -11.507478     5A    -11.286841     6A    -11.286586
       7A    -11.281857     8A    -11.270628     9A    -11.269776
      10A    -11.266587    11A     -1.659944    12A     -1.574976
      13A     -1.570720    14A     -1.216732    15A     -1.119818
      16A     -1.056110    17A     -0.965484    18A     -0.875575
      19A     -0.853740    20A     -0.785437    21A     -0.760404
      22A     -0.755727    23A     -0.716279    24A     -0.680541
      25A     -0.671117    26A     -0.666489    27A     -0.643303
      28A     -0.629770    29A     -0.621089    30A     -0.612791
      31A     -0.609823    32A     -0.608532    33A     -0.548894
      34A     -0.540623    35A     -0.534057    36A     -0.386523
      37A     -0.372659

  @DF-RHF Final Energy:  -566.46126831336585

   => Energetics <=

    Nuclear Repulsion Energy =            527.1095448703389366
    One-Electron Energy =               -1826.8970219014381655
    Two-Electron Energy =                 733.3262087177332660
    Total Energy =                       -566.4612683133658493
  Basis Set: (AUG-CC-PVTZ AUX)
    Blend: AUG-CC-PVTZ-RI
    Molecular point group: c1

    Geometry (in Angstrom), charge = 0, multiplicity = 1:

       Center              X                  Y                   Z               Mass
    ------------   -----------------  -----------------  -----------------  -----------------
         F            1.893072671858     1.252649302916    -0.000405969074    18.998403162730
         F            1.846074671858    -0.636847697084     1.086847030926    18.998403162730
         F            1.846121671858    -0.637582697084    -1.086389969074    18.998403162730
         C           -0.137490328142     0.026925302916    -0.000041969074    12.000000000000
         C           -0.844393328142     1.229868302916    -0.000023969074    12.000000000000
         C           -0.809524328142    -1.199746697084    -0.000025969074    12.000000000000
         C            1.158416971858     0.012573202916    -0.000005569074    12.000000000000
         C           -2.240269328142     1.201855302916     0.000001030926    12.000000000000
         C           -2.202680328142    -1.217761697084     0.000001030926    12.000000000000
         C           -2.919392328142    -0.017514697084     0.000017030926    12.000000000000
         H           -0.310246328142     2.174617302916    -0.000038969074     1.007825032230
         H           -0.244105328142    -2.128291697084    -0.000048969074     1.007825032230
         H           -2.796991328142     2.135381302916     0.000009030926     1.007825032230
         H           -2.730537328142    -2.167903697084     0.000009030926     1.007825032230
         H           -4.006375328142    -0.034225697084     0.000040030926     1.007825032230

  Basis Set: AUG-CC-PVTZ
    Blend: AUG-CC-PVTZ
  Basis Set: (AUG-CC-PVTZ AUX)
    Blend: AUG-CC-PVTZ-JKFIT
	 Reference Energy          =    -566.4612683133658493 [Eh]
	 Singles Energy            =      -0.0000000000000000 [Eh]
	 Same-Spin Energy          =      -0.5233266881630750 [Eh]
	 Opposite-Spin Energy      =      -1.5514202332734486 [Eh]
	 Correlation Energy        =      -2.0747469214365237 [Eh]
	 Total Energy              =    -568.5360152348023348 [Eh]

	 ================> DF-SCS-MP2 Energies <==================
	-----------------------------------------------------------
	 SCS Same-Spin Scale       =       0.3333333333333333 [-]
	 SCS Opposite-Spin Scale   =       1.2000000000000000 [-]
	 SCS Same-Spin Energy      =      -0.1744422293876917 [Eh]
	 SCS Opposite-Spin Energy  =      -1.8617042799281383 [Eh]
	 SCS Correlation Energy    =      -2.0361465093158300 [Eh]
	 SCS Total Energy          =    -568.4974148226816624 [Eh]
	-----------------------------------------------------------

  Dipole Moment: [D]
     X:    -5.1444      Y:     0.0621      Z:    -0.0001     Total:     5.1448

*** Psi4 exiting successfully. Buy a developer a beer!
