                               Psi4 1.3.2 release

  ==> Input File <==

--------------------------------------------------------------------------
#psi4
#
memory 32 gb

molecule  {
0 1
  F        1.9821660     1.2528190    -0.0004060
  F        1.9351680    -0.6366780     1.0868470
  F        1.9352150    -0.6374130    -1.0863900
  C       -0.0483970     0.0270950    -0.0000420
  C       -0.6696650     1.2764188    -0.0000201
  C       -0.7204310    -1.1995770    -0.0000260
  C        1.4474980     0.0105280     0.0000000
  C       -2.1511760     1.2020250     0.0000010
  C       -2.1135870    -1.2175920     0.0000010
  C       -2.8302990    -0.0173450     0.0000170
  H       -0.2211530     2.1747870    -0.0000390
  H       -0.1550120    -2.1281220    -0.0000490
  H       -2.7078980     2.1355510     0.0000090
  H       -2.6414440    -2.1677340     0.0000090
  H       -3.9172820    -0.0340560     0.0000400
units angstrom
no_reorient  #important for SAPT in psi4, default
symmetry c1  #important for SAPT in psi4, default
}

set PROPERTIES_ORIGIN ["COM"]
properties('MP2/aug-cc-pvtz', properties = ['dipole'])
--------------------------------------------------------------------------

    Molecular point group: c1
  Charge       = 0
  Multiplicity = 1
  Basis Set: AUG-CC-PVTZ
    Blend: AUG-CC-PVTZ
  Basis Set: (AUG-CC-PVTZ AUX)
    Blend: AUG-CC-PVTZ-JKFIT

    Orbital Energies [Eh]
    ---------------------

    Doubly Occupied:

       1A    -26.337442     2A    -26.331403     3A    -26.331382
       4A    -11.507081     5A    -11.273383     6A    -11.267473
       7A    -11.266347     8A    -11.263464     9A    -11.260134
      10A    -11.258954    11A     -1.717872    12A     -1.628274
      13A     -1.622897    14A     -1.175791    15A     -1.073161
      16A     -1.031937    17A     -0.961334    18A     -0.865935
      19A     -0.859050    20A     -0.811608    21A     -0.807791
      22A     -0.783378    23A     -0.712766    24A     -0.703458
      25A     -0.702775    26A     -0.665470    27A     -0.659901
      28A     -0.656392    29A     -0.643137    30A     -0.636193
      31A     -0.605569    32A     -0.591814    33A     -0.531590
      34A     -0.520048    35A     -0.509116    36A     -0.368101
      37A     -0.349553

  @DF-RHF Final Energy:  -566.51679397937107

   => Energetics <=

    Nuclear Repulsion Energy =            526.2619285979476444
    One-Electron Energy =               -1824.9734938955180041
    Two-Electron Energy =                 732.1947713181992867
    Total Energy =                       -566.5167939793710730
  Basis Set: (AUG-CC-PVTZ AUX)
    Blend: AUG-CC-PVTZ-RI
    Molecular point group: c1

    Geometry (in Angstrom), charge = 0, multiplicity = 1:

       Center              X                  Y                   Z               Mass
    ------------   -----------------  -----------------  -----------------  -----------------
         F            1.869602352989     1.249020082423    -0.000406749713    18.998403162730
         F            1.822604352989    -0.640476917577     1.086846250287    18.998403162730
         F            1.822651352989    -0.641211917577    -1.086390749713    18.998403162730
         C           -0.160960647011     0.023296082423    -0.000042749713    12.000000000000
         C           -0.782228647011     1.272619882423    -0.000020849713    12.000000000000
         C           -0.832994647011    -1.203375917577    -0.000026749713    12.000000000000
         C            1.334934352989     0.006729082423    -0.000000749713    12.000000000000
         C           -2.263739647011     1.198226082423     0.000000250287    12.000000000000
         C           -2.226150647011    -1.221390917577     0.000000250287    12.000000000000
         C           -2.942862647011    -0.021143917577     0.000016250287    12.000000000000
         H           -0.333716647011     2.170988082423    -0.000039749713     1.007825032230
         H           -0.267575647011    -2.131920917577    -0.000049749713     1.007825032230
         H           -2.820461647011     2.131752082423     0.000008250287     1.007825032230
         H           -2.754007647011    -2.171532917577     0.000008250287     1.007825032230
         H           -4.029845647011    -0.037854917577     0.000039250287     1.007825032230

  Basis Set: AUG-CC-PVTZ
    Blend: AUG-CC-PVTZ
  Basis Set: (AUG-CC-PVTZ AUX)
    Blend: AUG-CC-PVTZ-JKFIT
	 Reference Energy          =    -566.5167939793710730 [Eh]
	 Singles Energy            =      -0.0000000000000000 [Eh]
	 Same-Spin Energy          =      -0.5182146098155519 [Eh]
	 Opposite-Spin Energy      =      -1.5404924975122802 [Eh]
	 Correlation Energy        =      -2.0587071073278320 [Eh]
	 Total Energy              =    -568.5755010866988641 [Eh]

	 ================> DF-SCS-MP2 Energies <==================
	-----------------------------------------------------------
	 SCS Same-Spin Scale       =       0.3333333333333333 [-]
	 SCS Opposite-Spin Scale   =       1.2000000000000000 [-]
	 SCS Same-Spin Energy      =      -0.1727382032718506 [Eh]
	 SCS Opposite-Spin Energy  =      -1.8485909970147363 [Eh]
	 SCS Correlation Energy    =      -2.0213292002865870 [Eh]
	 SCS Total Energy          =    -568.5381231796576458 [Eh]
	-----------------------------------------------------------

  Dipole Moment: [D]
     X:    -2.9159      Y:     0.0611      Z:    -0.0000     Total:     2.9165

*** Psi4 exiting successfully. Buy a developer a beer!
