                               Psi4 1.3.2 release

  ==> Input File <==

--------------------------------------------------------------------------
#psi4
#
memory 32 gb

molecule  {
0 1
  F        1.9821660     1.2528190    -0.0004060
  F        1.9351680    -0.6366780     1.0868470
  F        1.9352150    -0.6374130    -1.0863900
  C       -0.0483970     0.0270950    -0.0000420
  C       -0.8374911     1.1777966    -0.0000280
  C       -0.7204310    -1.1995770    -0.0000260
  C        1.4474980     0.0105280     0.0000000
  C       -2.1511760     1.2020250     0.0000010
  C       -2.1135870    -1.2175920     0.0000010
  C       -2.8302990    -0.0173450     0.0000170
  H       -0.2211530     2.1747870    -0.0000390
  H       -0.1550120    -2.1281220    -0.0000490
  H       -2.7078980     2.1355510     0.0000090
  H       -2.6414440    -2.1677340     0.0000090
  H       -3.9172820    -0.0340560     0.0000400
units angstrom
no_reorient  #important for SAPT in psi4, default
symmetry c1  #important for SAPT in psi4, default
}

set PROPERTIES_ORIGIN ["COM"]
properties('MP2/aug-cc-pvtz', properties = ['dipole'])
--------------------------------------------------------------------------

    Molecular point group: c1
  Charge       = 0
  Multiplicity = 1
  Basis Set: AUG-CC-PVTZ
    Blend: AUG-CC-PVTZ
  Basis Set: (AUG-CC-PVTZ AUX)
    Blend: AUG-CC-PVTZ-JKFIT

    Orbital Energies [Eh]
    ---------------------

    Doubly Occupied:

       1A    -26.337873     2A    -26.334110     3A    -26.334088
       4A    -11.513061     5A    -11.269160     6A    -11.264731
       7A    -11.261306     8A    -11.260498     9A    -11.255174
      10A    -11.246109    11A     -1.719527    12A     -1.629145
      13A     -1.625300    14A     -1.189274    15A     -1.074254
      16A     -1.045097    17A     -0.963537    18A     -0.868253
      19A     -0.852476    20A     -0.813410    21A     -0.805895
      22A     -0.790834    23A     -0.712050    24A     -0.704981
      25A     -0.699808    26A     -0.664704    27A     -0.658054
      28A     -0.647794    29A     -0.644878    30A     -0.641672
      31A     -0.606739    32A     -0.585741    33A     -0.532517
      34A     -0.531036    35A     -0.498040    36A     -0.367660
      37A     -0.361048

  @DF-RHF Final Energy:  -566.51788605506681

   => Energetics <=

    Nuclear Repulsion Energy =            527.6849298698334678
    One-Electron Energy =               -1827.7859610785374116
    Two-Electron Energy =                 733.5831451536371333
    Total Energy =                       -566.5178860550668105
  Basis Set: (AUG-CC-PVTZ AUX)
    Blend: AUG-CC-PVTZ-RI
    Molecular point group: c1

    Geometry (in Angstrom), charge = 0, multiplicity = 1:

       Center              X                  Y                   Z               Mass
    ------------   -----------------  -----------------  -----------------  -----------------
         F            1.883393035878     1.257124110855    -0.000406100550    18.998403162730
         F            1.836395035878    -0.632372889145     1.086846899450    18.998403162730
         F            1.836442035878    -0.633107889145    -1.086390100550    18.998403162730
         C           -0.147169964122     0.031400110855    -0.000042100550    12.000000000000
         C           -0.936264064122     1.182101710855    -0.000028100550    12.000000000000
         C           -0.819203964122    -1.195271889145    -0.000026100550    12.000000000000
         C            1.348725035878     0.014833110855    -0.000000100550    12.000000000000
         C           -2.249948964122     1.206330110855     0.000000899450    12.000000000000
         C           -2.212359964122    -1.213286889145     0.000000899450    12.000000000000
         C           -2.929071964122    -0.013039889145     0.000016899450    12.000000000000
         H           -0.319925964122     2.179092110855    -0.000039100550     1.007825032230
         H           -0.253784964122    -2.123816889145    -0.000049100550     1.007825032230
         H           -2.806670964122     2.139856110855     0.000008899450     1.007825032230
         H           -2.740216964122    -2.163428889145     0.000008899450     1.007825032230
         H           -4.016054964122    -0.029750889145     0.000039899450     1.007825032230

  Basis Set: AUG-CC-PVTZ
    Blend: AUG-CC-PVTZ
  Basis Set: (AUG-CC-PVTZ AUX)
    Blend: AUG-CC-PVTZ-JKFIT
	 Reference Energy          =    -566.5178860550668105 [Eh]
	 Singles Energy            =      -0.0000000000000000 [Eh]
	 Same-Spin Energy          =      -0.5185218018544387 [Eh]
	 Opposite-Spin Energy      =      -1.5398033533625948 [Eh]
	 Correlation Energy        =      -2.0583251552170334 [Eh]
	 Total Energy              =    -568.5762112102838728 [Eh]

	 ================> DF-SCS-MP2 Energies <==================
	-----------------------------------------------------------
	 SCS Same-Spin Scale       =       0.3333333333333333 [-]
	 SCS Opposite-Spin Scale   =       1.2000000000000000 [-]
	 SCS Same-Spin Energy      =      -0.1728406006181462 [Eh]
	 SCS Opposite-Spin Energy  =      -1.8477640240351136 [Eh]
	 SCS Correlation Energy    =      -2.0206046246532599 [Eh]
	 SCS Total Energy          =    -568.5384906797200983 [Eh]
	-----------------------------------------------------------

  Dipole Moment: [D]
     X:    -2.8941      Y:    -0.0003      Z:    -0.0000     Total:     2.8941

*** Psi4 exiting successfully. Buy a developer a beer!
