                               Psi4 1.3.2 release

  ==> Input File <==

--------------------------------------------------------------------------
#psi4
#
memory 32 gb

molecule  {
0 1
  F        1.9821660     1.2528190    -0.0004060
  F        1.9351680    -0.6366780     1.0868470
  F        1.9352150    -0.6374130    -1.0863900
  C       -0.0483970     0.0270950    -0.0000420
  C       -0.7968515     1.2046346    -0.0000260
  C       -0.7204310    -1.1995770    -0.0000260
  C        1.4474980     0.0105280     0.0000000
  C       -2.1511760     1.2020250     0.0000010
  C       -2.1135870    -1.2175920     0.0000010
  C       -2.8302990    -0.0173450     0.0000170
  H       -0.2211530     2.1747870    -0.0000390
  H       -0.1550120    -2.1281220    -0.0000490
  H       -2.7078980     2.1355510     0.0000090
  H       -2.6414440    -2.1677340     0.0000090
  H       -3.9172820    -0.0340560     0.0000400
units angstrom
no_reorient  #important for SAPT in psi4, default
symmetry c1  #important for SAPT in psi4, default
}

set PROPERTIES_ORIGIN ["COM"]
properties('MP2/aug-cc-pvtz', properties = ['dipole'])
--------------------------------------------------------------------------

    Molecular point group: c1
  Charge       = 0
  Multiplicity = 1
  Basis Set: AUG-CC-PVTZ
    Blend: AUG-CC-PVTZ
  Basis Set: (AUG-CC-PVTZ AUX)
    Blend: AUG-CC-PVTZ-JKFIT

    Orbital Energies [Eh]
    ---------------------

    Doubly Occupied:

       1A    -26.337830     2A    -26.333447     3A    -26.333425
       4A    -11.511553     5A    -11.269687     6A    -11.264239
       7A    -11.262053     8A    -11.260775     9A    -11.256063
      10A    -11.251363    11A     -1.719128    12A     -1.628960
      13A     -1.624710    14A     -1.184940    15A     -1.072685
      16A     -1.042091    17A     -0.962960    18A     -0.866118
      19A     -0.855106    20A     -0.812965    21A     -0.806225
      22A     -0.788371    23A     -0.711600    24A     -0.704617
      25A     -0.700047    26A     -0.663710    27A     -0.657652
      28A     -0.649285    29A     -0.644470    30A     -0.639935
      31A     -0.607397    32A     -0.588589    33A     -0.528631
      34A     -0.526840    35A     -0.509357    36A     -0.362726
      37A     -0.362440

  @DF-RHF Final Energy:  -566.52737663258233

   => Energetics <=

    Nuclear Repulsion Energy =            527.2559491918325421
    One-Electron Energy =               -1826.9626717385901884
    Two-Electron Energy =                 733.1793459141753146
    Total Energy =                       -566.5273766325823317
  Basis Set: (AUG-CC-PVTZ AUX)
    Blend: AUG-CC-PVTZ-RI
    Molecular point group: c1

    Geometry (in Angstrom), charge = 0, multiplicity = 1:

       Center              X                  Y                   Z               Mass
    ------------   -----------------  -----------------  -----------------  -----------------
         F            1.880053580118     1.254918766469    -0.000406264895    18.998403162730
         F            1.833055580118    -0.634578233531     1.086846735105    18.998403162730
         F            1.833102580118    -0.635313233531    -1.086390264895    18.998403162730
         C           -0.150509419882     0.029194766469    -0.000042264895    12.000000000000
         C           -0.898963919882     1.206734366469    -0.000026264895    12.000000000000
         C           -0.822543419882    -1.197477233531    -0.000026264895    12.000000000000
         C            1.345385580118     0.012627766469    -0.000000264895    12.000000000000
         C           -2.253288419882     1.204124766469     0.000000735105    12.000000000000
         C           -2.215699419882    -1.215492233531     0.000000735105    12.000000000000
         C           -2.932411419882    -0.015245233531     0.000016735105    12.000000000000
         H           -0.323265419882     2.176886766469    -0.000039264895     1.007825032230
         H           -0.257124419882    -2.126022233531    -0.000049264895     1.007825032230
         H           -2.810010419882     2.137650766469     0.000008735105     1.007825032230
         H           -2.743556419882    -2.165634233531     0.000008735105     1.007825032230
         H           -4.019394419882    -0.031956233531     0.000039735105     1.007825032230

  Basis Set: AUG-CC-PVTZ
    Blend: AUG-CC-PVTZ
  Basis Set: (AUG-CC-PVTZ AUX)
    Blend: AUG-CC-PVTZ-JKFIT
	 Reference Energy          =    -566.5273766325823317 [Eh]
	 Singles Energy            =      -0.0000000000000000 [Eh]
	 Same-Spin Energy          =      -0.5183433467032259 [Eh]
	 Opposite-Spin Energy      =      -1.5394703083212773 [Eh]
	 Correlation Energy        =      -2.0578136550245034 [Eh]
	 Total Energy              =    -568.5851902876067925 [Eh]

	 ================> DF-SCS-MP2 Energies <==================
	-----------------------------------------------------------
	 SCS Same-Spin Scale       =       0.3333333333333333 [-]
	 SCS Opposite-Spin Scale   =       1.2000000000000000 [-]
	 SCS Same-Spin Energy      =      -0.1727811155677419 [Eh]
	 SCS Opposite-Spin Energy  =      -1.8473643699855327 [Eh]
	 SCS Correlation Energy    =      -2.0201454855532748 [Eh]
	 SCS Total Energy          =    -568.5475221181355892 [Eh]
	-----------------------------------------------------------

  Dipole Moment: [D]
     X:    -2.8939      Y:     0.0297      Z:    -0.0000     Total:     2.8940

*** Psi4 exiting successfully. Buy a developer a beer!
