                               Psi4 1.3.2 release

  ==> Input File <==

--------------------------------------------------------------------------
#psi4
#
memory 32 gb

molecule  {
0 1
  F        2.1090918     1.1901256    -0.0003818
  F        1.9351680    -0.6366780     1.0868470
  F        1.9352150    -0.6374130    -1.0863900
  C       -0.0483970     0.0270950    -0.0000420
  C       -0.7553000     1.2300380    -0.0000240
  C       -0.7204310    -1.1995770    -0.0000260
  C        1.4474980     0.0105280     0.0000000
  C       -2.1511760     1.2020250     0.0000010
  C       -2.1135870    -1.2175920     0.0000010
  C       -2.8302990    -0.0173450     0.0000170
  H       -0.2211530     2.1747870    -0.0000390
  H       -0.1550120    -2.1281220    -0.0000490
  H       -2.7078980     2.1355510     0.0000090
  H       -2.6414440    -2.1677340     0.0000090
  H       -3.9172820    -0.0340560     0.0000400
units angstrom
no_reorient  #important for SAPT in psi4, default
symmetry c1  #important for SAPT in psi4, default
}

set PROPERTIES_ORIGIN ["COM"]
properties('MP2/aug-cc-pvtz', properties = ['dipole'])
--------------------------------------------------------------------------

    Molecular point group: c1
  Charge       = 0
  Multiplicity = 1
  Basis Set: AUG-CC-PVTZ
    Blend: AUG-CC-PVTZ
  Basis Set: (AUG-CC-PVTZ AUX)
    Blend: AUG-CC-PVTZ-JKFIT

    Orbital Energies [Eh]
    ---------------------

    Doubly Occupied:

       1A    -26.333589     2A    -26.327431     3A    -26.327410
       4A    -11.508730     5A    -11.275203     6A    -11.266806
       7A    -11.266669     8A    -11.262580     9A    -11.259284
      10A    -11.258628    11A     -1.718825    12A     -1.620632
      13A     -1.620538    14A     -1.183835    15A     -1.073895
      16A     -1.040982    17A     -0.961462    18A     -0.866376
      19A     -0.858796    20A     -0.810296    21A     -0.800951
      22A     -0.787109    23A     -0.710370    24A     -0.704026
      25A     -0.698573    26A     -0.655356    27A     -0.654339
      28A     -0.651133    29A     -0.639494    30A     -0.637536
      31A     -0.610413    32A     -0.595331    33A     -0.527580
      34A     -0.525175    35A     -0.520542    36A     -0.366640
      37A     -0.360110

  @DF-RHF Final Energy:  -566.52817116918789

   => Energetics <=

    Nuclear Repulsion Energy =            526.1934060389208980
    One-Electron Energy =               -1824.8698609863627098
    Two-Electron Energy =                 732.1482837782540400
    Total Energy =                       -566.5281711691878854
  Basis Set: (AUG-CC-PVTZ AUX)
    Blend: AUG-CC-PVTZ-RI
    Molecular point group: c1

    Geometry (in Angstrom), charge = 0, multiplicity = 1:

       Center              X                  Y                   Z               Mass
    ------------   -----------------  -----------------  -----------------  -----------------
         F            1.987052521635     1.198294033067    -0.000385377550    18.998403162730
         F            1.813128721635    -0.628509566933     1.086843422450    18.998403162730
         F            1.813175721635    -0.629244566933    -1.086393577550    18.998403162730
         C           -0.170436278365     0.035263433067    -0.000045577550    12.000000000000
         C           -0.877339278365     1.238206433067    -0.000027577550    12.000000000000
         C           -0.842470278365    -1.191408566933    -0.000029577550    12.000000000000
         C            1.325458721635     0.018696433067    -0.000003577550    12.000000000000
         C           -2.273215278365     1.210193433067    -0.000002577550    12.000000000000
         C           -2.235626278365    -1.209423566933    -0.000002577550    12.000000000000
         C           -2.952338278365    -0.009176566933     0.000013422450    12.000000000000
         H           -0.343192278365     2.182955433067    -0.000042577550     1.007825032230
         H           -0.277051278365    -2.119953566933    -0.000052577550     1.007825032230
         H           -2.829937278365     2.143719433067     0.000005422450     1.007825032230
         H           -2.763483278365    -2.159565566933     0.000005422450     1.007825032230
         H           -4.039321278365    -0.025887566933     0.000036422450     1.007825032230

  Basis Set: AUG-CC-PVTZ
    Blend: AUG-CC-PVTZ
  Basis Set: (AUG-CC-PVTZ AUX)
    Blend: AUG-CC-PVTZ-JKFIT
	 Reference Energy          =    -566.5281711691878854 [Eh]
	 Singles Energy            =      -0.0000000000000000 [Eh]
	 Same-Spin Energy          =      -0.5180566900089141 [Eh]
	 Opposite-Spin Energy      =      -1.5391651842202174 [Eh]
	 Correlation Energy        =      -2.0572218742291315 [Eh]
	 Total Energy              =    -568.5853930434170707 [Eh]

	 ================> DF-SCS-MP2 Energies <==================
	-----------------------------------------------------------
	 SCS Same-Spin Scale       =       0.3333333333333333 [-]
	 SCS Opposite-Spin Scale   =       1.2000000000000000 [-]
	 SCS Same-Spin Energy      =      -0.1726855633363047 [Eh]
	 SCS Opposite-Spin Energy  =      -1.8469982210642608 [Eh]
	 SCS Correlation Energy    =      -2.0196837844005655 [Eh]
	 SCS Total Energy          =    -568.5478549535883985 [Eh]
	-----------------------------------------------------------

  Dipole Moment: [D]
     X:    -3.1948      Y:     0.0845      Z:    -0.0001     Total:     3.1959

*** Psi4 exiting successfully. Buy a developer a beer!
