                               Psi4 1.4a3.dev225

  ==> Input File <==

--------------------------------------------------------------------------
#psi4
#
memory 32 gb

molecule  {
0 1
  F        1.9821660     1.2528190    -0.0004060
  F        1.9351680    -0.6366780     1.0868470
  F        1.9352150    -0.6374130    -1.0863900
  C       -0.0483970     0.0270950    -0.0000420
  C       -0.7553000     1.2300380    -0.0000240
  C       -0.7204310    -1.1995770    -0.0000260
  C        1.4974949     0.0099743     0.0000014
  C       -2.1511760     1.2020250     0.0000010
  C       -2.1135870    -1.2175920     0.0000010
  C       -2.8302990    -0.0173450     0.0000170
  H       -0.2211530     2.1747870    -0.0000390
  H       -0.1550120    -2.1281220    -0.0000490
  H       -2.7078980     2.1355510     0.0000090
  H       -2.6414440    -2.1677340     0.0000090
  H       -3.9172820    -0.0340560     0.0000400
units angstrom
no_reorient  #important for SAPT in psi4, default
symmetry c1  #important for SAPT in psi4, default
}

set PROPERTIES_ORIGIN ["COM"]
properties('MP2/aug-cc-pvtz', properties = ['dipole'])
--------------------------------------------------------------------------

    Molecular point group: c1
  Charge       = 0
  Multiplicity = 1
  Basis Set: AUG-CC-PVTZ
    Blend: AUG-CC-PVTZ
  Basis Set: (AUG-CC-PVTZ AUX)
    Blend: AUG-CC-PVTZ-JKFIT

    Orbital Energies [Eh]
    ---------------------

    Doubly Occupied:

       1A    -26.343820     2A    -26.338718     3A    -26.338696
       4A    -11.510565     5A    -11.269142     6A    -11.259259
       7A    -11.259041     8A    -11.256227     9A    -11.254060
      10A    -11.253511    11A     -1.731163    12A     -1.640982
      13A     -1.635975    14A     -1.175243    15A     -1.062131
      16A     -1.034911    17A     -0.964570    18A     -0.863486
      19A     -0.855318    20A     -0.824391    21A     -0.817490
      22A     -0.787573    23A     -0.715117    24A     -0.711073
      25A     -0.701469    26A     -0.671867    27A     -0.667199
      28A     -0.651371    29A     -0.647907    30A     -0.635334
      31A     -0.604850    32A     -0.580559    33A     -0.521560
      34A     -0.514725    35A     -0.512524    36A     -0.359337
      37A     -0.354730

  @DF-RHF Final Energy:  -566.53018529209248

   => Energetics <=

    Nuclear Repulsion Energy =            526.8212604504780074
    One-Electron Energy =               -1826.0511034008966362
    Two-Electron Energy =                 732.6996576583260321
    Total Energy =                       -566.5301852920924830
  Basis Set: (AUG-CC-PVTZ AUX)
    Blend: AUG-CC-PVTZ-RI
    Molecular point group: c1

    Geometry (in Angstrom), charge = 0, multiplicity = 1:

       Center              X                  Y                   Z               Mass
    ------------   -----------------  -----------------  -----------------  -----------------
         F            1.872530823208     1.252876805579    -0.000406544282    18.998403162730
         F            1.825532823208    -0.636620194421     1.086846455718    18.998403162730
         F            1.825579823208    -0.637355194421    -1.086390544282    18.998403162730
         C           -0.158032176792     0.027152805579    -0.000042544282    12.000000000000
         C           -0.864935176792     1.230095805579    -0.000024544282    12.000000000000
         C           -0.830066176792    -1.199519194421    -0.000026544282    12.000000000000
         C            1.387859723208     0.010032105579     0.000000855718    12.000000000000
         C           -2.260811176792     1.202082805579     0.000000455718    12.000000000000
         C           -2.223222176792    -1.217534194421     0.000000455718    12.000000000000
         C           -2.939934176792    -0.017287194421     0.000016455718    12.000000000000
         H           -0.330788176792     2.174844805579    -0.000039544282     1.007825032230
         H           -0.264647176792    -2.128064194421    -0.000049544282     1.007825032230
         H           -2.817533176792     2.135608805579     0.000008455718     1.007825032230
         H           -2.751079176792    -2.167676194421     0.000008455718     1.007825032230
         H           -4.026917176792    -0.033998194421     0.000039455718     1.007825032230

  Basis Set: AUG-CC-PVTZ
    Blend: AUG-CC-PVTZ
  Basis Set: (AUG-CC-PVTZ AUX)
    Blend: AUG-CC-PVTZ-JKFIT
	 Reference Energy          =    -566.5301852920924830 [Eh]
	 Singles Energy            =      -0.0000000000000000 [Eh]
	 Same-Spin Energy          =      -0.5176879868050528 [Eh]
	 Opposite-Spin Energy      =      -1.5378843280007684 [Eh]
	 Correlation Energy        =      -2.0555723148058211 [Eh]
	 Total Energy              =    -568.5857576068982553 [Eh]

	 ================> DF-SCS-MP2 Energies <==================
	-----------------------------------------------------------
	 SCS Same-Spin Scale       =       0.3333333333333333 [-]
	 SCS Opposite-Spin Scale   =       1.2000000000000000 [-]
	 SCS Same-Spin Energy      =      -0.1725626622683509 [Eh]
	 SCS Opposite-Spin Energy  =      -1.8454611936009220 [Eh]
	 SCS Correlation Energy    =      -2.0180238558692727 [Eh]
	 SCS Total Energy          =    -568.5482091479617566 [Eh]
	-----------------------------------------------------------

  Dipole Moment: [D]
     X:    -2.4058      Y:     0.0478      Z:    -0.0000     Total:     2.4063

*** Psi4 exiting successfully. Buy a developer a beer!
