                               Psi4 1.3.2 release

  ==> Input File <==

--------------------------------------------------------------------------
#psi4
#
memory 32 gb

molecule  {
0 1
  F        1.9821660     1.2528190    -0.0004060
  F        1.9351680    -0.6366780     1.0868470
  F        1.9352150    -0.6374130    -1.0863900
  C       -0.0483970     0.0270950    -0.0000420
  C       -0.7553000     1.2300380    -0.0000240
  C       -0.7204310    -1.1995770    -0.0000260
  C        1.4474980     0.0105280     0.0000000
  C       -2.1511760     1.2020250     0.0000010
  C       -2.1135870    -1.2175920     0.0000010
  C       -2.8302990    -0.0173450     0.0000170
  H       -0.2211530     2.1747870    -0.0000390
  H       -0.1550120    -2.1281220    -0.0000490
  H       -2.7078980     2.1355510     0.0000090
  H       -2.6414440    -2.1677340     0.0000090
  H       -3.9172820    -0.0340560     0.0000400
units angstrom
no_reorient  #important for SAPT in psi4, default
symmetry c1  #important for SAPT in psi4, default
}

set PROPERTIES_ORIGIN ["COM"]
properties('MP2/aug-cc-pvtz', properties = ['dipole'])
--------------------------------------------------------------------------

    Molecular point group: c1
  Charge       = 0
  Multiplicity = 1
  Basis Set: AUG-CC-PVTZ
    Blend: AUG-CC-PVTZ
  Basis Set: (AUG-CC-PVTZ AUX)
    Blend: AUG-CC-PVTZ-JKFIT

    Orbital Energies [Eh]
    ---------------------

    Doubly Occupied:

       1A    -26.337729     2A    -26.332772     3A    -26.332750
       4A    -11.510046     5A    -11.270578     6A    -11.263893
       7A    -11.263719     8A    -11.260444     9A    -11.257078
      10A    -11.256513    11A     -1.718711    12A     -1.628740
      13A     -1.624109    14A     -1.181299    15A     -1.072162
      16A     -1.038667    17A     -0.962390    18A     -0.864123
      19A     -0.857939    20A     -0.812510    21A     -0.806645
      22A     -0.786243    23A     -0.711429    24A     -0.704236
      25A     -0.700683    26A     -0.662948    27A     -0.657235
      28A     -0.652667    29A     -0.644038    30A     -0.638023
      31A     -0.607932    32A     -0.590527    33A     -0.525301
      34A     -0.522168    35A     -0.518266    36A     -0.364196
      37A     -0.357950

  @DF-RHF Final Energy:  -566.53028271374887

   => Energetics <=

    Nuclear Repulsion Energy =            526.8747778495646799
    One-Electron Energy =               -1826.2168060466945008
    Two-Electron Energy =                 732.8117454833809461
    Total Energy =                       -566.5302827137488748
  Basis Set: (AUG-CC-PVTZ AUX)
    Blend: AUG-CC-PVTZ-RI
    Molecular point group: c1

    Geometry (in Angstrom), charge = 0, multiplicity = 1:

       Center              X                  Y                   Z               Mass
    ------------   -----------------  -----------------  -----------------  -----------------
         F            1.876639191295     1.252831306690    -0.000406429240    18.998403162730
         F            1.829641191295    -0.636665693310     1.086846570760    18.998403162730
         F            1.829688191295    -0.637400693310    -1.086390429240    18.998403162730
         C           -0.153923808705     0.027107306690    -0.000042429240    12.000000000000
         C           -0.860826808705     1.230050306690    -0.000024429240    12.000000000000
         C           -0.825957808705    -1.199564693310    -0.000026429240    12.000000000000
         C            1.341971191295     0.010540306690    -0.000000429240    12.000000000000
         C           -2.256702808705     1.202037306690     0.000000570760    12.000000000000
         C           -2.219113808705    -1.217579693310     0.000000570760    12.000000000000
         C           -2.935825808705    -0.017332693310     0.000016570760    12.000000000000
         H           -0.326679808705     2.174799306690    -0.000039429240     1.007825032230
         H           -0.260538808705    -2.128109693310    -0.000049429240     1.007825032230
         H           -2.813424808705     2.135563306690     0.000008570760     1.007825032230
         H           -2.746970808705    -2.167721693310     0.000008570760     1.007825032230
         H           -4.022808808705    -0.034043693310     0.000039570760     1.007825032230

  Basis Set: AUG-CC-PVTZ
    Blend: AUG-CC-PVTZ
  Basis Set: (AUG-CC-PVTZ AUX)
    Blend: AUG-CC-PVTZ-JKFIT
	 Reference Energy          =    -566.5302827137488748 [Eh]
	 Singles Energy            =      -0.0000000000000000 [Eh]
	 Same-Spin Energy          =      -0.5182321915473176 [Eh]
	 Opposite-Spin Energy      =      -1.5394587780637854 [Eh]
	 Correlation Energy        =      -2.0576909696111030 [Eh]
	 Total Energy              =    -568.5879736833600191 [Eh]

	 ================> DF-SCS-MP2 Energies <==================
	-----------------------------------------------------------
	 SCS Same-Spin Scale       =       0.3333333333333333 [-]
	 SCS Opposite-Spin Scale   =       1.2000000000000000 [-]
	 SCS Same-Spin Energy      =      -0.1727440638491058 [Eh]
	 SCS Opposite-Spin Energy  =      -1.8473505336765423 [Eh]
	 SCS Correlation Energy    =      -2.0200945975256484 [Eh]
	 SCS Total Energy          =    -568.5503773112744739 [Eh]
	-----------------------------------------------------------

  Dipole Moment: [D]
     X:    -2.8986      Y:     0.0491      Z:    -0.0000     Total:     2.8990

*** Psi4 exiting successfully. Buy a developer a beer!
