                               Psi4 1.4a3.dev225

  ==> Input File <==

--------------------------------------------------------------------------
#psi4
#
memory 32 gb

molecule  {
0 1
  F        1.9821660     1.2528190    -0.0004060
  F        1.9351680    -0.6366780     1.0868470
  F        1.9352150    -0.6374130    -1.0863900
  C       -0.0483970     0.0270950    -0.0000420
  C       -0.7553000     1.2300380    -0.0000240
  C       -0.7204310    -1.1995770    -0.0000260
  C        1.3975011     0.0110817    -0.0000014
  C       -2.1511760     1.2020250     0.0000010
  C       -2.1135870    -1.2175920     0.0000010
  C       -2.8302990    -0.0173450     0.0000170
  H       -0.2211530     2.1747870    -0.0000390
  H       -0.1550120    -2.1281220    -0.0000490
  H       -2.7078980     2.1355510     0.0000090
  H       -2.6414440    -2.1677340     0.0000090
  H       -3.9172820    -0.0340560     0.0000400
units angstrom
no_reorient  #important for SAPT in psi4, default
symmetry c1  #important for SAPT in psi4, default
}

set PROPERTIES_ORIGIN ["COM"]
properties('MP2/aug-cc-pvtz', properties = ['dipole'])
--------------------------------------------------------------------------

    Molecular point group: c1
  Charge       = 0
  Multiplicity = 1
  Basis Set: AUG-CC-PVTZ
    Blend: AUG-CC-PVTZ
  Basis Set: (AUG-CC-PVTZ AUX)
    Blend: AUG-CC-PVTZ-JKFIT

    Orbital Energies [Eh]
    ---------------------

    Doubly Occupied:

       1A    -26.331405     2A    -26.326468     3A    -26.326446
       4A    -11.509937     5A    -11.271147     6A    -11.268819
       7A    -11.268491     8A    -11.265002     9A    -11.260156
      10A    -11.259539    11A     -1.705444    12A     -1.616091
      13A     -1.611746    14A     -1.188160    15A     -1.083124
      16A     -1.042565    17A     -0.961198    18A     -0.863925
      19A     -0.861460    20A     -0.800139    21A     -0.794663
      22A     -0.785179    23A     -0.710569    24A     -0.696903
      25A     -0.696768    26A     -0.657700    27A     -0.654173
      28A     -0.646877    29A     -0.639595    30A     -0.636312
      31A     -0.610923    32A     -0.599942    33A     -0.530014
      34A     -0.529060    35A     -0.521935    36A     -0.369253
      37A     -0.361258

  @DF-RHF Final Energy:  -566.52406432780288

   => Energetics <=

    Nuclear Repulsion Energy =            526.9187789758888130
    One-Electron Energy =               -1826.3609161658280300
    Two-Electron Energy =                 732.9180728621364551
    Total Energy =                       -566.5240643278028756
  Basis Set: (AUG-CC-PVTZ AUX)
    Blend: AUG-CC-PVTZ-RI
    Molecular point group: c1

    Geometry (in Angstrom), charge = 0, multiplicity = 1:

       Center              X                  Y                   Z               Mass
    ------------   -----------------  -----------------  -----------------  -----------------
         F            1.880747559381     1.252785807801    -0.000406314199    18.998403162730
         F            1.833749559381    -0.636711192199     1.086846685801    18.998403162730
         F            1.833796559381    -0.637446192199    -1.086390314199    18.998403162730
         C           -0.149815440619     0.027061807801    -0.000042314199    12.000000000000
         C           -0.856718440619     1.230004807801    -0.000024314199    12.000000000000
         C           -0.821849440619    -1.199610192199    -0.000026314199    12.000000000000
         C            1.296082659381     0.011048507801    -0.000001714199    12.000000000000
         C           -2.252594440619     1.201991807801     0.000000685801    12.000000000000
         C           -2.215005440619    -1.217625192199     0.000000685801    12.000000000000
         C           -2.931717440619    -0.017378192199     0.000016685801    12.000000000000
         H           -0.322571440619     2.174753807801    -0.000039314199     1.007825032230
         H           -0.256430440619    -2.128155192199    -0.000049314199     1.007825032230
         H           -2.809316440619     2.135517807801     0.000008685801     1.007825032230
         H           -2.742862440619    -2.167767192199     0.000008685801     1.007825032230
         H           -4.018700440619    -0.034089192199     0.000039685801     1.007825032230

  Basis Set: AUG-CC-PVTZ
    Blend: AUG-CC-PVTZ
  Basis Set: (AUG-CC-PVTZ AUX)
    Blend: AUG-CC-PVTZ-JKFIT
	 Reference Energy          =    -566.5240643278028756 [Eh]
	 Singles Energy            =      -0.0000000000000000 [Eh]
	 Same-Spin Energy          =      -0.5190687006196623 [Eh]
	 Opposite-Spin Energy      =      -1.5416110693638791 [Eh]
	 Correlation Energy        =      -2.0606797699835413 [Eh]
	 Total Energy              =    -568.5847440977863698 [Eh]

	 ================> DF-SCS-MP2 Energies <==================
	-----------------------------------------------------------
	 SCS Same-Spin Scale       =       0.3333333333333333 [-]
	 SCS Opposite-Spin Scale   =       1.2000000000000000 [-]
	 SCS Same-Spin Energy      =      -0.1730229002065541 [Eh]
	 SCS Opposite-Spin Energy  =      -1.8499332832366548 [Eh]
	 SCS Correlation Energy    =      -2.0229561834432088 [Eh]
	 SCS Total Energy          =    -568.5470205112460462 [Eh]
	-----------------------------------------------------------

  Dipole Moment: [D]
     X:    -3.4084      Y:     0.0510      Z:    -0.0000     Total:     3.4088

*** Psi4 exiting successfully. Buy a developer a beer!
