                               Psi4 1.4a3.dev225

  ==> Input File <==

--------------------------------------------------------------------------
#psi4
#
memory 32 gb

molecule  {
0 1
  F        1.9821660     1.2528190    -0.0004060
  F        1.9351680    -0.6366780     1.0868470
  F        1.9352150    -0.6374130    -1.0863900
  C       -0.0483970     0.0270950    -0.0000420
  C       -0.7553000     1.2300380    -0.0000240
  C       -0.7204310    -1.1995770    -0.0000260
  C        1.4674968     0.0103065     0.0000006
  C       -2.1511760     1.2020250     0.0000010
  C       -2.1135870    -1.2175920     0.0000010
  C       -2.8302990    -0.0173450     0.0000170
  H       -0.2211530     2.1747870    -0.0000390
  H       -0.1550120    -2.1281220    -0.0000490
  H       -2.7078980     2.1355510     0.0000090
  H       -2.6414440    -2.1677340     0.0000090
  H       -3.9172820    -0.0340560     0.0000400
units angstrom
no_reorient  #important for SAPT in psi4, default
symmetry c1  #important for SAPT in psi4, default
}

set PROPERTIES_ORIGIN ["COM"]
properties('MP2/aug-cc-pvtz', properties = ['dipole'])
--------------------------------------------------------------------------

    Molecular point group: c1
  Charge       = 0
  Multiplicity = 1
  Basis Set: AUG-CC-PVTZ
    Blend: AUG-CC-PVTZ
  Basis Set: (AUG-CC-PVTZ AUX)
    Blend: AUG-CC-PVTZ-JKFIT

    Orbital Energies [Eh]
    ---------------------

    Doubly Occupied:

       1A    -26.340183     2A    -26.335181     3A    -26.335159
       4A    -11.510180     5A    -11.270127     6A    -11.262013
       7A    -11.261827     8A    -11.258720     9A    -11.255868
      10A    -11.255316    11A     -1.723785    12A     -1.633682
      13A     -1.628911    14A     -1.178796    15A     -1.068035
      16A     -1.037153    17A     -0.963158    18A     -0.863937
      19A     -0.856753    20A     -0.817321    21A     -0.811159
      22A     -0.786753    23A     -0.712595    24A     -0.707026
      25A     -0.701355    26A     -0.666490    27A     -0.661262
      28A     -0.650762    29A     -0.647009    30A     -0.637032
      31A     -0.606707    32A     -0.586564    33A     -0.523805
      34A     -0.518592    35A     -0.516810    36A     -0.362233
      37A     -0.356656

  @DF-RHF Final Energy:  -566.53097043548200

   => Energetics <=

    Nuclear Repulsion Energy =            526.8551508441892111
    One-Electron Energy =               -1826.1544086237593092
    Two-Electron Energy =                 732.7682873440880940
    Total Energy =                       -566.5309704354820042
  Basis Set: (AUG-CC-PVTZ AUX)
    Blend: AUG-CC-PVTZ-RI
    Molecular point group: c1

    Geometry (in Angstrom), charge = 0, multiplicity = 1:

       Center              X                  Y                   Z               Mass
    ------------   -----------------  -----------------  -----------------  -----------------
         F            1.874995840773     1.252849507889    -0.000406478544    18.998403162730
         F            1.827997840773    -0.636647492111     1.086846521456    18.998403162730
         F            1.828044840773    -0.637382492111    -1.086390478544    18.998403162730
         C           -0.155567159227     0.027125507889    -0.000042478544    12.000000000000
         C           -0.862470159227     1.230068507889    -0.000024478544    12.000000000000
         C           -0.827601159227    -1.199546492111    -0.000026478544    12.000000000000
         C            1.360326640773     0.010337007889     0.000000121456    12.000000000000
         C           -2.258346159227     1.202055507889     0.000000521456    12.000000000000
         C           -2.220757159227    -1.217561492111     0.000000521456    12.000000000000
         C           -2.937469159227    -0.017314492111     0.000016521456    12.000000000000
         H           -0.328323159227     2.174817507889    -0.000039478544     1.007825032230
         H           -0.262182159227    -2.128091492111    -0.000049478544     1.007825032230
         H           -2.815068159227     2.135581507889     0.000008521456     1.007825032230
         H           -2.748614159227    -2.167703492111     0.000008521456     1.007825032230
         H           -4.024452159227    -0.034025492111     0.000039521456     1.007825032230

  Basis Set: AUG-CC-PVTZ
    Blend: AUG-CC-PVTZ
  Basis Set: (AUG-CC-PVTZ AUX)
    Blend: AUG-CC-PVTZ-JKFIT
	 Reference Energy          =    -566.5309704354820042 [Eh]
	 Singles Energy            =      -0.0000000000000000 [Eh]
	 Same-Spin Energy          =      -0.5179798046023636 [Eh]
	 Opposite-Spin Energy      =      -1.5387596515015767 [Eh]
	 Correlation Energy        =      -2.0567394561039403 [Eh]
	 Total Energy              =    -568.5877098915859733 [Eh]

	 ================> DF-SCS-MP2 Energies <==================
	-----------------------------------------------------------
	 SCS Same-Spin Scale       =       0.3333333333333333 [-]
	 SCS Opposite-Spin Scale   =       1.2000000000000000 [-]
	 SCS Same-Spin Energy      =      -0.1726599348674545 [Eh]
	 SCS Opposite-Spin Energy  =      -1.8465115818018920 [Eh]
	 SCS Correlation Energy    =      -2.0191715166693465 [Eh]
	 SCS Total Energy          =    -568.5501419521513071 [Eh]
	-----------------------------------------------------------

  Dipole Moment: [D]
     X:    -2.7000      Y:     0.0485      Z:    -0.0000     Total:     2.7004

*** Psi4 exiting successfully. Buy a developer a beer!
