                               Psi4 1.4a3.dev225

  ==> Input File <==

--------------------------------------------------------------------------
#psi4
#
memory 32 gb

molecule  {
0 1
  F        1.9821660     1.2528190    -0.0004060
  F        1.9351680    -0.6366780     1.0868470
  F        1.9352150    -0.6374130    -1.0863900
  C       -0.0483970     0.0270950    -0.0000420
  C       -0.7553000     1.2300380    -0.0000240
  C       -0.7204310    -1.1995770    -0.0000260
  C        1.4274992     0.0107495    -0.0000006
  C       -2.1511760     1.2020250     0.0000010
  C       -2.1135870    -1.2175920     0.0000010
  C       -2.8302990    -0.0173450     0.0000170
  H       -0.2211530     2.1747870    -0.0000390
  H       -0.1550120    -2.1281220    -0.0000490
  H       -2.7078980     2.1355510     0.0000090
  H       -2.6414440    -2.1677340     0.0000090
  H       -3.9172820    -0.0340560     0.0000400
units angstrom
no_reorient  #important for SAPT in psi4, default
symmetry c1  #important for SAPT in psi4, default
}

set PROPERTIES_ORIGIN ["COM"]
properties('MP2/aug-cc-pvtz', properties = ['dipole'])
--------------------------------------------------------------------------

    Molecular point group: c1
  Charge       = 0
  Multiplicity = 1
  Basis Set: AUG-CC-PVTZ
    Blend: AUG-CC-PVTZ
  Basis Set: (AUG-CC-PVTZ AUX)
    Blend: AUG-CC-PVTZ-JKFIT

    Orbital Energies [Eh]
    ---------------------

    Doubly Occupied:

       1A    -26.335238     2A    -26.330305     3A    -26.330283
       4A    -11.509978     5A    -11.270880     6A    -11.265819
       7A    -11.265637     8A    -11.262221     9A    -11.258297
      10A    -11.257715    11A     -1.713507    12A     -1.623733
      13A     -1.619228    14A     -1.183930    15A     -1.076438
      16A     -1.040204    17A     -0.961781    18A     -0.864175
      19A     -0.859264    20A     -0.807621    21A     -0.801952
      22A     -0.785777    23A     -0.710767    24A     -0.701368
      25A     -0.699456    26A     -0.659521    27A     -0.654510
      28A     -0.653145    29A     -0.641004    30A     -0.638851
      31A     -0.609144    32A     -0.594400    33A     -0.526800
      34A     -0.525477    35A     -0.519722    36A     -0.366190
      37A     -0.359257

  @DF-RHF Final Energy:  -566.52858471978209

   => Energetics <=

    Nuclear Repulsion Energy =            526.8928797617725195
    One-Electron Energy =               -1826.2757431064462708
    Two-Electron Energy =                 732.8542786248916627
    Total Energy =                       -566.5285847197820885
  Basis Set: (AUG-CC-PVTZ AUX)
    Blend: AUG-CC-PVTZ-RI
    Molecular point group: c1

    Geometry (in Angstrom), charge = 0, multiplicity = 1:

       Center              X                  Y                   Z               Mass
    ------------   -----------------  -----------------  -----------------  -----------------
         F            1.878282541816     1.252813105491    -0.000406379937    18.998403162730
         F            1.831284541816    -0.636683894509     1.086846620063    18.998403162730
         F            1.831331541816    -0.637418894509    -1.086390379937    18.998403162730
         C           -0.152280458184     0.027089105491    -0.000042379937    12.000000000000
         C           -0.859183458184     1.230032105491    -0.000024379937    12.000000000000
         C           -0.824314458184    -1.199582894509    -0.000026379937    12.000000000000
         C            1.323615741816     0.010743605491    -0.000000979937    12.000000000000
         C           -2.255059458184     1.202019105491     0.000000620063    12.000000000000
         C           -2.217470458184    -1.217597894509     0.000000620063    12.000000000000
         C           -2.934182458184    -0.017350894509     0.000016620063    12.000000000000
         H           -0.325036458184     2.174781105491    -0.000039379937     1.007825032230
         H           -0.258895458184    -2.128127894509    -0.000049379937     1.007825032230
         H           -2.811781458184     2.135545105491     0.000008620063     1.007825032230
         H           -2.745327458184    -2.167739894509     0.000008620063     1.007825032230
         H           -4.021165458184    -0.034061894509     0.000039620063     1.007825032230

  Basis Set: AUG-CC-PVTZ
    Blend: AUG-CC-PVTZ
  Basis Set: (AUG-CC-PVTZ AUX)
    Blend: AUG-CC-PVTZ-JKFIT
	 Reference Energy          =    -566.5285847197820885 [Eh]
	 Singles Energy            =      -0.0000000000000000 [Eh]
	 Same-Spin Energy          =      -0.5185313975649042 [Eh]
	 Opposite-Spin Energy      =      -1.5402504346459982 [Eh]
	 Correlation Energy        =      -2.0587818322109026 [Eh]
	 Total Energy              =    -568.5873665519930000 [Eh]

	 ================> DF-SCS-MP2 Energies <==================
	-----------------------------------------------------------
	 SCS Same-Spin Scale       =       0.3333333333333333 [-]
	 SCS Opposite-Spin Scale   =       1.2000000000000000 [-]
	 SCS Same-Spin Energy      =      -0.1728437991883014 [Eh]
	 SCS Opposite-Spin Energy  =      -1.8483005215751978 [Eh]
	 SCS Correlation Energy    =      -2.0211443207634989 [Eh]
	 SCS Total Energy          =    -568.5497290405455715 [Eh]
	-----------------------------------------------------------

  Dipole Moment: [D]
     X:    -3.0999      Y:     0.0498      Z:    -0.0000     Total:     3.1003

*** Psi4 exiting successfully. Buy a developer a beer!
