                               Psi4 1.3.2 release

  ==> Input File <==

--------------------------------------------------------------------------
#psi4
#
memory 32 gb

molecule  {
0 1
  F        1.9821660     1.2528190    -0.0004060
  F        1.9351680    -0.6366780     1.0868470
  F        1.9352150    -0.6374130    -1.0863900
  C       -0.0483970     0.0270950    -0.0000420
  C       -0.7761866     1.2175176    -0.0000250
  C       -0.7204310    -1.1995770    -0.0000260
  C        1.4474980     0.0105280     0.0000000
  C       -2.1511760     1.2020250     0.0000010
  C       -2.1135870    -1.2175920     0.0000010
  C       -2.8302990    -0.0173450     0.0000170
  H       -0.2211530     2.1747870    -0.0000390
  H       -0.1550120    -2.1281220    -0.0000490
  H       -2.7078980     2.1355510     0.0000090
  H       -2.6414440    -2.1677340     0.0000090
  H       -3.9172820    -0.0340560     0.0000400
units angstrom
no_reorient  #important for SAPT in psi4, default
symmetry c1  #important for SAPT in psi4, default
}

set PROPERTIES_ORIGIN ["COM"]
properties('MP2/aug-cc-pvtz', properties = ['dipole'])
--------------------------------------------------------------------------

    Molecular point group: c1
  Charge       = 0
  Multiplicity = 1
  Basis Set: AUG-CC-PVTZ
    Blend: AUG-CC-PVTZ
  Basis Set: (AUG-CC-PVTZ AUX)
    Blend: AUG-CC-PVTZ-JKFIT

    Orbital Energies [Eh]
    ---------------------

    Doubly Occupied:

       1A    -26.337786     2A    -26.333110     3A    -26.333089
       4A    -11.510799     5A    -11.270089     6A    -11.264041
       7A    -11.262883     8A    -11.260581     9A    -11.256551
      10A    -11.253973    11A     -1.718921    12A     -1.628853
      13A     -1.624411    14A     -1.183037    15A     -1.072311
      16A     -1.040408    17A     -0.962674    18A     -0.865083
      19A     -0.856514    20A     -0.812739    21A     -0.806425
      22A     -0.787257    23A     -0.711473    24A     -0.704429
      25A     -0.700317    26A     -0.663293    27A     -0.657445
      28A     -0.650773    29A     -0.644257    30A     -0.638932
      31A     -0.607735    32A     -0.589685    33A     -0.526900
      34A     -0.524514    35A     -0.514162    36A     -0.363330
      37A     -0.360260

  @DF-RHF Final Energy:  -566.52964710149752

   => Energetics <=

    Nuclear Repulsion Energy =            527.0592609978468772
    One-Electron Energy =               -1826.5797378651016061
    Two-Electron Energy =                 732.9908297657572120
    Total Energy =                       -566.5296471014975168
  Basis Set: (AUG-CC-PVTZ AUX)
    Blend: AUG-CC-PVTZ-RI
    Molecular point group: c1

    Geometry (in Angstrom), charge = 0, multiplicity = 1:

       Center              X                  Y                   Z               Mass
    ------------   -----------------  -----------------  -----------------  -----------------
         F            1.878355494523     1.253860138713    -0.000406347068    18.998403162730
         F            1.831357494523    -0.635636861287     1.086846652932    18.998403162730
         F            1.831404494523    -0.636371861287    -1.086390347068    18.998403162730
         C           -0.152207505477     0.028136138713    -0.000042347068    12.000000000000
         C           -0.879997105477     1.218558738713    -0.000025347068    12.000000000000
         C           -0.824241505477    -1.198535861287    -0.000026347068    12.000000000000
         C            1.343687494523     0.011569138713    -0.000000347068    12.000000000000
         C           -2.254986505477     1.203066138713     0.000000652932    12.000000000000
         C           -2.217397505477    -1.216550861287     0.000000652932    12.000000000000
         C           -2.934109505477    -0.016303861287     0.000016652932    12.000000000000
         H           -0.324963505477     2.175828138713    -0.000039347068     1.007825032230
         H           -0.258822505477    -2.127080861287    -0.000049347068     1.007825032230
         H           -2.811708505477     2.136592138713     0.000008652932     1.007825032230
         H           -2.745254505477    -2.166692861287     0.000008652932     1.007825032230
         H           -4.021092505477    -0.033014861287     0.000039652932     1.007825032230

  Basis Set: AUG-CC-PVTZ
    Blend: AUG-CC-PVTZ
  Basis Set: (AUG-CC-PVTZ AUX)
    Blend: AUG-CC-PVTZ-JKFIT
	 Reference Energy          =    -566.5296471014975168 [Eh]
	 Singles Energy            =      -0.0000000000000000 [Eh]
	 Same-Spin Energy          =      -0.5182794722083668 [Eh]
	 Opposite-Spin Energy      =      -1.5394223845205883 [Eh]
	 Correlation Energy        =      -2.0577018567289551 [Eh]
	 Total Energy              =    -568.5873489582264710 [Eh]

	 ================> DF-SCS-MP2 Energies <==================
	-----------------------------------------------------------
	 SCS Same-Spin Scale       =       0.3333333333333333 [-]
	 SCS Opposite-Spin Scale   =       1.2000000000000000 [-]
	 SCS Same-Spin Energy      =      -0.1727598240694556 [Eh]
	 SCS Opposite-Spin Energy  =      -1.8473068614247059 [Eh]
	 SCS Correlation Energy    =      -2.0200666854941614 [Eh]
	 SCS Total Energy          =    -568.5497137869916742 [Eh]
	-----------------------------------------------------------

  Dipole Moment: [D]
     X:    -2.8957      Y:     0.0407      Z:    -0.0000     Total:     2.8960

*** Psi4 exiting successfully. Buy a developer a beer!
