                               Psi4 1.3.2 release

  ==> Input File <==

--------------------------------------------------------------------------
#psi4
#
memory 32 gb

molecule  {
0 1
  F        1.8493823     1.3019016    -0.0004258
  F        1.9351680    -0.6366780     1.0868470
  F        1.9352150    -0.6374130    -1.0863900
  C       -0.0483970     0.0270950    -0.0000420
  C       -0.7553000     1.2300380    -0.0000240
  C       -0.7204310    -1.1995770    -0.0000260
  C        1.4474980     0.0105280     0.0000000
  C       -2.1511760     1.2020250     0.0000010
  C       -2.1135870    -1.2175920     0.0000010
  C       -2.8302990    -0.0173450     0.0000170
  H       -0.2211530     2.1747870    -0.0000390
  H       -0.1550120    -2.1281220    -0.0000490
  H       -2.7078980     2.1355510     0.0000090
  H       -2.6414440    -2.1677340     0.0000090
  H       -3.9172820    -0.0340560     0.0000400
units angstrom
no_reorient  #important for SAPT in psi4, default
symmetry c1  #important for SAPT in psi4, default
}

set PROPERTIES_ORIGIN ["COM"]
properties('MP2/aug-cc-pvtz', properties = ['dipole'])
--------------------------------------------------------------------------

    Molecular point group: c1
  Charge       = 0
  Multiplicity = 1
  Basis Set: AUG-CC-PVTZ
    Blend: AUG-CC-PVTZ
  Basis Set: (AUG-CC-PVTZ AUX)
    Blend: AUG-CC-PVTZ-JKFIT

    Orbital Energies [Eh]
    ---------------------

    Doubly Occupied:

       1A    -26.340765     2A    -26.337914     3A    -26.337892
       4A    -11.511439     5A    -11.265763     6A    -11.260674
       7A    -11.260358     8A    -11.258087     9A    -11.254646
      10A    -11.254124    11A     -1.719206    12A     -1.636222
      13A     -1.627662    14A     -1.178530    15A     -1.070336
      16A     -1.036155    17A     -0.963436    18A     -0.862842
      19A     -0.856341    20A     -0.814805    21A     -0.811972
      22A     -0.785253    23A     -0.715568    24A     -0.704814
      25A     -0.699143    26A     -0.671183    27A     -0.663343
      28A     -0.650105    29A     -0.649579    30A     -0.635109
      31A     -0.605074    32A     -0.584503    33A     -0.522774
      34A     -0.518900    35A     -0.515565    36A     -0.361512
      37A     -0.355559

  @DF-RHF Final Energy:  -566.52603500755345

   => Energetics <=

    Nuclear Repulsion Energy =            527.8826309449450491
    One-Electron Energy =               -1828.2230256657733207
    Two-Electron Energy =                 733.8143597132748255
    Total Energy =                       -566.5260350075534461
  Basis Set: (AUG-CC-PVTZ AUX)
    Blend: AUG-CC-PVTZ-RI
    Molecular point group: c1

    Geometry (in Angstrom), charge = 0, multiplicity = 1:

       Center              X                  Y                   Z               Mass
    ------------   -----------------  -----------------  -----------------  -----------------
         F            1.761130047118     1.295528483527    -0.000423653350    18.998403162730
         F            1.846915747118    -0.643051116473     1.086849146650    18.998403162730
         F            1.846962747118    -0.643786116473    -1.086387853350    18.998403162730
         C           -0.136649252882     0.020721883527    -0.000039853350    12.000000000000
         C           -0.843552252882     1.223664883527    -0.000021853350    12.000000000000
         C           -0.808683252882    -1.205950116473    -0.000023853350    12.000000000000
         C            1.359245747118     0.004154883527     0.000002146650    12.000000000000
         C           -2.239428252882     1.195651883527     0.000003146650    12.000000000000
         C           -2.201839252882    -1.223965116473     0.000003146650    12.000000000000
         C           -2.918551252882    -0.023718116473     0.000019146650    12.000000000000
         H           -0.309405252882     2.168413883527    -0.000036853350     1.007825032230
         H           -0.243264252882    -2.134495116473    -0.000046853350     1.007825032230
         H           -2.796150252882     2.129177883527     0.000011146650     1.007825032230
         H           -2.729696252882    -2.174107116473     0.000011146650     1.007825032230
         H           -4.005534252882    -0.040429116473     0.000042146650     1.007825032230

  Basis Set: AUG-CC-PVTZ
    Blend: AUG-CC-PVTZ
  Basis Set: (AUG-CC-PVTZ AUX)
    Blend: AUG-CC-PVTZ-JKFIT
	 Reference Energy          =    -566.5260350075534461 [Eh]
	 Singles Energy            =      -0.0000000000000000 [Eh]
	 Same-Spin Energy          =      -0.5186163337407129 [Eh]
	 Opposite-Spin Energy      =      -1.5401210761854427 [Eh]
	 Correlation Energy        =      -2.0587374099261555 [Eh]
	 Total Energy              =    -568.5847724174795985 [Eh]

	 ================> DF-SCS-MP2 Energies <==================
	-----------------------------------------------------------
	 SCS Same-Spin Scale       =       0.3333333333333333 [-]
	 SCS Opposite-Spin Scale   =       1.2000000000000000 [-]
	 SCS Same-Spin Energy      =      -0.1728721112469043 [Eh]
	 SCS Opposite-Spin Energy  =      -1.8481452914225311 [Eh]
	 SCS Correlation Energy    =      -2.0210174026694356 [Eh]
	 SCS Total Energy          =    -568.5470524102229319 [Eh]
	-----------------------------------------------------------

  Dipole Moment: [D]
     X:    -2.5809      Y:     0.0326      Z:    -0.0000     Total:     2.5812

*** Psi4 exiting successfully. Buy a developer a beer!
