                               Psi4 1.3.2 release

  ==> Input File <==

--------------------------------------------------------------------------
#psi4
#
memory 32 gb

molecule  {
0 1
  F        1.9821660     1.2528190    -0.0004060
  F        1.9351680    -0.6366780     1.0868470
  F        1.9352150    -0.6374130    -1.0863900
  C       -0.0483970     0.0270950    -0.0000420
  C       -0.7553000     1.2300380    -0.0000240
  C       -0.7204310    -1.1995770    -0.0000260
  C        1.3475041     0.0116354    -0.0000028
  C       -2.1511760     1.2020250     0.0000010
  C       -2.1135870    -1.2175920     0.0000010
  C       -2.8302990    -0.0173450     0.0000170
  H       -0.2211530     2.1747870    -0.0000390
  H       -0.1550120    -2.1281220    -0.0000490
  H       -2.7078980     2.1355510     0.0000090
  H       -2.6414440    -2.1677340     0.0000090
  H       -3.9172820    -0.0340560     0.0000400
units angstrom
no_reorient  #important for SAPT in psi4, default
symmetry c1  #important for SAPT in psi4, default
}

set PROPERTIES_ORIGIN ["COM"]
properties('MP2/aug-cc-pvtz', properties = ['dipole'])
--------------------------------------------------------------------------

    Molecular point group: c1
  Charge       = 0
  Multiplicity = 1
  Basis Set: AUG-CC-PVTZ
    Blend: AUG-CC-PVTZ
  Basis Set: (AUG-CC-PVTZ AUX)
    Blend: AUG-CC-PVTZ-JKFIT

    Orbital Energies [Eh]
    ---------------------

    Doubly Occupied:

       1A    -26.324666     2A    -26.319583     3A    -26.319561
       4A    -11.509786     5A    -11.274347     6A    -11.274173
       7A    -11.270078     8A    -11.269996     9A    -11.263380
      10A    -11.262693    11A     -1.691279    12A     -1.602970
      13A     -1.598797    14A     -1.196137    15A     -1.094902
      16A     -1.046701    17A     -0.961230    18A     -0.865597
      19A     -0.862353    20A     -0.787285    21A     -0.785063
      22A     -0.781514    23A     -0.711482    24A     -0.691176
      25A     -0.688986    26A     -0.661770    27A     -0.648381
      28A     -0.637898    29A     -0.636024    30A     -0.628011
      31A     -0.613635    32A     -0.608170    33A     -0.536759
      34A     -0.532873    35A     -0.525750    36A     -0.374599
      37A     -0.364746

  @DF-RHF Final Energy:  -566.51094965644450

   => Energetics <=

    Nuclear Repulsion Energy =            526.9647750110997322
    One-Electron Energy =               -1826.5067444247970343
    Two-Electron Energy =                 733.0310197572526931
    Total Energy =                       -566.5109496564444953
  Basis Set: (AUG-CC-PVTZ AUX)
    Blend: AUG-CC-PVTZ-RI
    Molecular point group: c1

    Geometry (in Angstrom), charge = 0, multiplicity = 1:

       Center              X                  Y                   Z               Mass
    ------------   -----------------  -----------------  -----------------  -----------------
         F            1.884855935685     1.252740308912    -0.000406199157    18.998403162730
         F            1.837857935685    -0.636756691088     1.086846800843    18.998403162730
         F            1.837904935685    -0.637491691088    -1.086390199157    18.998403162730
         C           -0.145707064315     0.027016308912    -0.000042199157    12.000000000000
         C           -0.852610064315     1.229959308912    -0.000024199157    12.000000000000
         C           -0.817741064315    -1.199655691088    -0.000026199157    12.000000000000
         C            1.250194035685     0.011556708912    -0.000002999157    12.000000000000
         C           -2.248486064315     1.201946308912     0.000000800843    12.000000000000
         C           -2.210897064315    -1.217670691088     0.000000800843    12.000000000000
         C           -2.927609064315    -0.017423691088     0.000016800843    12.000000000000
         H           -0.318463064315     2.174708308912    -0.000039199157     1.007825032230
         H           -0.252322064315    -2.128200691088    -0.000049199157     1.007825032230
         H           -2.805208064315     2.135472308912     0.000008800843     1.007825032230
         H           -2.738754064315    -2.167812691088     0.000008800843     1.007825032230
         H           -4.014592064315    -0.034134691088     0.000039800843     1.007825032230

  Basis Set: AUG-CC-PVTZ
    Blend: AUG-CC-PVTZ
  Basis Set: (AUG-CC-PVTZ AUX)
    Blend: AUG-CC-PVTZ-JKFIT
	 Reference Energy          =    -566.5109496564444953 [Eh]
	 Singles Energy            =      -0.0000000000000000 [Eh]
	 Same-Spin Energy          =      -0.5202010412597740 [Eh]
	 Opposite-Spin Energy      =      -1.5443362467695152 [Eh]
	 Correlation Energy        =      -2.0645372880292889 [Eh]
	 Total Energy              =    -568.5754869444738233 [Eh]

	 ================> DF-SCS-MP2 Energies <==================
	-----------------------------------------------------------
	 SCS Same-Spin Scale       =       0.3333333333333333 [-]
	 SCS Opposite-Spin Scale   =       1.2000000000000000 [-]
	 SCS Same-Spin Energy      =      -0.1734003470865913 [Eh]
	 SCS Opposite-Spin Energy  =      -1.8532034961234181 [Eh]
	 SCS Correlation Energy    =      -2.0266038432100095 [Eh]
	 SCS Total Energy          =    -568.5375534996544502 [Eh]
	-----------------------------------------------------------

  Dipole Moment: [D]
     X:    -3.9460      Y:     0.0537      Z:    -0.0001     Total:     3.9464

*** Psi4 exiting successfully. Buy a developer a beer!
