                               Psi4 1.3.2 release

  ==> Input File <==

--------------------------------------------------------------------------
#psi4
#
memory 32 gb

molecule  {
0 1
  F        2.0251956     1.2334026    -0.0003984
  F        1.9351680    -0.6366780     1.0868470
  F        1.9352150    -0.6374130    -1.0863900
  C       -0.0483970     0.0270950    -0.0000420
  C       -0.7553000     1.2300380    -0.0000240
  C       -0.7204310    -1.1995770    -0.0000260
  C        1.4474980     0.0105280     0.0000000
  C       -2.1511760     1.2020250     0.0000010
  C       -2.1135870    -1.2175920     0.0000010
  C       -2.8302990    -0.0173450     0.0000170
  H       -0.2211530     2.1747870    -0.0000390
  H       -0.1550120    -2.1281220    -0.0000490
  H       -2.7078980     2.1355510     0.0000090
  H       -2.6414440    -2.1677340     0.0000090
  H       -3.9172820    -0.0340560     0.0000400
units angstrom
no_reorient  #important for SAPT in psi4, default
symmetry c1  #important for SAPT in psi4, default
}

set PROPERTIES_ORIGIN ["COM"]
properties('MP2/aug-cc-pvtz', properties = ['dipole'])
--------------------------------------------------------------------------

    Molecular point group: c1
  Charge       = 0
  Multiplicity = 1
  Basis Set: AUG-CC-PVTZ
    Blend: AUG-CC-PVTZ
  Basis Set: (AUG-CC-PVTZ AUX)
    Blend: AUG-CC-PVTZ-JKFIT

    Orbital Energies [Eh]
    ---------------------

    Doubly Occupied:

       1A    -26.336472     2A    -26.331014     3A    -26.330992
       4A    -11.509598     5A    -11.272143     6A    -11.264897
       7A    -11.264745     8A    -11.261180     9A    -11.257837
      10A    -11.257247    11A     -1.718679    12A     -1.626119
      13A     -1.622919    14A     -1.182170    15A     -1.072750
      16A     -1.039461    17A     -0.962073    18A     -0.864833
      19A     -0.858249    20A     -0.811764    21A     -0.804791
      22A     -0.786548    23A     -0.710650    24A     -0.704122
      25A     -0.700481    26A     -0.660158    27A     -0.655189
      28A     -0.653440    29A     -0.641998    30A     -0.638735
      31A     -0.608800    32A     -0.592250    33A     -0.526087
      34A     -0.523204    35A     -0.519062    36A     -0.365037
      37A     -0.358695

  @DF-RHF Final Energy:  -566.53025300731304

   => Energetics <=

    Nuclear Repulsion Energy =            526.6122519250342293
    One-Electron Energy =               -1825.6962332050668465
    Two-Electron Energy =                 732.5537282727196953
    Total Energy =                       -566.5302530073130356
  Basis Set: (AUG-CC-PVTZ AUX)
    Blend: AUG-CC-PVTZ-RI
    Molecular point group: c1

    Geometry (in Angstrom), charge = 0, multiplicity = 1:

       Center              X                  Y                   Z               Mass
    ------------   -----------------  -----------------  -----------------  -----------------
         F            1.914070835919     1.235940892076    -0.000399817966    18.998403162730
         F            1.824043235919    -0.634139707924     1.086845582034    18.998403162730
         F            1.824090235919    -0.634874707924    -1.086391417966    18.998403162730
         C           -0.159521764081     0.029633292076    -0.000043417966    12.000000000000
         C           -0.866424764081     1.232576292076    -0.000025417966    12.000000000000
         C           -0.831555764081    -1.197038707924    -0.000027417966    12.000000000000
         C            1.336373235919     0.013066292076    -0.000001417966    12.000000000000
         C           -2.262300764081     1.204563292076    -0.000000417966    12.000000000000
         C           -2.224711764081    -1.215053707924    -0.000000417966    12.000000000000
         C           -2.941423764081    -0.014806707924     0.000015582034    12.000000000000
         H           -0.332277764081     2.177325292076    -0.000040417966     1.007825032230
         H           -0.266136764081    -2.125583707924    -0.000050417966     1.007825032230
         H           -2.819022764081     2.138089292076     0.000007582034     1.007825032230
         H           -2.752568764081    -2.165195707924     0.000007582034     1.007825032230
         H           -4.028406764081    -0.031517707924     0.000038582034     1.007825032230

  Basis Set: AUG-CC-PVTZ
    Blend: AUG-CC-PVTZ
  Basis Set: (AUG-CC-PVTZ AUX)
    Blend: AUG-CC-PVTZ-JKFIT
	 Reference Energy          =    -566.5302530073130356 [Eh]
	 Singles Energy            =      -0.0000000000000000 [Eh]
	 Same-Spin Energy          =      -0.5181514703563523 [Eh]
	 Opposite-Spin Energy      =      -1.5393216489136829 [Eh]
	 Correlation Energy        =      -2.0574731192700355 [Eh]
	 Total Energy              =    -568.5877261265831066 [Eh]

	 ================> DF-SCS-MP2 Energies <==================
	-----------------------------------------------------------
	 SCS Same-Spin Scale       =       0.3333333333333333 [-]
	 SCS Opposite-Spin Scale   =       1.2000000000000000 [-]
	 SCS Same-Spin Energy      =      -0.1727171567854508 [Eh]
	 SCS Opposite-Spin Energy  =      -1.8471859786964195 [Eh]
	 SCS Correlation Energy    =      -2.0199031354818704 [Eh]
	 SCS Total Energy          =    -568.5501561427948900 [Eh]
	-----------------------------------------------------------

  Dipole Moment: [D]
     X:    -2.9997      Y:     0.0589      Z:    -0.0000     Total:     3.0003

*** Psi4 exiting successfully. Buy a developer a beer!
