                               Psi4 1.3.2 release

  ==> Input File <==

--------------------------------------------------------------------------
#psi4
#
memory 32 gb

molecule  {
0 1
  F        1.9821660     1.2528190    -0.0004060
  F        1.9351680    -0.6366780     1.0868470
  F        1.9352150    -0.6374130    -1.0863900
  C       -0.0483970     0.0270950    -0.0000420
  C       -0.6256857     1.2973396    -0.0000182
  C       -0.7204310    -1.1995770    -0.0000260
  C        1.4474980     0.0105280     0.0000000
  C       -2.1511760     1.2020250     0.0000010
  C       -2.1135870    -1.2175920     0.0000010
  C       -2.8302990    -0.0173450     0.0000170
  H       -0.2211530     2.1747870    -0.0000390
  H       -0.1550120    -2.1281220    -0.0000490
  H       -2.7078980     2.1355510     0.0000090
  H       -2.6414440    -2.1677340     0.0000090
  H       -3.9172820    -0.0340560     0.0000400
units angstrom
no_reorient  #important for SAPT in psi4, default
symmetry c1  #important for SAPT in psi4, default
}

set PROPERTIES_ORIGIN ["COM"]
properties('MP2/aug-cc-pvtz', properties = ['dipole'])
--------------------------------------------------------------------------

    Molecular point group: c1
  Charge       = 0
  Multiplicity = 1
  Basis Set: AUG-CC-PVTZ
    Blend: AUG-CC-PVTZ
  Basis Set: (AUG-CC-PVTZ AUX)
    Blend: AUG-CC-PVTZ-JKFIT

    Orbital Energies [Eh]
    ---------------------

    Doubly Occupied:

       1A    -26.337311     2A    -26.330728     3A    -26.330706
       4A    -11.505657     5A    -11.275283     6A    -11.270897
       7A    -11.269163     8A    -11.263427     9A    -11.260940
      10A    -11.259178    11A     -1.717484    12A     -1.628075
      13A     -1.622302    14A     -1.173784    15A     -1.074283
      16A     -1.029096    17A     -0.960916    18A     -0.869774
      19A     -0.857425    20A     -0.811188    21A     -0.808605
      22A     -0.782730    23A     -0.715056    24A     -0.703721
      25A     -0.703089    26A     -0.670948    27A     -0.659924
      28A     -0.655995    29A     -0.642696    30A     -0.636151
      31A     -0.602593    32A     -0.591646    33A     -0.536019
      34A     -0.518011    35A     -0.501210    36A     -0.370264
      37A     -0.345888

  @DF-RHF Final Energy:  -566.50073443545182

   => Energetics <=

    Nuclear Repulsion Energy =            526.0313307063623824
    One-Electron Energy =               -1824.4798105292595665
    Two-Electron Energy =                 731.9477453874454795
    Total Energy =                       -566.5007344354518182
  Basis Set: (AUG-CC-PVTZ AUX)
    Blend: AUG-CC-PVTZ-RI
    Molecular point group: c1

    Geometry (in Angstrom), charge = 0, multiplicity = 1:

       Center              X                  Y                   Z               Mass
    ------------   -----------------  -----------------  -----------------  -----------------
         F            1.865988465877     1.247300968897    -0.000406905840    18.998403162730
         F            1.818990465877    -0.642196031103     1.086846094160    18.998403162730
         F            1.819037465877    -0.642931031103    -1.086390905840    18.998403162730
         C           -0.164574534123     0.021576968897    -0.000042905840    12.000000000000
         C           -0.741863234123     1.291821568897    -0.000019105840    12.000000000000
         C           -0.836608534123    -1.205095031103    -0.000026905840    12.000000000000
         C            1.331320465877     0.005009968897    -0.000000905840    12.000000000000
         C           -2.267353534123     1.196506968897     0.000000094160    12.000000000000
         C           -2.229764534123    -1.223110031103     0.000000094160    12.000000000000
         C           -2.946476534123    -0.022863031103     0.000016094160    12.000000000000
         H           -0.337330534123     2.169268968897    -0.000039905840     1.007825032230
         H           -0.271189534123    -2.133640031103    -0.000049905840     1.007825032230
         H           -2.824075534123     2.130032968897     0.000008094160     1.007825032230
         H           -2.757621534123    -2.173252031103     0.000008094160     1.007825032230
         H           -4.033459534123    -0.039574031103     0.000039094160     1.007825032230

  Basis Set: AUG-CC-PVTZ
    Blend: AUG-CC-PVTZ
  Basis Set: (AUG-CC-PVTZ AUX)
    Blend: AUG-CC-PVTZ-JKFIT
	 Reference Energy          =    -566.5007344354518182 [Eh]
	 Singles Energy            =      -0.0000000000000000 [Eh]
	 Same-Spin Energy          =      -0.5183190610494900 [Eh]
	 Opposite-Spin Energy      =      -1.5415423406231827 [Eh]
	 Correlation Energy        =      -2.0598614016726726 [Eh]
	 Total Energy              =    -568.5605958371245379 [Eh]

	 ================> DF-SCS-MP2 Energies <==================
	-----------------------------------------------------------
	 SCS Same-Spin Scale       =       0.3333333333333333 [-]
	 SCS Opposite-Spin Scale   =       1.2000000000000000 [-]
	 SCS Same-Spin Energy      =      -0.1727730203498300 [Eh]
	 SCS Opposite-Spin Energy  =      -1.8498508087478192 [Eh]
	 SCS Correlation Energy    =      -2.0226238290976490 [Eh]
	 SCS Total Energy          =    -568.5233582645494153 [Eh]
	-----------------------------------------------------------

  Dipole Moment: [D]
     X:    -2.9252      Y:     0.0561      Z:    -0.0000     Total:     2.9257

*** Psi4 exiting successfully. Buy a developer a beer!
