                               Psi4 1.3.2 release

  ==> Input File <==

--------------------------------------------------------------------------
#psi4
#
memory 32 gb

molecule  {
0 1
  F        1.9604036     1.2619610    -0.0004096
  F        1.9351680    -0.6366780     1.0868470
  F        1.9352150    -0.6374130    -1.0863900
  C       -0.0483970     0.0270950    -0.0000420
  C       -0.7553000     1.2300380    -0.0000240
  C       -0.7204310    -1.1995770    -0.0000260
  C        1.4474980     0.0105280     0.0000000
  C       -2.1511760     1.2020250     0.0000010
  C       -2.1135870    -1.2175920     0.0000010
  C       -2.8302990    -0.0173450     0.0000170
  H       -0.2211530     2.1747870    -0.0000390
  H       -0.1550120    -2.1281220    -0.0000490
  H       -2.7078980     2.1355510     0.0000090
  H       -2.6414440    -2.1677340     0.0000090
  H       -3.9172820    -0.0340560     0.0000400
units angstrom
no_reorient  #important for SAPT in psi4, default
symmetry c1  #important for SAPT in psi4, default
}

set PROPERTIES_ORIGIN ["COM"]
properties('MP2/aug-cc-pvtz', properties = ['dipole'])
--------------------------------------------------------------------------

    Molecular point group: c1
  Charge       = 0
  Multiplicity = 1
  Basis Set: AUG-CC-PVTZ
    Blend: AUG-CC-PVTZ
  Basis Set: (AUG-CC-PVTZ AUX)
    Blend: AUG-CC-PVTZ-JKFIT

    Orbital Energies [Eh]
    ---------------------

    Doubly Occupied:

       1A    -26.338311     2A    -26.333642     3A    -26.333621
       4A    -11.510274     5A    -11.269788     6A    -11.263378
       7A    -11.263189     8A    -11.260066     9A    -11.256688
      10A    -11.256135    11A     -1.718752    12A     -1.630023
      13A     -1.624704    14A     -1.180854    15A     -1.071863
      16A     -1.038262    17A     -0.962553    18A     -0.863803
      19A     -0.857759    20A     -0.812887    21A     -0.807554
      22A     -0.786085    23A     -0.711968    24A     -0.704309
      25A     -0.700609    26A     -0.664346    27A     -0.658258
      28A     -0.652266    29A     -0.645017    30A     -0.637610
      31A     -0.607482    32A     -0.589616    33A     -0.524897
      34A     -0.521638    35A     -0.517852    36A     -0.363765
      37A     -0.357568

  @DF-RHF Final Energy:  -566.53003609158054

   => Energetics <=

    Nuclear Repulsion Energy =            527.0195906600786202
    One-Electron Energy =               -1826.5044651378275375
    Two-Electron Energy =                 732.9548383861683760
    Total Energy =                       -566.5300360915805413
  Basis Set: (AUG-CC-PVTZ AUX)
    Blend: AUG-CC-PVTZ-RI
    Molecular point group: c1

    Geometry (in Angstrom), charge = 0, multiplicity = 1:

       Center              X                  Y                   Z               Mass
    ------------   -----------------  -----------------  -----------------  -----------------
         F            1.857707980617     1.260783974043    -0.000409560897    18.998403162730
         F            1.832472380617    -0.637855025957     1.086847039103    18.998403162730
         F            1.832519380617    -0.638590025957    -1.086389960897    18.998403162730
         C           -0.151092619383     0.025917974043    -0.000041960897    12.000000000000
         C           -0.857995619383     1.228860974043    -0.000023960897    12.000000000000
         C           -0.823126619383    -1.200754025957    -0.000025960897    12.000000000000
         C            1.344802380617     0.009350974043     0.000000039103    12.000000000000
         C           -2.253871619383     1.200847974043     0.000001039103    12.000000000000
         C           -2.216282619383    -1.218769025957     0.000001039103    12.000000000000
         C           -2.932994619383    -0.018522025957     0.000017039103    12.000000000000
         H           -0.323848619383     2.173609974043    -0.000038960897     1.007825032230
         H           -0.257707619383    -2.129299025957    -0.000048960897     1.007825032230
         H           -2.810593619383     2.134373974043     0.000009039103     1.007825032230
         H           -2.744139619383    -2.168911025957     0.000009039103     1.007825032230
         H           -4.019977619383    -0.035233025957     0.000040039103     1.007825032230

  Basis Set: AUG-CC-PVTZ
    Blend: AUG-CC-PVTZ
  Basis Set: (AUG-CC-PVTZ AUX)
    Blend: AUG-CC-PVTZ-JKFIT
	 Reference Energy          =    -566.5300360915805413 [Eh]
	 Singles Energy            =      -0.0000000000000000 [Eh]
	 Same-Spin Energy          =      -0.5182811658053037 [Eh]
	 Opposite-Spin Energy      =      -1.5395425237992180 [Eh]
	 Correlation Energy        =      -2.0578236896045219 [Eh]
	 Total Energy              =    -568.5878597811851023 [Eh]

	 ================> DF-SCS-MP2 Energies <==================
	-----------------------------------------------------------
	 SCS Same-Spin Scale       =       0.3333333333333333 [-]
	 SCS Opposite-Spin Scale   =       1.2000000000000000 [-]
	 SCS Same-Spin Energy      =      -0.1727603886017679 [Eh]
	 SCS Opposite-Spin Energy  =      -1.8474510285590615 [Eh]
	 SCS Correlation Energy    =      -2.0202114171608292 [Eh]
	 SCS Total Energy          =    -568.5502475087413359 [Eh]
	-----------------------------------------------------------

  Dipole Moment: [D]
     X:    -2.8471      Y:     0.0450      Z:    -0.0000     Total:     2.8475

*** Psi4 exiting successfully. Buy a developer a beer!
