                               Psi4 1.3.2 release

  ==> Input File <==

--------------------------------------------------------------------------
#psi4
#
memory 32 gb

molecule  {
0 1
  F        1.9821660     1.2528190    -0.0004060
  F        1.9351680    -0.6366780     1.0868470
  F        1.9352150    -0.6374130    -1.0863900
  C       -0.0483970     0.0270950    -0.0000420
  C       -0.7553000     1.2300380    -0.0000240
  C       -0.7204310    -1.1995770    -0.0000260
  C        1.5474919     0.0094206     0.0000028
  C       -2.1511760     1.2020250     0.0000010
  C       -2.1135870    -1.2175920     0.0000010
  C       -2.8302990    -0.0173450     0.0000170
  H       -0.2211530     2.1747870    -0.0000390
  H       -0.1550120    -2.1281220    -0.0000490
  H       -2.7078980     2.1355510     0.0000090
  H       -2.6414440    -2.1677340     0.0000090
  H       -3.9172820    -0.0340560     0.0000400
units angstrom
no_reorient  #important for SAPT in psi4, default
symmetry c1  #important for SAPT in psi4, default
}

set PROPERTIES_ORIGIN ["COM"]
properties('MP2/aug-cc-pvtz', properties = ['dipole'])
--------------------------------------------------------------------------

    Molecular point group: c1
  Charge       = 0
  Multiplicity = 1
  Basis Set: AUG-CC-PVTZ
    Blend: AUG-CC-PVTZ
  Basis Set: (AUG-CC-PVTZ AUX)
    Blend: AUG-CC-PVTZ-JKFIT

    Orbital Energies [Eh]
    ---------------------

    Doubly Occupied:

       1A    -26.349849     2A    -26.344511     3A    -26.344489
       4A    -11.511908     5A    -11.266621     6A    -11.254787
       7A    -11.254506     8A    -11.252303     9A    -11.251028
      10A    -11.250384    11A     -1.742885    12A     -1.652868
      13A     -1.647409    14A     -1.169733    15A     -1.053037
      16A     -1.031208    17A     -0.967495    18A     -0.862559
      19A     -0.854481    20A     -0.835796    21A     -0.826178
      22A     -0.788955    23A     -0.720335    24A     -0.717500
      25A     -0.700277    26A     -0.680842    27A     -0.676873
      28A     -0.658460    29A     -0.643264    30A     -0.632120
      31A     -0.601699    32A     -0.570822    33A     -0.517791
      34A     -0.511127    35A     -0.500570    36A     -0.354606
      37A     -0.351498

  @DF-RHF Final Energy:  -566.52432631986528

   => Energetics <=

    Nuclear Repulsion Energy =            526.7469425763140407
    One-Electron Energy =               -1825.8409916284290375
    Two-Electron Energy =                 732.5697227322497156
    Total Energy =                       -566.5243263198652812
  Basis Set: (AUG-CC-PVTZ AUX)
    Blend: AUG-CC-PVTZ-RI
    Molecular point group: c1

    Geometry (in Angstrom), charge = 0, multiplicity = 1:

       Center              X                  Y                   Z               Mass
    ------------   -----------------  -----------------  -----------------  -----------------
         F            1.868422446905     1.252922304468    -0.000406659323    18.998403162730
         F            1.821424446905    -0.636574695532     1.086846340677    18.998403162730
         F            1.821471446905    -0.637309695532    -1.086390659323    18.998403162730
         C           -0.162140553095     0.027198304468    -0.000042659323    12.000000000000
         C           -0.869043553095     1.230141304468    -0.000024659323    12.000000000000
         C           -0.834174553095    -1.199473695532    -0.000026659323    12.000000000000
         C            1.433748346905     0.009523904468     0.000002140677    12.000000000000
         C           -2.264919553095     1.202128304468     0.000000340677    12.000000000000
         C           -2.227330553095    -1.217488695532     0.000000340677    12.000000000000
         C           -2.944042553095    -0.017241695532     0.000016340677    12.000000000000
         H           -0.334896553095     2.174890304468    -0.000039659323     1.007825032230
         H           -0.268755553095    -2.128018695532    -0.000049659323     1.007825032230
         H           -2.821641553095     2.135654304468     0.000008340677     1.007825032230
         H           -2.755187553095    -2.167630695532     0.000008340677     1.007825032230
         H           -4.031025553095    -0.033952695532     0.000039340677     1.007825032230

  Basis Set: AUG-CC-PVTZ
    Blend: AUG-CC-PVTZ
  Basis Set: (AUG-CC-PVTZ AUX)
    Blend: AUG-CC-PVTZ-JKFIT
	 Reference Energy          =    -566.5243263198652812 [Eh]
	 Singles Energy            =      -0.0000000000000000 [Eh]
	 Same-Spin Energy          =      -0.5174278562682000 [Eh]
	 Opposite-Spin Energy      =      -1.5368854562995180 [Eh]
	 Correlation Energy        =      -2.0543133125677180 [Eh]
	 Total Energy              =    -568.5786396324330099 [Eh]

	 ================> DF-SCS-MP2 Energies <==================
	-----------------------------------------------------------
	 SCS Same-Spin Scale       =       0.3333333333333333 [-]
	 SCS Opposite-Spin Scale   =       1.2000000000000000 [-]
	 SCS Same-Spin Energy      =      -0.1724759520894000 [Eh]
	 SCS Opposite-Spin Energy  =      -1.8442625475594214 [Eh]
	 SCS Correlation Energy    =      -2.0167384996488216 [Eh]
	 SCS Total Energy          =    -568.5410648195140766 [Eh]
	-----------------------------------------------------------

  Dipole Moment: [D]
     X:    -1.9203      Y:     0.0467      Z:    -0.0000     Total:     1.9209

*** Psi4 exiting successfully. Buy a developer a beer!
