                               Psi4 1.3.2 release

  ==> Input File <==

--------------------------------------------------------------------------
#psi4
#
memory 32 gb

molecule  {
0 1
  S        1.2860020    -0.2606930    -0.0000810
  O       -0.7962180     1.3950430     0.0000390
  C       -1.3958001    -0.9449850     0.0500720
  C       -0.4471900     0.2281920    -0.0000640
  H       -1.2289500    -1.5666810    -0.8837680
  H       -1.2314380    -1.5641210     0.8861870
  H       -2.4167280    -0.5625730    -0.0018340
  H        1.7287820     1.0048730     0.0003520
units angstrom
no_reorient  #important for SAPT in psi4, default
symmetry c1  #important for SAPT in psi4, default
}

set PROPERTIES_ORIGIN ["COM"]
properties('MP2/aug-cc-pvtz', properties = ['dipole'])
--------------------------------------------------------------------------

    Molecular point group: c1
  Charge       = 0
  Multiplicity = 1
  Basis Set: AUG-CC-PVTZ
    Blend: AUG-CC-PVTZ
  Basis Set: (AUG-CC-PVTZ AUX)
    Blend: AUG-CC-PVTZ-JKFIT

    Orbital Energies [Eh]
    ---------------------

    Doubly Occupied:

       1A    -91.982799     2A    -20.567280     3A    -11.378661
       4A    -11.254834     5A     -8.985046     6A     -6.666246
       7A     -6.665179     8A     -6.664343     9A     -1.403485
      10A     -1.060213    11A     -0.986395    12A     -0.757275
      13A     -0.658967    14A     -0.643883    15A     -0.620574
      16A     -0.559984    17A     -0.532512    18A     -0.524502
      19A     -0.419802    20A     -0.395597

  @DF-RHF Final Energy:  -550.53335018015605

   => Energetics <=

    Nuclear Repulsion Energy =            153.0298164142597841
    One-Electron Energy =               -1061.6711774161171888
    Two-Electron Energy =                 358.1080108217013276
    Total Energy =                       -550.5333501801560487
  Basis Set: (AUG-CC-PVTZ AUX)
    Blend: AUG-CC-PVTZ-RI
    Molecular point group: c1

    Geometry (in Angstrom), charge = 0, multiplicity = 1:

       Center              X                  Y                   Z               Mass
    ------------   -----------------  -----------------  -----------------  -----------------
         S            1.245318746512    -0.295794356271    -0.007963735626    31.972071174400
         O           -0.836901253488     1.359941643729    -0.007843735626    15.994914619570
         C           -1.436483353488    -0.980086356271     0.042189264374    12.000000000000
         C           -0.487873253488     0.193090643729    -0.007946735626    12.000000000000
         H           -1.269633253488    -1.601782356271    -0.891650735626     1.007825032230
         H           -1.272121253488    -1.599222356271     0.878304264374     1.007825032230
         H           -2.457411253488    -0.597674356271    -0.009716735626     1.007825032230
         H            1.688098746512     0.969771643729    -0.007530735626     1.007825032230

  Basis Set: AUG-CC-PVTZ
    Blend: AUG-CC-PVTZ
  Basis Set: (AUG-CC-PVTZ AUX)
    Blend: AUG-CC-PVTZ-JKFIT
	 Reference Energy          =    -550.5333501801560487 [Eh]
	 Singles Energy            =      -0.0000000000000000 [Eh]
	 Same-Spin Energy          =      -0.2040052391505280 [Eh]
	 Opposite-Spin Energy      =      -0.6441852443367548 [Eh]
	 Correlation Energy        =      -0.8481904834872829 [Eh]
	 Total Energy              =    -551.3815406636433636 [Eh]

	 ================> DF-SCS-MP2 Energies <==================
	-----------------------------------------------------------
	 SCS Same-Spin Scale       =       0.3333333333333333 [-]
	 SCS Opposite-Spin Scale   =       1.2000000000000000 [-]
	 SCS Same-Spin Energy      =      -0.0680017463835093 [Eh]
	 SCS Opposite-Spin Energy  =      -0.7730222932041058 [Eh]
	 SCS Correlation Energy    =      -0.8410240395876151 [Eh]
	 SCS Total Energy          =    -551.3743742197436859 [Eh]
	-----------------------------------------------------------

  Dipole Moment: [D]
     X:    -0.0194      Y:    -1.8057      Z:     0.0173     Total:     1.8058

*** Psi4 exiting successfully. Buy a developer a beer!
