                               Psi4 1.3.2 release

  ==> Input File <==

--------------------------------------------------------------------------
#psi4
#
memory 32 gb

molecule  {
0 1
  S        1.2860020    -0.2606930    -0.0000810
  O       -0.7962180     1.3950430     0.0000390
  C       -1.3957887    -0.9449851     0.2500720
  C       -0.4471900     0.2281920    -0.0000640
  H       -1.2289500    -1.5666810    -0.8837680
  H       -1.2314380    -1.5641210     0.8861870
  H       -2.4167280    -0.5625730    -0.0018340
  H        1.7287820     1.0048730     0.0003520
units angstrom
no_reorient  #important for SAPT in psi4, default
symmetry c1  #important for SAPT in psi4, default
}

set PROPERTIES_ORIGIN ["COM"]
properties('MP2/aug-cc-pvtz', properties = ['dipole'])
--------------------------------------------------------------------------

    Molecular point group: c1
  Charge       = 0
  Multiplicity = 1
  Basis Set: AUG-CC-PVTZ
    Blend: AUG-CC-PVTZ
  Basis Set: (AUG-CC-PVTZ AUX)
    Blend: AUG-CC-PVTZ-JKFIT

    Orbital Energies [Eh]
    ---------------------

    Doubly Occupied:

       1A    -91.983582     2A    -20.568557     3A    -11.383285
       4A    -11.263160     5A     -8.985765     6A     -6.666947
       7A     -6.665883     8A     -6.665037     9A     -1.404674
      10A     -1.061233    11A     -0.989871    12A     -0.771144
      13A     -0.682342    14A     -0.651308    15A     -0.611397
      16A     -0.560327    17A     -0.530166    18A     -0.491107
      19A     -0.420172    20A     -0.395565

  @DF-RHF Final Energy:  -550.47082347946241

   => Energetics <=

    Nuclear Repulsion Energy =            152.8068174686462157
    One-Electron Energy =               -1061.0522387827611510
    Two-Electron Energy =                 357.7745978346525817
    Total Energy =                       -550.4708234794624104
  Basis Set: (AUG-CC-PVTZ AUX)
    Blend: AUG-CC-PVTZ-RI
    Molecular point group: c1

    Geometry (in Angstrom), charge = 0, multiplicity = 1:

       Center              X                  Y                   Z               Mass
    ------------   -----------------  -----------------  -----------------  -----------------
         S            1.245316946472    -0.295794340481    -0.039543395231    31.972071174400
         O           -0.836903053528     1.359941659519    -0.039423395231    15.994914619570
         C           -1.436473753528    -0.980086440481     0.210609604769    12.000000000000
         C           -0.487875053528     0.193090659519    -0.039526395231    12.000000000000
         H           -1.269635053528    -1.601782340481    -0.923230395231     1.007825032230
         H           -1.272123053528    -1.599222340481     0.846724604769     1.007825032230
         H           -2.457413053528    -0.597674340481    -0.041296395231     1.007825032230
         H            1.688096946472     0.969771659519    -0.039110395231     1.007825032230

  Basis Set: AUG-CC-PVTZ
    Blend: AUG-CC-PVTZ
  Basis Set: (AUG-CC-PVTZ AUX)
    Blend: AUG-CC-PVTZ-JKFIT
	 Reference Energy          =    -550.4708234794624104 [Eh]
	 Singles Energy            =      -0.0000000000000000 [Eh]
	 Same-Spin Energy          =      -0.2047486047391398 [Eh]
	 Opposite-Spin Energy      =      -0.6469437301754295 [Eh]
	 Correlation Energy        =      -0.8516923349145693 [Eh]
	 Total Energy              =    -551.3225158143769704 [Eh]

	 ================> DF-SCS-MP2 Energies <==================
	-----------------------------------------------------------
	 SCS Same-Spin Scale       =       0.3333333333333333 [-]
	 SCS Opposite-Spin Scale   =       1.2000000000000000 [-]
	 SCS Same-Spin Energy      =      -0.0682495349130466 [Eh]
	 SCS Opposite-Spin Energy  =      -0.7763324762105154 [Eh]
	 SCS Correlation Energy    =      -0.8445820111235620 [Eh]
	 SCS Total Energy          =    -551.3154054905859311 [Eh]
	-----------------------------------------------------------

  Dipole Moment: [D]
     X:    -0.0055      Y:    -1.7542      Z:     0.0741     Total:     1.7557

*** Psi4 exiting successfully. Buy a developer a beer!
