                               Psi4 1.3.2 release

  ==> Input File <==

--------------------------------------------------------------------------
#psi4
#
memory 32 gb

molecule  {
0 1
  S        1.2860020    -0.2606930    -0.0000810
  O       -0.7962180     1.3950430     0.0000390
  C       -1.3958030    -0.9449850     0.0000720
  C       -0.4471900     0.2281920    -0.0000640
  H       -1.2289500    -1.5666810    -0.8837680
  H       -1.2314380    -1.5641210     0.8861870
  H       -2.4167280    -0.5625730    -0.0018340
  H        1.7287820     1.0048730     0.0003520
units angstrom
no_reorient  #important for SAPT in psi4, default
symmetry c1  #important for SAPT in psi4, default
}

set PROPERTIES_ORIGIN ["COM"]
properties('MP2/aug-cc-pvtz', properties = ['dipole'])
--------------------------------------------------------------------------

    Molecular point group: c1
  Charge       = 0
  Multiplicity = 1
  Basis Set: AUG-CC-PVTZ
    Blend: AUG-CC-PVTZ
  Basis Set: (AUG-CC-PVTZ AUX)
    Blend: AUG-CC-PVTZ-JKFIT

    Orbital Energies [Eh]
    ---------------------

    Doubly Occupied:

       1A    -91.982766     2A    -20.567224     3A    -11.378464
       4A    -11.254488     5A     -8.985016     6A     -6.666216
       7A     -6.665149     8A     -6.664314     9A     -1.403433
      10A     -1.060181    11A     -0.986266    12A     -0.756782
      13A     -0.658278    14A     -0.641562    15A     -0.621967
      16A     -0.560143    17A     -0.532384    18A     -0.526504
      19A     -0.419784    20A     -0.395596

  @DF-RHF Final Energy:  -550.53588337072893

   => Energetics <=

    Nuclear Repulsion Energy =            153.0392557758577254
    One-Electron Energy =               -1061.6972452083532517
    Two-Electron Energy =                 358.1221060617665444
    Total Energy =                       -550.5358833707289250
  Basis Set: (AUG-CC-PVTZ AUX)
    Blend: AUG-CC-PVTZ-RI
    Molecular point group: c1

    Geometry (in Angstrom), charge = 0, multiplicity = 1:

       Center              X                  Y                   Z               Mass
    ------------   -----------------  -----------------  -----------------  -----------------
         S            1.245319204417    -0.295794356271    -0.000068820725    31.972071174400
         O           -0.836900795583     1.359941643729     0.000051179275    15.994914619570
         C           -1.436485795583    -0.980086356271     0.000084179275    12.000000000000
         C           -0.487872795583     0.193090643729    -0.000051820725    12.000000000000
         H           -1.269632795583    -1.601782356271    -0.883755820725     1.007825032230
         H           -1.272120795583    -1.599222356271     0.886199179275     1.007825032230
         H           -2.457410795583    -0.597674356271    -0.001821820725     1.007825032230
         H            1.688099204417     0.969771643729     0.000364179275     1.007825032230

  Basis Set: AUG-CC-PVTZ
    Blend: AUG-CC-PVTZ
  Basis Set: (AUG-CC-PVTZ AUX)
    Blend: AUG-CC-PVTZ-JKFIT
	 Reference Energy          =    -550.5358833707289250 [Eh]
	 Singles Energy            =      -0.0000000000000000 [Eh]
	 Same-Spin Energy          =      -0.2039753021885310 [Eh]
	 Opposite-Spin Energy      =      -0.6440732794656273 [Eh]
	 Correlation Energy        =      -0.8480485816541583 [Eh]
	 Total Energy              =    -551.3839319523831364 [Eh]

	 ================> DF-SCS-MP2 Energies <==================
	-----------------------------------------------------------
	 SCS Same-Spin Scale       =       0.3333333333333333 [-]
	 SCS Opposite-Spin Scale   =       1.2000000000000000 [-]
	 SCS Same-Spin Energy      =      -0.0679917673961770 [Eh]
	 SCS Opposite-Spin Energy  =      -0.7728879353587528 [Eh]
	 SCS Correlation Energy    =      -0.8408797027549297 [Eh]
	 SCS Total Energy          =    -551.3767630734838576 [Eh]
	-----------------------------------------------------------

  Dipole Moment: [D]
     X:    -0.0199      Y:    -1.8081      Z:     0.0005     Total:     1.8082

*** Psi4 exiting successfully. Buy a developer a beer!
