                               Psi4 1.3.2 release

  ==> Input File <==

--------------------------------------------------------------------------
#psi4
#
memory 32 gb

molecule  {
0 1
  S        1.2860020    -0.2606930    -0.0000810
  O       -0.7962180     1.3950430     0.0000390
  C       -1.3957973    -0.9449851     0.1000720
  C       -0.4471900     0.2281920    -0.0000640
  H       -1.2289500    -1.5666810    -0.8837680
  H       -1.2314380    -1.5641210     0.8861870
  H       -2.4167280    -0.5625730    -0.0018340
  H        1.7287820     1.0048730     0.0003520
units angstrom
no_reorient  #important for SAPT in psi4, default
symmetry c1  #important for SAPT in psi4, default
}

set PROPERTIES_ORIGIN ["COM"]
properties('MP2/aug-cc-pvtz', properties = ['dipole'])
--------------------------------------------------------------------------

    Molecular point group: c1
  Charge       = 0
  Multiplicity = 1
  Basis Set: AUG-CC-PVTZ
    Blend: AUG-CC-PVTZ
  Basis Set: (AUG-CC-PVTZ AUX)
    Blend: AUG-CC-PVTZ-JKFIT

    Orbital Energies [Eh]
    ---------------------

    Doubly Occupied:

       1A    -91.982897     2A    -20.567444     3A    -11.379250
       4A    -11.255877     5A     -8.985136     6A     -6.666333
       7A     -6.665266     8A     -6.664430     9A     -1.403638
      10A     -1.060316    11A     -0.986791    12A     -0.758814
      13A     -0.661845    14A     -0.648040    15A     -0.617860
      16A     -0.559774    17A     -0.532459    18A     -0.519103
      19A     -0.419851    20A     -0.395598

  @DF-RHF Final Energy:  -550.52571167494000

   => Energetics <=

    Nuclear Repulsion Energy =            153.0015594938747938
    One-Electron Energy =               -1061.5931019289046162
    Two-Electron Energy =                 358.0658307600899093
    Total Energy =                       -550.5257116749398847
  Basis Set: (AUG-CC-PVTZ AUX)
    Blend: AUG-CC-PVTZ-RI
    Molecular point group: c1

    Geometry (in Angstrom), charge = 0, multiplicity = 1:

       Center              X                  Y                   Z               Mass
    ------------   -----------------  -----------------  -----------------  -----------------
         S            1.245318304397    -0.295794340481    -0.015858650527    31.972071174400
         O           -0.836901695603     1.359941659519    -0.015738650527    15.994914619570
         C           -1.436480995603    -0.980086440481     0.084294349473    12.000000000000
         C           -0.487873695603     0.193090659519    -0.015841650527    12.000000000000
         H           -1.269633695603    -1.601782340481    -0.899545650527     1.007825032230
         H           -1.272121695603    -1.599222340481     0.870409349473     1.007825032230
         H           -2.457411695603    -0.597674340481    -0.017611650527     1.007825032230
         H            1.688098304397     0.969771659519    -0.015425650527     1.007825032230

  Basis Set: AUG-CC-PVTZ
    Blend: AUG-CC-PVTZ
  Basis Set: (AUG-CC-PVTZ AUX)
    Blend: AUG-CC-PVTZ-JKFIT
	 Reference Energy          =    -550.5257116749399984 [Eh]
	 Singles Energy            =      -0.0000000000000000 [Eh]
	 Same-Spin Energy          =      -0.2040957752634434 [Eh]
	 Opposite-Spin Energy      =      -0.6445219762050181 [Eh]
	 Correlation Energy        =      -0.8486177514684614 [Eh]
	 Total Energy              =    -551.3743294264085080 [Eh]

	 ================> DF-SCS-MP2 Energies <==================
	-----------------------------------------------------------
	 SCS Same-Spin Scale       =       0.3333333333333333 [-]
	 SCS Opposite-Spin Scale   =       1.2000000000000000 [-]
	 SCS Same-Spin Energy      =      -0.0680319250878145 [Eh]
	 SCS Opposite-Spin Energy  =      -0.7734263714460217 [Eh]
	 SCS Correlation Energy    =      -0.8414582965338362 [Eh]
	 SCS Total Energy          =    -551.3671699714737997 [Eh]
	-----------------------------------------------------------

  Dipole Moment: [D]
     X:    -0.0180      Y:    -1.7986      Z:     0.0337     Total:     1.7990

*** Psi4 exiting successfully. Buy a developer a beer!
