                               Psi4 1.3.2 release

  ==> Input File <==

--------------------------------------------------------------------------
#psi4
#
memory 32 gb

molecule  {
0 1
  S        1.2860020    -0.2606930    -0.0000810
  O       -0.7962180     1.3950430     0.0000390
  C       -1.3957858    -0.9449852     0.3000720
  C       -0.4471900     0.2281920    -0.0000640
  H       -1.2289500    -1.5666810    -0.8837680
  H       -1.2314380    -1.5641210     0.8861870
  H       -2.4167280    -0.5625730    -0.0018340
  H        1.7287820     1.0048730     0.0003520
units angstrom
no_reorient  #important for SAPT in psi4, default
symmetry c1  #important for SAPT in psi4, default
}

set PROPERTIES_ORIGIN ["COM"]
properties('MP2/aug-cc-pvtz', properties = ['dipole'])
--------------------------------------------------------------------------

    Molecular point group: c1
  Charge       = 0
  Multiplicity = 1
  Basis Set: AUG-CC-PVTZ
    Blend: AUG-CC-PVTZ
  Basis Set: (AUG-CC-PVTZ AUX)
    Blend: AUG-CC-PVTZ-JKFIT

    Orbital Energies [Eh]
    ---------------------

    Doubly Occupied:

       1A    -91.983941     2A    -20.569127     3A    -11.385326
       4A    -11.266944     5A     -8.986095     6A     -6.667270
       7A     -6.666207     8A     -6.665356     9A     -1.405196
      10A     -1.061852    11A     -0.991661    12A     -0.777877
      13A     -0.688075    14A     -0.651011    15A     -0.609741
      16A     -0.560908    17A     -0.528889    18A     -0.480239
      19A     -0.420325    20A     -0.395519

  @DF-RHF Final Energy:  -550.44131264756470

   => Energetics <=

    Nuclear Repulsion Energy =            152.7064889807737700
    One-Electron Energy =               -1060.7724830660408770
    Two-Electron Energy =                 357.6246814377024066
    Total Energy =                       -550.4413126475647005
  Basis Set: (AUG-CC-PVTZ AUX)
    Blend: AUG-CC-PVTZ-RI
    Molecular point group: c1

    Geometry (in Angstrom), charge = 0, multiplicity = 1:

       Center              X                  Y                   Z               Mass
    ------------   -----------------  -----------------  -----------------  -----------------
         S            1.245316488567    -0.295794324691    -0.047438310132    31.972071174400
         O           -0.836903511433     1.359941675309    -0.047318310132    15.994914619570
         C           -1.436471311433    -0.980086524691     0.252714689868    12.000000000000
         C           -0.487875511433     0.193090675309    -0.047421310132    12.000000000000
         H           -1.269635511433    -1.601782324691    -0.931125310132     1.007825032230
         H           -1.272123511433    -1.599222324691     0.838829689868     1.007825032230
         H           -2.457413511433    -0.597674324691    -0.049191310132     1.007825032230
         H            1.688096488567     0.969771675309    -0.047005310132     1.007825032230

  Basis Set: AUG-CC-PVTZ
    Blend: AUG-CC-PVTZ
  Basis Set: (AUG-CC-PVTZ AUX)
    Blend: AUG-CC-PVTZ-JKFIT
	 Reference Energy          =    -550.4413126475647005 [Eh]
	 Singles Energy            =      -0.0000000000000000 [Eh]
	 Same-Spin Energy          =      -0.2051021446610280 [Eh]
	 Opposite-Spin Energy      =      -0.6482476641840480 [Eh]
	 Correlation Energy        =      -0.8533498088450761 [Eh]
	 Total Energy              =    -551.2946624564098101 [Eh]

	 ================> DF-SCS-MP2 Energies <==================
	-----------------------------------------------------------
	 SCS Same-Spin Scale       =       0.3333333333333333 [-]
	 SCS Opposite-Spin Scale   =       1.2000000000000000 [-]
	 SCS Same-Spin Energy      =      -0.0683673815536760 [Eh]
	 SCS Opposite-Spin Energy  =      -0.7778971970208576 [Eh]
	 SCS Correlation Energy    =      -0.8462645785745335 [Eh]
	 SCS Total Energy          =    -551.2875772261392058 [Eh]
	-----------------------------------------------------------

  Dipole Moment: [D]
     X:     0.0028      Y:    -1.7342      Z:     0.0821     Total:     1.7361

*** Psi4 exiting successfully. Buy a developer a beer!
