                               Psi4 1.3.2 release

  ==> Input File <==

--------------------------------------------------------------------------
#psi4
#
memory 32 gb

molecule  {
0 1
  S        1.2860020    -0.2606930    -0.0000810
  O       -0.7962180     1.3950430     0.0000390
  C       -1.3957916    -0.9449851     0.2000720
  C       -0.4471900     0.2281920    -0.0000640
  H       -1.2289500    -1.5666810    -0.8837680
  H       -1.2314380    -1.5641210     0.8861870
  H       -2.4167280    -0.5625730    -0.0018340
  H        1.7287820     1.0048730     0.0003520
units angstrom
no_reorient  #important for SAPT in psi4, default
symmetry c1  #important for SAPT in psi4, default
}

set PROPERTIES_ORIGIN ["COM"]
properties('MP2/aug-cc-pvtz', properties = ['dipole'])
--------------------------------------------------------------------------

    Molecular point group: c1
  Charge       = 0
  Multiplicity = 1
  Basis Set: AUG-CC-PVTZ
    Blend: AUG-CC-PVTZ
  Basis Set: (AUG-CC-PVTZ AUX)
    Blend: AUG-CC-PVTZ-JKFIT

    Orbital Energies [Eh]
    ---------------------

    Doubly Occupied:

       1A    -91.983288     2A    -20.568084     3A    -11.381577
       4A    -11.260046     5A     -8.985494     6A     -6.666683
       7A     -6.665618     8A     -6.664776     9A     -1.404236
      10A     -1.060797    11A     -0.988489    12A     -0.765634
      13A     -0.675288    14A     -0.651271    15A     -0.613201
      16A     -0.559914    17A     -0.531220    18A     -0.501620
      19A     -0.420039    20A     -0.395587

  @DF-RHF Final Energy:  -550.49461993774196

   => Energetics <=

    Nuclear Repulsion Energy =            152.8896849593215279
    One-Electron Energy =               -1061.2828812762174948
    Two-Electron Energy =                 357.8985763791539512
    Total Energy =                       -550.4946199377419589
  Basis Set: (AUG-CC-PVTZ AUX)
    Blend: AUG-CC-PVTZ-RI
    Molecular point group: c1

    Geometry (in Angstrom), charge = 0, multiplicity = 1:

       Center              X                  Y                   Z               Mass
    ------------   -----------------  -----------------  -----------------  -----------------
         S            1.245317404377    -0.295794340481    -0.031648480330    31.972071174400
         O           -0.836902595623     1.359941659519    -0.031528480330    15.994914619570
         C           -1.436476195623    -0.980086440481     0.168504519670    12.000000000000
         C           -0.487874595623     0.193090659519    -0.031631480330    12.000000000000
         H           -1.269634595623    -1.601782340481    -0.915335480330     1.007825032230
         H           -1.272122595623    -1.599222340481     0.854619519670     1.007825032230
         H           -2.457412595623    -0.597674340481    -0.033401480330     1.007825032230
         H            1.688097404377     0.969771659519    -0.031215480330     1.007825032230

  Basis Set: AUG-CC-PVTZ
    Blend: AUG-CC-PVTZ
  Basis Set: (AUG-CC-PVTZ AUX)
    Blend: AUG-CC-PVTZ-JKFIT
	 Reference Energy          =    -550.4946199377419589 [Eh]
	 Singles Energy            =      -0.0000000000000000 [Eh]
	 Same-Spin Energy          =      -0.2044650411792347 [Eh]
	 Opposite-Spin Energy      =      -0.6458932569960473 [Eh]
	 Correlation Energy        =      -0.8503582981752820 [Eh]
	 Total Energy              =    -551.3449782359172104 [Eh]

	 ================> DF-SCS-MP2 Energies <==================
	-----------------------------------------------------------
	 SCS Same-Spin Scale       =       0.3333333333333333 [-]
	 SCS Opposite-Spin Scale   =       1.2000000000000000 [-]
	 SCS Same-Spin Energy      =      -0.0681550137264116 [Eh]
	 SCS Opposite-Spin Energy  =      -0.7750719083952567 [Eh]
	 SCS Correlation Energy    =      -0.8432269221216683 [Eh]
	 SCS Total Energy          =    -551.3378468598635891 [Eh]
	-----------------------------------------------------------

  Dipole Moment: [D]
     X:    -0.0114      Y:    -1.7722      Z:     0.0628     Total:     1.7734

*** Psi4 exiting successfully. Buy a developer a beer!
