                               Psi4 1.3.2 release

  ==> Input File <==

--------------------------------------------------------------------------
#psi4
#
memory 32 gb

molecule  {
0 1
  S        1.2860020    -0.2606930    -0.0000810
  O       -0.7962180     1.3950430     0.0000390
  C       -1.3957944    -0.9449851     0.1500720
  C       -0.4471900     0.2281920    -0.0000640
  H       -1.2289500    -1.5666810    -0.8837680
  H       -1.2314380    -1.5641210     0.8861870
  H       -2.4167280    -0.5625730    -0.0018340
  H        1.7287820     1.0048730     0.0003520
units angstrom
no_reorient  #important for SAPT in psi4, default
symmetry c1  #important for SAPT in psi4, default
}

set PROPERTIES_ORIGIN ["COM"]
properties('MP2/aug-cc-pvtz', properties = ['dipole'])
--------------------------------------------------------------------------

    Molecular point group: c1
  Charge       = 0
  Multiplicity = 1
  Basis Set: AUG-CC-PVTZ
    Blend: AUG-CC-PVTZ
  Basis Set: (AUG-CC-PVTZ AUX)
    Blend: AUG-CC-PVTZ-JKFIT

    Orbital Energies [Eh]
    ---------------------

    Doubly Occupied:

       1A    -91.983060     2A    -20.567712     3A    -11.380226
       4A    -11.257616     5A     -8.985285     6A     -6.666479
       7A     -6.665413     8A     -6.664574     9A     -1.403889
      10A     -1.060502    11A     -0.987477    12A     -0.761544
      13A     -0.667820    14A     -0.650494    15A     -0.615315
      16A     -0.559723    17A     -0.532007    18A     -0.511202
      19A     -0.419930    20A     -0.395596

  @DF-RHF Final Energy:  -550.51285573618725

   => Energetics <=

    Nuclear Repulsion Energy =            152.9547326874256896
    One-Electron Energy =               -1061.4634520392626200
    Two-Electron Energy =                 357.9958636156496254
    Total Energy =                       -550.5128557361872481
  Basis Set: (AUG-CC-PVTZ AUX)
    Blend: AUG-CC-PVTZ-RI
    Molecular point group: c1

    Geometry (in Angstrom), charge = 0, multiplicity = 1:

       Center              X                  Y                   Z               Mass
    ------------   -----------------  -----------------  -----------------  -----------------
         S            1.245317846492    -0.295794340481    -0.023753565428    31.972071174400
         O           -0.836902153508     1.359941659519    -0.023633565428    15.994914619570
         C           -1.436478553508    -0.980086440481     0.126399434572    12.000000000000
         C           -0.487874153508     0.193090659519    -0.023736565428    12.000000000000
         H           -1.269634153508    -1.601782340481    -0.907440565428     1.007825032230
         H           -1.272122153508    -1.599222340481     0.862514434572     1.007825032230
         H           -2.457412153508    -0.597674340481    -0.025506565428     1.007825032230
         H            1.688097846492     0.969771659519    -0.023320565428     1.007825032230

  Basis Set: AUG-CC-PVTZ
    Blend: AUG-CC-PVTZ
  Basis Set: (AUG-CC-PVTZ AUX)
    Blend: AUG-CC-PVTZ-JKFIT
	 Reference Energy          =    -550.5128557361872481 [Eh]
	 Singles Energy            =      -0.0000000000000000 [Eh]
	 Same-Spin Energy          =      -0.2042483296322489 [Eh]
	 Opposite-Spin Energy      =      -0.6450888044803920 [Eh]
	 Correlation Energy        =      -0.8493371341126409 [Eh]
	 Total Energy              =    -551.3621928702998503 [Eh]

	 ================> DF-SCS-MP2 Energies <==================
	-----------------------------------------------------------
	 SCS Same-Spin Scale       =       0.3333333333333333 [-]
	 SCS Opposite-Spin Scale   =       1.2000000000000000 [-]
	 SCS Same-Spin Energy      =      -0.0680827765440830 [Eh]
	 SCS Opposite-Spin Energy  =      -0.7741065653764704 [Eh]
	 SCS Correlation Energy    =      -0.8421893419205533 [Eh]
	 SCS Total Energy          =    -551.3550450781077643 [Eh]
	-----------------------------------------------------------

  Dipole Moment: [D]
     X:    -0.0154      Y:    -1.7873      Z:     0.0491     Total:     1.7880

*** Psi4 exiting successfully. Buy a developer a beer!
