                               Psi4 1.4a2.dev612

  ==> Input File <==

--------------------------------------------------------------------------
#psi4
#
memory 32 gb

molecule  {
0 1
 Br        0.9177060    -0.9570590     1.5920850
 Br        0.9177150    -0.9570980    -1.5920580
 Br        1.2265620     1.7572190    -0.0000210
  C       -1.1965930     0.1192070    -0.0000060
  C       -1.9155750    -1.0884400    -0.0000040
  C       -1.8874290     1.3343550    -0.0000020
  C        0.3074132     0.0291791    -0.1500000
  C       -3.3062270    -1.0722710    -0.0000080
  C       -3.2847940     1.3392570    -0.0000050
  C       -3.9987170     0.1427130    -0.0000040
  H       -1.3823580    -2.0353640    -0.0000080
  H       -1.3462350     2.2735570    -0.0000030
  H       -3.8517840    -2.0125620    -0.0000060
  H       -3.8118410     2.2900330    -0.0000020
  H       -5.0856930     0.1531320    -0.0000070
units angstrom
no_reorient  #important for SAPT in psi4, default
symmetry c1  #important for SAPT in psi4, default
}

set PROPERTIES_ORIGIN ["COM"]
properties('MP2/aug-cc-pvtz', properties = ['dipole'])
--------------------------------------------------------------------------

    Molecular point group: c1
  Charge       = 0
  Multiplicity = 1
  Basis Set: AUG-CC-PVTZ
    Blend: AUG-CC-PVTZ
  Basis Set: (AUG-CC-PVTZ AUX)
    Blend: AUG-CC-PVTZ-JKFIT

    Orbital Energies [Eh]
    ---------------------

    Doubly Occupied:

       1A   -490.053190     2A   -490.044651     3A   -490.024135
       4A    -65.193376     5A    -65.184369     6A    -65.163739
       7A    -58.548726     8A    -58.547116     9A    -58.547074
      10A    -58.539804    11A    -58.538106    12A    -58.538089
      13A    -58.519143    14A    -58.517485    15A    -58.517467
      16A    -11.429650    17A    -11.279473    18A    -11.258567
      19A    -11.257771    20A    -11.255661    21A    -11.253094
      22A    -11.252605    23A     -9.866802    24A     -9.857003
      25A     -9.836010    26A     -7.479086    27A     -7.471145
      28A     -7.470958    29A     -7.469059    30A     -7.461241
      31A     -7.461225    32A     -7.447730    33A     -7.440351
      34A     -7.440270    35A     -3.223217    36A     -3.218947
      37A     -3.218704    38A     -3.213067    39A     -3.209049
      40A     -3.208993    41A     -3.208665    42A     -3.208660
      43A     -3.198842    44A     -3.198834    45A     -3.191452
      46A     -3.187892    47A     -3.187788    48A     -3.178141
      49A     -3.178135    50A     -1.195057    51A     -1.142642
      52A     -1.041817    53A     -1.036147    54A     -1.024086
      55A     -0.996493    56A     -0.882702    57A     -0.845991
      58A     -0.783915    59A     -0.712760    60A     -0.652351
      61A     -0.651009    62A     -0.613675    63A     -0.605883
      64A     -0.583646    65A     -0.552540    66A     -0.526759
      67A     -0.513347    68A     -0.510711    69A     -0.457522
      70A     -0.446830    71A     -0.430731    72A     -0.417703
      73A     -0.400689    74A     -0.394784    75A     -0.354925
      76A     -0.344301

  @DF-RHF Final Energy: -7985.42026214118687

   => Energetics <=

    Nuclear Repulsion Energy =           1587.2877887660652050
    One-Electron Energy =              -14276.7889578254944354
    Two-Electron Energy =                4704.0809069182423627
    Total Energy =                      -7985.4202621411868677
  Basis Set: (AUG-CC-PVTZ AUX)
    Blend: AUG-CC-PVTZ-RI
    Molecular point group: c1

    Geometry (in Angstrom), charge = 0, multiplicity = 1:

       Center              X                  Y                   Z               Mass
    ------------   -----------------  -----------------  -----------------  -----------------
         BR           0.786750542563    -0.950725996193     1.597609656474    78.918337600000
         BR           0.786759542563    -0.950764996193    -1.586533343526    78.918337600000
         BR           1.095606542563     1.763552003807     0.005503656474    78.918337600000
         C           -1.327548457437     0.125540003807     0.005518656474    12.000000000000
         C           -2.046530457437    -1.082106996193     0.005520656474    12.000000000000
         C           -2.018384457437     1.340688003807     0.005522656474    12.000000000000
         C            0.176457742563     0.035512103807    -0.144475343526    12.000000000000
         C           -3.437182457437    -1.065937996193     0.005516656474    12.000000000000
         C           -3.415749457437     1.345590003807     0.005519656474    12.000000000000
         C           -4.129672457437     0.149046003807     0.005520656474    12.000000000000
         H           -1.513313457437    -2.029030996193     0.005516656474     1.007825032230
         H           -1.477190457437     2.279890003807     0.005521656474     1.007825032230
         H           -3.982739457437    -2.006228996193     0.005518656474     1.007825032230
         H           -3.942796457437     2.296366003807     0.005522656474     1.007825032230
         H           -5.216648457437     0.159465003807     0.005517656474     1.007825032230

  Basis Set: AUG-CC-PVTZ
    Blend: AUG-CC-PVTZ
  Basis Set: (AUG-CC-PVTZ AUX)
    Blend: AUG-CC-PVTZ-JKFIT
	 Reference Energy          =   -7985.4202621411868677 [Eh]
	 Singles Energy            =      -0.0000000000000000 [Eh]
	 Same-Spin Energy          =      -0.5859372043508968 [Eh]
	 Opposite-Spin Energy      =      -1.5636730851186664 [Eh]
	 Correlation Energy        =      -2.1496102894695630 [Eh]
	 Total Energy              =   -7987.5698724306566874 [Eh]

	 ================> DF-SCS-MP2 Energies <==================
	-----------------------------------------------------------
	 SCS Same-Spin Scale       =       0.3333333333333333 [-]
	 SCS Opposite-Spin Scale   =       1.2000000000000000 [-]
	 SCS Same-Spin Energy      =      -0.1953124014502989 [Eh]
	 SCS Opposite-Spin Energy  =      -1.8764077021423997 [Eh]
	 SCS Correlation Energy    =      -2.0717201035926989 [Eh]
	 SCS Total Energy          =   -7987.4919822447791375 [Eh]
	-----------------------------------------------------------

  Dipole Moment: [D]
     X:    -2.2149      Y:     0.1450      Z:    -0.7446     Total:     2.3412

*** Psi4 exiting successfully. Buy a developer a beer!
