                               Psi4 1.4a2.dev612

  ==> Input File <==

--------------------------------------------------------------------------
#psi4
#
memory 32 gb

molecule  {
0 1
 Br        0.9177060    -0.9570590     1.5920850
 Br        0.9177150    -0.9570980    -1.5920580
 Br        1.2265620     1.7572190    -0.0000210
  C       -1.1965930     0.1192070    -0.0000060
  C       -1.9155750    -1.0884400    -0.0000040
  C       -1.8874290     1.3343550    -0.0000020
  C        0.3074133     0.0291792    -0.2000000
  C       -3.3062270    -1.0722710    -0.0000080
  C       -3.2847940     1.3392570    -0.0000050
  C       -3.9987170     0.1427130    -0.0000040
  H       -1.3823580    -2.0353640    -0.0000080
  H       -1.3462350     2.2735570    -0.0000030
  H       -3.8517840    -2.0125620    -0.0000060
  H       -3.8118410     2.2900330    -0.0000020
  H       -5.0856930     0.1531320    -0.0000070
units angstrom
no_reorient  #important for SAPT in psi4, default
symmetry c1  #important for SAPT in psi4, default
}

set PROPERTIES_ORIGIN ["COM"]
properties('MP2/aug-cc-pvtz', properties = ['dipole'])
--------------------------------------------------------------------------

    Molecular point group: c1
  Charge       = 0
  Multiplicity = 1
  Basis Set: AUG-CC-PVTZ
    Blend: AUG-CC-PVTZ
  Basis Set: (AUG-CC-PVTZ AUX)
    Blend: AUG-CC-PVTZ-JKFIT

    Orbital Energies [Eh]
    ---------------------

    Doubly Occupied:

       1A   -490.057720     2A   -490.045019     3A   -490.018113
       4A    -65.198128     5A    -65.184707     6A    -65.157728
       7A    -58.553431     8A    -58.551874     9A    -58.551821
      10A    -58.540149    11A    -58.538441    12A    -58.538422
      13A    -58.513109    14A    -58.511485    15A    -58.511466
      16A    -11.431484    17A    -11.280778    18A    -11.258922
      19A    -11.257986    20A    -11.255917    21A    -11.253331
      22A    -11.252879    23A     -9.871922    24A     -9.857307
      25A     -9.829949    26A     -7.484278    27A     -7.476319
      28A     -7.476090    29A     -7.469370    30A     -7.461526
      31A     -7.461505    32A     -7.441538    33A     -7.434351
      34A     -7.434273    35A     -3.228455    36A     -3.224082
      37A     -3.223779    38A     -3.213844    39A     -3.213839
      40A     -3.213387    41A     -3.209367    42A     -3.209302
      43A     -3.199110    44A     -3.199101    45A     -3.185164
      46A     -3.181748    47A     -3.181647    48A     -3.172242
      49A     -3.172236    50A     -1.196917    51A     -1.146287
      52A     -1.045575    53A     -1.036828    54A     -1.024906
      55A     -0.989803    56A     -0.882189    57A     -0.846213
      58A     -0.784355    59A     -0.713524    60A     -0.653088
      61A     -0.652037    62A     -0.615284    63A     -0.606258
      64A     -0.584815    65A     -0.554219    66A     -0.527912
      67A     -0.513904    68A     -0.510770    69A     -0.458643
      70A     -0.446516    71A     -0.427609    72A     -0.419638
      73A     -0.397454    74A     -0.391088    75A     -0.355014
      76A     -0.343457

  @DF-RHF Final Energy: -7985.41294631897836

   => Energetics <=

    Nuclear Repulsion Energy =           1587.3221850742252172
    One-Electron Energy =              -14276.8443708136255736
    Two-Electron Energy =                4704.1092394204224547
    Total Energy =                      -7985.4129463189783564
  Basis Set: (AUG-CC-PVTZ AUX)
    Blend: AUG-CC-PVTZ-RI
    Molecular point group: c1

    Geometry (in Angstrom), charge = 0, multiplicity = 1:

       Center              X                  Y                   Z               Mass
    ------------   -----------------  -----------------  -----------------  -----------------
         BR           0.786750538880    -0.950725999876     1.599451310236    78.918337600000
         BR           0.786759538880    -0.950764999876    -1.584691689764    78.918337600000
         BR           1.095606538880     1.763552000124     0.007345310236    78.918337600000
         C           -1.327548461120     0.125540000124     0.007360310236    12.000000000000
         C           -2.046530461120    -1.082106999876     0.007362310236    12.000000000000
         C           -2.018384461120     1.340688000124     0.007364310236    12.000000000000
         C            0.176457838880     0.035512200124    -0.192633689764    12.000000000000
         C           -3.437182461120    -1.065937999876     0.007358310236    12.000000000000
         C           -3.415749461120     1.345590000124     0.007361310236    12.000000000000
         C           -4.129672461120     0.149046000124     0.007362310236    12.000000000000
         H           -1.513313461120    -2.029030999876     0.007358310236     1.007825032230
         H           -1.477190461120     2.279890000124     0.007363310236     1.007825032230
         H           -3.982739461120    -2.006228999876     0.007360310236     1.007825032230
         H           -3.942796461120     2.296366000124     0.007364310236     1.007825032230
         H           -5.216648461120     0.159465000124     0.007359310236     1.007825032230

  Basis Set: AUG-CC-PVTZ
    Blend: AUG-CC-PVTZ
  Basis Set: (AUG-CC-PVTZ AUX)
    Blend: AUG-CC-PVTZ-JKFIT
	 Reference Energy          =   -7985.4129463189783564 [Eh]
	 Singles Energy            =      -0.0000000000000000 [Eh]
	 Same-Spin Energy          =      -0.5864623768444258 [Eh]
	 Opposite-Spin Energy      =      -1.5643158361568115 [Eh]
	 Correlation Energy        =      -2.1507782130012374 [Eh]
	 Total Energy              =   -7987.5637245319794602 [Eh]

	 ================> DF-SCS-MP2 Energies <==================
	-----------------------------------------------------------
	 SCS Same-Spin Scale       =       0.3333333333333333 [-]
	 SCS Opposite-Spin Scale   =       1.2000000000000000 [-]
	 SCS Same-Spin Energy      =      -0.1954874589481419 [Eh]
	 SCS Opposite-Spin Energy  =      -1.8771790033881737 [Eh]
	 SCS Correlation Energy    =      -2.0726664623363158 [Eh]
	 SCS Total Energy          =   -7987.4856127813145577 [Eh]
	-----------------------------------------------------------

  Dipole Moment: [D]
     X:    -2.2221      Y:     0.1302      Z:    -1.0079     Total:     2.4435

*** Psi4 exiting successfully. Buy a developer a beer!
