                               Psi4 1.4a2.dev612

  ==> Input File <==

--------------------------------------------------------------------------
#psi4
#
memory 32 gb

molecule  {
0 1
 Br        0.9177060    -0.9570590     1.5920850
 Br        0.9177150    -0.9570980    -1.5920580
 Br        1.2265620     1.7572190    -0.0000210
  C       -1.1965930     0.1192070    -0.0000060
  C       -1.9155750    -1.0884400    -0.0000040
  C       -1.8874290     1.3343550    -0.0000020
  C        0.3074131     0.0291791    -0.1000000
  C       -3.3062270    -1.0722710    -0.0000080
  C       -3.2847940     1.3392570    -0.0000050
  C       -3.9987170     0.1427130    -0.0000040
  H       -1.3823580    -2.0353640    -0.0000080
  H       -1.3462350     2.2735570    -0.0000030
  H       -3.8517840    -2.0125620    -0.0000060
  H       -3.8118410     2.2900330    -0.0000020
  H       -5.0856930     0.1531320    -0.0000070
units angstrom
no_reorient  #important for SAPT in psi4, default
symmetry c1  #important for SAPT in psi4, default
}

set PROPERTIES_ORIGIN ["COM"]
properties('MP2/aug-cc-pvtz', properties = ['dipole'])
--------------------------------------------------------------------------

    Molecular point group: c1
  Charge       = 0
  Multiplicity = 1
  Basis Set: AUG-CC-PVTZ
    Blend: AUG-CC-PVTZ
  Basis Set: (AUG-CC-PVTZ AUX)
    Blend: AUG-CC-PVTZ-JKFIT

    Orbital Energies [Eh]
    ---------------------

    Doubly Occupied:

       1A   -490.048743     2A   -490.044373     3A   -490.029680
       4A    -65.188745     5A    -65.184113     6A    -65.169301
       7A    -58.544130     8A    -58.542481     9A    -58.542447
      10A    -58.539544    11A    -58.537853    12A    -58.537838
      13A    -58.524720    14A    -58.523040    15A    -58.523021
      16A    -11.428303    17A    -11.278530    18A    -11.258308
      19A    -11.257614    20A    -11.255474    21A    -11.252923
      22A    -11.252404    23A     -9.861859    24A     -9.856773
      25A     -9.841657    26A     -7.474067    27A     -7.468823
      28A     -7.466163    29A     -7.466008    30A     -7.461024
      31A     -7.461012    32A     -7.453494    33A     -7.445957
      34A     -7.445869    35A     -3.218147    36A     -3.213984
      37A     -3.213785    38A     -3.212824    39A     -3.208808
      40A     -3.208759    41A     -3.203692    42A     -3.203686
      43A     -3.198638    44A     -3.198630    45A     -3.197303
      46A     -3.193609    47A     -3.193497    48A     -3.183662
      49A     -3.183657    50A     -1.193891    51A     -1.140004
      52A     -1.039373    53A     -1.034652    54A     -1.022424
      55A     -1.002949    56A     -0.883073    57A     -0.845829
      58A     -0.783608    59A     -0.712216    60A     -0.652067
      61A     -0.650030    62A     -0.612438    63A     -0.605565
      64A     -0.582866    65A     -0.551339    66A     -0.525826
      67A     -0.513051    68A     -0.510703    69A     -0.456227
      70A     -0.447236    71A     -0.433535    72A     -0.415310
      73A     -0.403745    74A     -0.397510    75A     -0.354868
      76A     -0.344857

  @DF-RHF Final Energy: -7985.42543670101531

   => Energetics <=

    Nuclear Repulsion Energy =           1587.2635535778601934
    One-Electron Energy =              -14276.7496583600313897
    Two-Electron Energy =                4704.0606680811551996
    Total Energy =                      -7985.4254367010153146
  Basis Set: (AUG-CC-PVTZ AUX)
    Blend: AUG-CC-PVTZ-RI
    Molecular point group: c1

    Geometry (in Angstrom), charge = 0, multiplicity = 1:

       Center              X                  Y                   Z               Mass
    ------------   -----------------  -----------------  -----------------  -----------------
         BR           0.786750546246    -0.950725996193     1.595768002711    78.918337600000
         BR           0.786759546246    -0.950764996193    -1.588374997289    78.918337600000
         BR           1.095606546246     1.763552003807     0.003662002711    78.918337600000
         C           -1.327548453754     0.125540003807     0.003677002711    12.000000000000
         C           -2.046530453754    -1.082106996193     0.003679002711    12.000000000000
         C           -2.018384453754     1.340688003807     0.003681002711    12.000000000000
         C            0.176457646246     0.035512103807    -0.096316997289    12.000000000000
         C           -3.437182453754    -1.065937996193     0.003675002711    12.000000000000
         C           -3.415749453754     1.345590003807     0.003678002711    12.000000000000
         C           -4.129672453754     0.149046003807     0.003679002711    12.000000000000
         H           -1.513313453754    -2.029030996193     0.003675002711     1.007825032230
         H           -1.477190453754     2.279890003807     0.003680002711     1.007825032230
         H           -3.982739453754    -2.006228996193     0.003677002711     1.007825032230
         H           -3.942796453754     2.296366003807     0.003681002711     1.007825032230
         H           -5.216648453754     0.159465003807     0.003676002711     1.007825032230

  Basis Set: AUG-CC-PVTZ
    Blend: AUG-CC-PVTZ
  Basis Set: (AUG-CC-PVTZ AUX)
    Blend: AUG-CC-PVTZ-JKFIT
	 Reference Energy          =   -7985.4254367010153146 [Eh]
	 Singles Energy            =      -0.0000000000000000 [Eh]
	 Same-Spin Energy          =      -0.5855578269562486 [Eh]
	 Opposite-Spin Energy      =      -1.5632033134695078 [Eh]
	 Correlation Energy        =      -2.1487611404257563 [Eh]
	 Total Energy              =   -7987.5741978414407640 [Eh]

	 ================> DF-SCS-MP2 Energies <==================
	-----------------------------------------------------------
	 SCS Same-Spin Scale       =       0.3333333333333333 [-]
	 SCS Opposite-Spin Scale   =       1.2000000000000000 [-]
	 SCS Same-Spin Energy      =      -0.1951859423187495 [Eh]
	 SCS Opposite-Spin Energy  =      -1.8758439761634094 [Eh]
	 SCS Correlation Energy    =      -2.0710299184821590 [Eh]
	 SCS Total Energy          =   -7987.4964666194973688 [Eh]
	-----------------------------------------------------------

  Dipole Moment: [D]
     X:    -2.2090      Y:     0.1546      Z:    -0.4909     Total:     2.2682

*** Psi4 exiting successfully. Buy a developer a beer!
