                               Psi4 1.4a2.dev612

  ==> Input File <==

--------------------------------------------------------------------------
#psi4
#
memory 32 gb

molecule  {
0 1
 Br        0.9177060    -0.9570590     1.5920850
 Br        0.9177150    -0.9570980    -1.5920580
 Br        1.2265620     1.7572190    -0.0000210
  C       -1.1965930     0.1192070    -0.0000060
  C       -1.9155750    -1.0884400    -0.0000040
  C       -1.8874290     1.3343550    -0.0000020
  C        0.3074134     0.0291792    -0.3000000
  C       -3.3062270    -1.0722710    -0.0000080
  C       -3.2847940     1.3392570    -0.0000050
  C       -3.9987170     0.1427130    -0.0000040
  H       -1.3823580    -2.0353640    -0.0000080
  H       -1.3462350     2.2735570    -0.0000030
  H       -3.8517840    -2.0125620    -0.0000060
  H       -3.8118410     2.2900330    -0.0000020
  H       -5.0856930     0.1531320    -0.0000070
units angstrom
no_reorient  #important for SAPT in psi4, default
symmetry c1  #important for SAPT in psi4, default
}

set PROPERTIES_ORIGIN ["COM"]
properties('MP2/aug-cc-pvtz', properties = ['dipole'])
--------------------------------------------------------------------------

    Molecular point group: c1
  Charge       = 0
  Multiplicity = 1
  Basis Set: AUG-CC-PVTZ
    Blend: AUG-CC-PVTZ
  Basis Set: (AUG-CC-PVTZ AUX)
    Blend: AUG-CC-PVTZ-JKFIT

    Orbital Energies [Eh]
    ---------------------

    Doubly Occupied:

       1A   -490.067500     2A   -490.045946     3A   -490.004361
       4A    -65.208476     5A    -65.185553     6A    -65.144074
       7A    -58.563645     8A    -58.562242     9A    -58.562153
      10A    -58.541014    11A    -58.539276    12A    -58.539254
      13A    -58.499384    14A    -58.497865    15A    -58.497843
      16A    -11.436394    17A    -11.284406    18A    -11.259881
      19A    -11.258578    20A    -11.256604    21A    -11.253985
      22A    -11.253624    23A     -9.883195    24A     -9.858061
      25A     -9.816289    26A     -7.495683    27A     -7.487753
      28A     -7.487379    29A     -7.470145    30A     -7.462226
      31A     -7.462192    32A     -7.427567    33A     -7.420881
      34A     -7.420793    35A     -3.239941    36A     -3.235377
      37A     -3.234879    38A     -3.225313    39A     -3.225310
      40A     -3.214183    41A     -3.210156    42A     -3.210073
      43A     -3.199763    44A     -3.199753    45A     -3.170971
      46A     -3.167884    47A     -3.167770    48A     -3.159030
      49A     -3.159023    50A     -1.204004    51A     -1.155766
      52A     -1.053064    53A     -1.037479    54A     -1.025514
      55A     -0.975764    56A     -0.880750    57A     -0.846812
      58A     -0.785696    59A     -0.715725    60A     -0.656964
      61A     -0.653116    62A     -0.619104    63A     -0.607121
      64A     -0.588554    65A     -0.559111    66A     -0.530699
      67A     -0.515505    68A     -0.511587    69A     -0.459827
      70A     -0.445963    71A     -0.426456    72A     -0.417023
      73A     -0.389796    74A     -0.381633    75A     -0.355276
      76A     -0.340652

  @DF-RHF Final Energy: -7985.39160631823324

   => Energetics <=

    Nuclear Repulsion Energy =           1587.4230792071043652
    One-Electron Energy =              -14277.0041565039318812
    Two-Electron Energy =                4704.1894709785938176
    Total Energy =                      -7985.3916063182332437
  Basis Set: (AUG-CC-PVTZ AUX)
    Blend: AUG-CC-PVTZ-RI
    Molecular point group: c1

    Geometry (in Angstrom), charge = 0, multiplicity = 1:

       Center              X                  Y                   Z               Mass
    ------------   -----------------  -----------------  -----------------  -----------------
         BR           0.786750535196    -0.950725999876     1.603134617762    78.918337600000
         BR           0.786759535196    -0.950764999876    -1.581008382238    78.918337600000
         BR           1.095606535196     1.763552000124     0.011028617762    78.918337600000
         C           -1.327548464804     0.125540000124     0.011043617762    12.000000000000
         C           -2.046530464804    -1.082106999876     0.011045617762    12.000000000000
         C           -2.018384464804     1.340688000124     0.011047617762    12.000000000000
         C            0.176457935196     0.035512200124    -0.288950382238    12.000000000000
         C           -3.437182464804    -1.065937999876     0.011041617762    12.000000000000
         C           -3.415749464804     1.345590000124     0.011044617762    12.000000000000
         C           -4.129672464804     0.149046000124     0.011045617762    12.000000000000
         H           -1.513313464804    -2.029030999876     0.011041617762     1.007825032230
         H           -1.477190464804     2.279890000124     0.011046617762     1.007825032230
         H           -3.982739464804    -2.006228999876     0.011043617762     1.007825032230
         H           -3.942796464804     2.296366000124     0.011047617762     1.007825032230
         H           -5.216648464804     0.159465000124     0.011042617762     1.007825032230

  Basis Set: AUG-CC-PVTZ
    Blend: AUG-CC-PVTZ
  Basis Set: (AUG-CC-PVTZ AUX)
    Blend: AUG-CC-PVTZ-JKFIT
	 Reference Energy          =   -7985.3916063182332437 [Eh]
	 Singles Energy            =      -0.0000000000000000 [Eh]
	 Same-Spin Energy          =      -0.5879115045219380 [Eh]
	 Opposite-Spin Energy      =      -1.5660458201433898 [Eh]
	 Correlation Energy        =      -2.1539573246653276 [Eh]
	 Total Energy              =   -7987.5455636428987418 [Eh]

	 ================> DF-SCS-MP2 Energies <==================
	-----------------------------------------------------------
	 SCS Same-Spin Scale       =       0.3333333333333333 [-]
	 SCS Opposite-Spin Scale   =       1.2000000000000000 [-]
	 SCS Same-Spin Energy      =      -0.1959705015073127 [Eh]
	 SCS Opposite-Spin Energy  =      -1.8792549841720676 [Eh]
	 SCS Correlation Energy    =      -2.0752254856793804 [Eh]
	 SCS Total Energy          =   -7987.4668318039130099 [Eh]
	-----------------------------------------------------------

  Dipole Moment: [D]
     X:    -2.2365      Y:     0.0805      Z:    -1.5724     Total:     2.7351

*** Psi4 exiting successfully. Buy a developer a beer!
