                               Psi4 1.4a2.dev612

  ==> Input File <==

--------------------------------------------------------------------------
#psi4
#
memory 32 gb

molecule  {
0 1
 Br        0.9177060    -0.9570590     1.5920850
 Br        0.9177150    -0.9570980    -1.5920580
 Br        1.2265620     1.7572190    -0.0000210
  C       -1.1965930     0.1192070    -0.0000060
  C       -1.9155750    -1.0884400    -0.0000040
  C       -1.8874290     1.3343550    -0.0000020
  C        0.3074131     0.0291790    -0.0500000
  C       -3.3062270    -1.0722710    -0.0000080
  C       -3.2847940     1.3392570    -0.0000050
  C       -3.9987170     0.1427130    -0.0000040
  H       -1.3823580    -2.0353640    -0.0000080
  H       -1.3462350     2.2735570    -0.0000030
  H       -3.8517840    -2.0125620    -0.0000060
  H       -3.8118410     2.2900330    -0.0000020
  H       -5.0856930     0.1531320    -0.0000070
units angstrom
no_reorient  #important for SAPT in psi4, default
symmetry c1  #important for SAPT in psi4, default
}

set PROPERTIES_ORIGIN ["COM"]
properties('MP2/aug-cc-pvtz', properties = ['dipole'])
--------------------------------------------------------------------------

    Molecular point group: c1
  Charge       = 0
  Multiplicity = 1
  Basis Set: AUG-CC-PVTZ
    Blend: AUG-CC-PVTZ
  Basis Set: (AUG-CC-PVTZ AUX)
    Blend: AUG-CC-PVTZ-JKFIT

    Orbital Energies [Eh]
    ---------------------

    Doubly Occupied:

       1A   -490.044267     2A   -490.044200     3A   -490.034827
       4A    -65.184123     5A    -65.183954     6A    -65.174494
       7A    -58.539531     8A    -58.539382     9A    -58.537856
      10A    -58.537828    11A    -58.537696    12A    -58.537681
      13A    -58.529919    14A    -58.528229    15A    -58.528208
      16A    -11.427481    17A    -11.277960    18A    -11.258150
      19A    -11.257519    20A    -11.255360    21A    -11.252819
      22A    -11.252283    23A     -9.856978    24A     -9.856629
      25A     -9.846974    26A     -7.469104    27A     -7.468676
      28A     -7.461258    29A     -7.461126    30A     -7.460888
      31A     -7.460880    32A     -7.458916    33A     -7.451251
      34A     -7.451153    35A     -3.213127    36A     -3.212673
      37A     -3.209074    38A     -3.208907    39A     -3.208657
      40A     -3.208614    41A     -3.202804    42A     -3.198985
      43A     -3.198860    44A     -3.198808    45A     -3.198803
      46A     -3.198510    47A     -3.198503    48A     -3.188889
      49A     -3.188884    50A     -1.193249    51A     -1.138420
      52A     -1.038495    53A     -1.032938    54A     -1.019318
      55A     -1.009087    56A     -0.883296    57A     -0.845731
      58A     -0.783427    59A     -0.711890    60A     -0.651925
      61A     -0.649415    62A     -0.611667    63A     -0.605341
      64A     -0.582423    65A     -0.550615    66A     -0.525200
      67A     -0.512983    68A     -0.510668    69A     -0.455062
      70A     -0.447697    71A     -0.435452    72A     -0.412720
      73A     -0.406710    74A     -0.399136    75A     -0.354837
      76A     -0.345171

  @DF-RHF Final Energy: -7985.42852045702966

   => Energetics <=

    Nuclear Repulsion Energy =           1587.2491559500563199
    One-Electron Energy =              -14276.7262180833695311
    Two-Electron Energy =                4704.0485416762840032
    Total Energy =                      -7985.4285204570296628
  Basis Set: (AUG-CC-PVTZ AUX)
    Blend: AUG-CC-PVTZ-RI
    Molecular point group: c1

    Geometry (in Angstrom), charge = 0, multiplicity = 1:

       Center              X                  Y                   Z               Mass
    ------------   -----------------  -----------------  -----------------  -----------------
         BR           0.786750546246    -0.950725992510     1.593926348949    78.918337600000
         BR           0.786759546246    -0.950764992510    -1.590216651051    78.918337600000
         BR           1.095606546246     1.763552007490     0.001820348949    78.918337600000
         C           -1.327548453754     0.125540007490     0.001835348949    12.000000000000
         C           -2.046530453754    -1.082106992510     0.001837348949    12.000000000000
         C           -2.018384453754     1.340688007490     0.001839348949    12.000000000000
         C            0.176457646246     0.035512007490    -0.048158651051    12.000000000000
         C           -3.437182453754    -1.065937992510     0.001833348949    12.000000000000
         C           -3.415749453754     1.345590007490     0.001836348949    12.000000000000
         C           -4.129672453754     0.149046007490     0.001837348949    12.000000000000
         H           -1.513313453754    -2.029030992510     0.001833348949     1.007825032230
         H           -1.477190453754     2.279890007490     0.001838348949     1.007825032230
         H           -3.982739453754    -2.006228992510     0.001835348949     1.007825032230
         H           -3.942796453754     2.296366007490     0.001839348949     1.007825032230
         H           -5.216648453754     0.159465007490     0.001834348949     1.007825032230

  Basis Set: AUG-CC-PVTZ
    Blend: AUG-CC-PVTZ
  Basis Set: (AUG-CC-PVTZ AUX)
    Blend: AUG-CC-PVTZ-JKFIT
	 Reference Energy          =   -7985.4285204570296628 [Eh]
	 Singles Energy            =      -0.0000000000000000 [Eh]
	 Same-Spin Energy          =      -0.5853287673533003 [Eh]
	 Opposite-Spin Energy      =      -1.5629173801868514 [Eh]
	 Correlation Energy        =      -2.1482461475401520 [Eh]
	 Total Energy              =   -7987.5767666045694568 [Eh]

	 ================> DF-SCS-MP2 Energies <==================
	-----------------------------------------------------------
	 SCS Same-Spin Scale       =       0.3333333333333333 [-]
	 SCS Opposite-Spin Scale   =       1.2000000000000000 [-]
	 SCS Same-Spin Energy      =      -0.1951095891177668 [Eh]
	 SCS Opposite-Spin Energy  =      -1.8755008562242217 [Eh]
	 SCS Correlation Energy    =      -2.0706104453419885 [Eh]
	 SCS Total Energy          =   -7987.4991309023716894 [Eh]
	-----------------------------------------------------------

  Dipole Moment: [D]
     X:    -2.2051      Y:     0.1599      Z:    -0.2438     Total:     2.2243

*** Psi4 exiting successfully. Buy a developer a beer!
