                               Psi4 1.4a2.dev612

  ==> Input File <==

--------------------------------------------------------------------------
#psi4
#
memory 32 gb

molecule  {
0 1
 Br        0.9177060    -0.9570590     1.5920850
 Br        0.9177150    -0.9570980    -1.5920580
 Br        1.2265620     1.7572190    -0.0000210
  C       -1.1965930     0.1192070    -0.0000060
  C       -1.9155750    -1.0884400    -0.0000040
  C       -1.8874290     1.3343550    -0.0000020
  C        0.3074133     0.0291792    -0.2500000
  C       -3.3062270    -1.0722710    -0.0000080
  C       -3.2847940     1.3392570    -0.0000050
  C       -3.9987170     0.1427130    -0.0000040
  H       -1.3823580    -2.0353640    -0.0000080
  H       -1.3462350     2.2735570    -0.0000030
  H       -3.8517840    -2.0125620    -0.0000060
  H       -3.8118410     2.2900330    -0.0000020
  H       -5.0856930     0.1531320    -0.0000070
units angstrom
no_reorient  #important for SAPT in psi4, default
symmetry c1  #important for SAPT in psi4, default
}

set PROPERTIES_ORIGIN ["COM"]
properties('MP2/aug-cc-pvtz', properties = ['dipole'])
--------------------------------------------------------------------------

    Molecular point group: c1
  Charge       = 0
  Multiplicity = 1
  Basis Set: AUG-CC-PVTZ
    Blend: AUG-CC-PVTZ
  Basis Set: (AUG-CC-PVTZ AUX)
    Blend: AUG-CC-PVTZ-JKFIT

    Orbital Energies [Eh]
    ---------------------

    Doubly Occupied:

       1A   -490.062449     2A   -490.045459     3A   -490.011542
       4A    -65.203120     5A    -65.185109     6A    -65.151194
       7A    -58.558363     8A    -58.556875     9A    -58.556806
      10A    -58.540560    11A    -58.538838    12A    -58.538818
      13A    -58.506544    14A    -58.504966    15A    -58.504946
      16A    -11.433755    17A    -11.282429    18A    -11.259364
      19A    -11.258257    20A    -11.256234    21A    -11.253629
      22A    -11.253222    23A     -9.877344    24A     -9.857667
      25A     -9.823397    26A     -7.489767    27A     -7.481812
      28A     -7.481522    29A     -7.469740    30A     -7.461862
      31A     -7.461834    32A     -7.434840    33A     -7.427883
      34A     -7.427802    35A     -3.233986    36A     -3.229515
      37A     -3.229129    38A     -3.219351    39A     -3.219347
      40A     -3.213766    41A     -3.209744    42A     -3.209670
      43A     -3.199424    44A     -3.199415    45A     -3.178360
      46A     -3.175101    47A     -3.174996    48A     -3.165893
      49A     -3.165886    50A     -1.199756    51A     -1.150776
      52A     -1.049514    53A     -1.037196    54A     -1.025318
      55A     -0.982898    56A     -0.881536    57A     -0.846489
      58A     -0.784942    59A     -0.714512    60A     -0.654753
      61A     -0.652625    62A     -0.617137    63A     -0.606671
      64A     -0.586431    65A     -0.556394    66A     -0.529233
      67A     -0.514651    68A     -0.511028    69A     -0.459436
      70A     -0.446245    71A     -0.425670    72A     -0.419867
      73A     -0.393863    74A     -0.386640    75A     -0.355135
      76A     -0.342265

  @DF-RHF Final Energy: -7985.40342167491781

   => Energetics <=

    Nuclear Repulsion Energy =           1587.3671414420084602
    One-Electron Energy =              -14276.9161003240114951
    Two-Electron Energy =                4704.1455372070859084
    Total Energy =                      -7985.4034216749178086
  Basis Set: (AUG-CC-PVTZ AUX)
    Blend: AUG-CC-PVTZ-RI
    Molecular point group: c1

    Geometry (in Angstrom), charge = 0, multiplicity = 1:

       Center              X                  Y                   Z               Mass
    ------------   -----------------  -----------------  -----------------  -----------------
         BR           0.786750538880    -0.950725999876     1.601292963999    78.918337600000
         BR           0.786759538880    -0.950764999876    -1.582850036001    78.918337600000
         BR           1.095606538880     1.763552000124     0.009186963999    78.918337600000
         C           -1.327548461120     0.125540000124     0.009201963999    12.000000000000
         C           -2.046530461120    -1.082106999876     0.009203963999    12.000000000000
         C           -2.018384461120     1.340688000124     0.009205963999    12.000000000000
         C            0.176457838880     0.035512200124    -0.240792036001    12.000000000000
         C           -3.437182461120    -1.065937999876     0.009199963999    12.000000000000
         C           -3.415749461120     1.345590000124     0.009202963999    12.000000000000
         C           -4.129672461120     0.149046000124     0.009203963999    12.000000000000
         H           -1.513313461120    -2.029030999876     0.009199963999     1.007825032230
         H           -1.477190461120     2.279890000124     0.009204963999     1.007825032230
         H           -3.982739461120    -2.006228999876     0.009201963999     1.007825032230
         H           -3.942796461120     2.296366000124     0.009205963999     1.007825032230
         H           -5.216648461120     0.159465000124     0.009200963999     1.007825032230

  Basis Set: AUG-CC-PVTZ
    Blend: AUG-CC-PVTZ
  Basis Set: (AUG-CC-PVTZ AUX)
    Blend: AUG-CC-PVTZ-JKFIT
	 Reference Energy          =   -7985.4034216749178086 [Eh]
	 Singles Energy            =      -0.0000000000000000 [Eh]
	 Same-Spin Energy          =      -0.5871250947931472 [Eh]
	 Opposite-Spin Energy      =      -1.5651148238505956 [Eh]
	 Correlation Energy        =      -2.1522399186437431 [Eh]
	 Total Energy              =   -7987.5556615935611262 [Eh]

	 ================> DF-SCS-MP2 Energies <==================
	-----------------------------------------------------------
	 SCS Same-Spin Scale       =       0.3333333333333333 [-]
	 SCS Opposite-Spin Scale   =       1.2000000000000000 [-]
	 SCS Same-Spin Energy      =      -0.1957083649310491 [Eh]
	 SCS Opposite-Spin Energy  =      -1.8781377886207147 [Eh]
	 SCS Correlation Energy    =      -2.0738461535517638 [Eh]
	 SCS Total Energy          =   -7987.4772678284698486 [Eh]
	-----------------------------------------------------------

  Dipole Moment: [D]
     X:    -2.2296      Y:     0.1091      Z:    -1.2832     Total:     2.5749

*** Psi4 exiting successfully. Buy a developer a beer!
