                               Psi4 1.3.2 release

  ==> Input File <==

--------------------------------------------------------------------------
#psi4
#
memory 32 gb

molecule  {
0 1
  C       -0.5088830     1.3115130    -0.0227420
  C       -1.3901940     0.2150430     0.0227430
  C        0.8813450     1.0964750     0.0226560
  C       -0.8813440    -1.0964340    -0.0226940
  C        1.3902270    -0.2150110    -0.0227900
  C        0.5089060    -1.3114930     0.0226680
  C       -1.0601530     2.7318985     0.1622011
  C       -2.8836500     0.4458940     0.0875300
  C        1.8281740     2.2742730     0.0874930
  C       -1.8282270    -2.2741900    -0.0874960
  C        2.8836660    -0.4460300    -0.0874310
  C        1.0556730    -2.7203040     0.0874750
  H       -1.2228990     3.1507820     0.9082400
  H       -0.3731520     3.3838700    -0.6219980
  H       -2.0070850     2.7494970    -0.6221200
  H       -3.1169600     1.3690200     0.6216180
  H       -3.3401820     0.5158720    -0.9081780
  H       -3.3845810    -0.3632220     0.6225760
  H        2.7440520     2.0146320     0.6219170
  H        1.3780590     3.1129020     0.6222310
  H        2.1174310     2.6343160    -0.9082230
  H       -1.3778060    -3.1130310    -0.6216310
  H       -2.1180860    -2.6338480     0.9081850
  H       -2.7438120    -2.0147100    -0.6225210
  H        3.3400770    -0.5159510     0.9083360
  H        3.1168940    -1.3692350    -0.6214080
  H        3.3848100     0.3629430    -0.6224920
  H        0.3729260    -3.3838390     0.6217170
  H        1.2232470    -3.1507440    -0.9082080
  H        2.0069120    -2.7495520     0.6224200
units angstrom
no_reorient  #important for SAPT in psi4, default
symmetry c1  #important for SAPT in psi4, default
}

set PROPERTIES_ORIGIN ["COM"]
properties('MP2/aug-cc-pvtz', properties = ['dipole'])
--------------------------------------------------------------------------

    Molecular point group: c1
  Charge       = 0
  Multiplicity = 1
  Basis Set: AUG-CC-PVTZ
    Blend: AUG-CC-PVTZ
  Basis Set: (AUG-CC-PVTZ AUX)
    Blend: AUG-CC-PVTZ-JKFIT

    Orbital Energies [Eh]
    ---------------------

    Doubly Occupied:

       1A    -11.227348     2A    -11.225747     3A    -11.224960
       4A    -11.224615     5A    -11.223289     6A    -11.223028
       7A    -11.221134     8A    -11.215512     9A    -11.214725
      10A    -11.214724    11A    -11.213333    12A    -11.213330
      13A     -1.154738    14A     -1.066425    15A     -1.065868
      16A     -0.978635    17A     -0.976607    18A     -0.944955
      19A     -0.940123    20A     -0.871900    21A     -0.865781
      22A     -0.753748    23A     -0.745065    24A     -0.676334
      25A     -0.640394    26A     -0.605991    27A     -0.593040
      28A     -0.573516    29A     -0.571251    30A     -0.566422
      31A     -0.562563    32A     -0.556711    33A     -0.547507
      34A     -0.541028    35A     -0.528674    36A     -0.522460
      37A     -0.518795    38A     -0.515783    39A     -0.506049
      40A     -0.463334    41A     -0.455442    42A     -0.439817
      43A     -0.434708    44A     -0.298623    45A     -0.295233

  @DF-RHF Final Energy:  -464.96884969389760

   => Energetics <=

    Nuclear Repulsion Energy =            713.7897864427897048
    One-Electron Energy =               -2044.6787512932157824
    Two-Electron Energy =                 865.9201151565283681
    Total Energy =                       -464.9688496938975959
  Basis Set: (AUG-CC-PVTZ AUX)
    Blend: AUG-CC-PVTZ-RI
    Molecular point group: c1

    Geometry (in Angstrom), charge = 0, multiplicity = 1:

       Center              X                  Y                   Z               Mass
    ------------   -----------------  -----------------  -----------------  -----------------
         C           -0.508551953181     1.310653786127    -0.041218662708    12.000000000000
         C           -1.389862953181     0.214183786127     0.004266337292    12.000000000000
         C            0.881676046819     1.095615786127     0.004179337292    12.000000000000
         C           -0.881012953181    -1.097293213873    -0.041170662708    12.000000000000
         C            1.390558046819    -0.215870213873    -0.041266662708    12.000000000000
         C            0.509237046819    -1.312352213873     0.004191337292    12.000000000000
         C           -1.059821953181     2.731039286127     0.143724437292    12.000000000000
         C           -2.883318953181     0.445034786127     0.069053337292    12.000000000000
         C            1.828505046819     2.273413786127     0.069016337292    12.000000000000
         C           -1.827895953181    -2.275049213873    -0.105972662708    12.000000000000
         C            2.883997046819    -0.446889213873    -0.105907662708    12.000000000000
         C            1.056004046819    -2.721163213873     0.068998337292    12.000000000000
         H           -1.222567953181     3.149922786127     0.889763337292     1.007825032230
         H           -0.372820953181     3.383010786127    -0.640474662708     1.007825032230
         H           -2.006753953181     2.748637786127    -0.640596662708     1.007825032230
         H           -3.116628953181     1.368160786127     0.603141337292     1.007825032230
         H           -3.339850953181     0.515012786127    -0.926654662708     1.007825032230
         H           -3.384249953181    -0.364081213873     0.604099337292     1.007825032230
         H            2.744383046819     2.013772786127     0.603440337292     1.007825032230
         H            1.378390046819     3.112042786127     0.603754337292     1.007825032230
         H            2.117762046819     2.633456786127    -0.926699662708     1.007825032230
         H           -1.377474953181    -3.113890213873    -0.640107662708     1.007825032230
         H           -2.117754953181    -2.634707213873     0.889708337292     1.007825032230
         H           -2.743480953181    -2.015569213873    -0.640997662708     1.007825032230
         H            3.340408046819    -0.516810213873     0.889859337292     1.007825032230
         H            3.117225046819    -1.370094213873    -0.639884662708     1.007825032230
         H            3.385141046819     0.362083786127    -0.640968662708     1.007825032230
         H            0.373257046819    -3.384698213873     0.603240337292     1.007825032230
         H            1.223578046819    -3.151603213873    -0.926684662708     1.007825032230
         H            2.007243046819    -2.750411213873     0.603943337292     1.007825032230

  Basis Set: AUG-CC-PVTZ
    Blend: AUG-CC-PVTZ
  Basis Set: (AUG-CC-PVTZ AUX)
    Blend: AUG-CC-PVTZ-JKFIT
	 Reference Energy          =    -464.9688496938975959 [Eh]
	 Singles Energy            =      -0.0000000000000000 [Eh]
	 Same-Spin Energy          =      -0.5277510705707945 [Eh]
	 Opposite-Spin Energy      =      -1.7704147656253513 [Eh]
	 Correlation Energy        =      -2.2981658361961457 [Eh]
	 Total Energy              =    -467.2670155300937154 [Eh]

	 ================> DF-SCS-MP2 Energies <==================
	-----------------------------------------------------------
	 SCS Same-Spin Scale       =       0.3333333333333333 [-]
	 SCS Opposite-Spin Scale   =       1.2000000000000000 [-]
	 SCS Same-Spin Energy      =      -0.1759170235235982 [Eh]
	 SCS Opposite-Spin Energy  =      -2.1244977187504213 [Eh]
	 SCS Correlation Energy    =      -2.3004147422740195 [Eh]
	 SCS Total Energy          =    -467.2692644361716248 [Eh]
	-----------------------------------------------------------

  Dipole Moment: [D]
     X:     0.0633      Y:    -0.1630      Z:     0.0945     Total:     0.1988

*** Psi4 exiting successfully. Buy a developer a beer!
