                               Psi4 1.3.2 release

  ==> Input File <==

--------------------------------------------------------------------------
#psi4
#
memory 32 gb

molecule  {
0 1
  C       -0.5088830     1.3115130    -0.0227420
  C       -1.3901940     0.2150430     0.0227430
  C        0.8813450     1.0964750     0.0226560
  C       -0.8813440    -1.0964340    -0.0226940
  C        1.3902270    -0.2150110    -0.0227900
  C        0.5089060    -1.3114930     0.0226680
  C       -1.0574614     2.7249472     0.0123864
  C       -2.8836500     0.4458940     0.0875300
  C        1.8281740     2.2742730     0.0874930
  C       -1.8282270    -2.2741900    -0.0874960
  C        2.8836660    -0.4460300    -0.0874310
  C        1.0556730    -2.7203040     0.0874750
  H       -1.2228990     3.1507820     0.9082400
  H       -0.3731520     3.3838700    -0.6219980
  H       -2.0070850     2.7494970    -0.6221200
  H       -3.1169600     1.3690200     0.6216180
  H       -3.3401820     0.5158720    -0.9081780
  H       -3.3845810    -0.3632220     0.6225760
  H        2.7440520     2.0146320     0.6219170
  H        1.3780590     3.1129020     0.6222310
  H        2.1174310     2.6343160    -0.9082230
  H       -1.3778060    -3.1130310    -0.6216310
  H       -2.1180860    -2.6338480     0.9081850
  H       -2.7438120    -2.0147100    -0.6225210
  H        3.3400770    -0.5159510     0.9083360
  H        3.1168940    -1.3692350    -0.6214080
  H        3.3848100     0.3629430    -0.6224920
  H        0.3729260    -3.3838390     0.6217170
  H        1.2232470    -3.1507440    -0.9082080
  H        2.0069120    -2.7495520     0.6224200
units angstrom
no_reorient  #important for SAPT in psi4, default
symmetry c1  #important for SAPT in psi4, default
}

set PROPERTIES_ORIGIN ["COM"]
properties('MP2/aug-cc-pvtz', properties = ['dipole'])
--------------------------------------------------------------------------

    Molecular point group: c1
  Charge       = 0
  Multiplicity = 1
  Basis Set: AUG-CC-PVTZ
    Blend: AUG-CC-PVTZ
  Basis Set: (AUG-CC-PVTZ AUX)
    Blend: AUG-CC-PVTZ-JKFIT

    Orbital Energies [Eh]
    ---------------------

    Doubly Occupied:

       1A    -11.224439     2A    -11.224009     3A    -11.223791
       4A    -11.222736     5A    -11.222549     6A    -11.222085
       7A    -11.214981     8A    -11.214632     9A    -11.214325
      10A    -11.214324    11A    -11.213850    12A    -11.213848
      13A     -1.154098    14A     -1.065902    15A     -1.065740
      16A     -0.976612    17A     -0.976452    18A     -0.942126
      19A     -0.939013    20A     -0.866117    21A     -0.865361
      22A     -0.746132    23A     -0.744798    24A     -0.677217
      25A     -0.619238    26A     -0.604783    27A     -0.584366
      28A     -0.573416    29A     -0.571203    30A     -0.568605
      31A     -0.565957    32A     -0.554887    33A     -0.547457
      34A     -0.539944    35A     -0.528194    36A     -0.526135
      37A     -0.521879    38A     -0.516473    39A     -0.508859
      40A     -0.485219    41A     -0.451571    42A     -0.449388
      43A     -0.439044    44A     -0.296581    45A     -0.294634

  @DF-RHF Final Energy:  -465.04042489254954

   => Energetics <=

    Nuclear Repulsion Energy =            713.9836072793917765
    One-Electron Energy =               -2045.2621230047468543
    Two-Electron Energy =                 866.2380908328057103
    Total Energy =                       -465.0404248925494812
  Basis Set: (AUG-CC-PVTZ AUX)
    Blend: AUG-CC-PVTZ-RI
    Molecular point group: c1

    Geometry (in Angstrom), charge = 0, multiplicity = 1:

       Center              X                  Y                   Z               Mass
    ------------   -----------------  -----------------  -----------------  -----------------
         C           -0.508751157760     1.311168249939    -0.030130917741    12.000000000000
         C           -1.390062157760     0.214698249939     0.015354082259    12.000000000000
         C            0.881476842240     1.096130249939     0.015267082259    12.000000000000
         C           -0.881212157760    -1.096778750061    -0.030082917741    12.000000000000
         C            1.390358842240    -0.215355750061    -0.030178917741    12.000000000000
         C            0.509037842240    -1.311837750061     0.015279082259    12.000000000000
         C           -1.057329557760     2.724602449939     0.004997482259    12.000000000000
         C           -2.883518157760     0.445549249939     0.080141082259    12.000000000000
         C            1.828305842240     2.273928249939     0.080104082259    12.000000000000
         C           -1.828095157760    -2.274534750061    -0.094884917741    12.000000000000
         C            2.883797842240    -0.446374750061    -0.094819917741    12.000000000000
         C            1.055804842240    -2.720648750061     0.080086082259    12.000000000000
         H           -1.222767157760     3.150437249939     0.900851082259     1.007825032230
         H           -0.373020157760     3.383525249939    -0.629386917741     1.007825032230
         H           -2.006953157760     2.749152249939    -0.629508917741     1.007825032230
         H           -3.116828157760     1.368675249939     0.614229082259     1.007825032230
         H           -3.340050157760     0.515527249939    -0.915566917741     1.007825032230
         H           -3.384449157760    -0.363566750061     0.615187082259     1.007825032230
         H            2.744183842240     2.014287249939     0.614528082259     1.007825032230
         H            1.378190842240     3.112557249939     0.614842082259     1.007825032230
         H            2.117562842240     2.633971249939    -0.915611917741     1.007825032230
         H           -1.377674157760    -3.113375750061    -0.629019917741     1.007825032230
         H           -2.117954157760    -2.634192750061     0.900796082259     1.007825032230
         H           -2.743680157760    -2.015054750061    -0.629909917741     1.007825032230
         H            3.340208842240    -0.516295750061     0.900947082259     1.007825032230
         H            3.117025842240    -1.369579750061    -0.628796917741     1.007825032230
         H            3.384941842240     0.362598249939    -0.629880917741     1.007825032230
         H            0.373057842240    -3.384183750061     0.614328082259     1.007825032230
         H            1.223378842240    -3.151088750061    -0.915596917741     1.007825032230
         H            2.007043842240    -2.749896750061     0.615031082259     1.007825032230

  Basis Set: AUG-CC-PVTZ
    Blend: AUG-CC-PVTZ
  Basis Set: (AUG-CC-PVTZ AUX)
    Blend: AUG-CC-PVTZ-JKFIT
	 Reference Energy          =    -465.0404248925495381 [Eh]
	 Singles Energy            =      -0.0000000000000000 [Eh]
	 Same-Spin Energy          =      -0.5267480198898103 [Eh]
	 Opposite-Spin Energy      =      -1.7672659618230717 [Eh]
	 Correlation Energy        =      -2.2940139817128822 [Eh]
	 Total Energy              =    -467.3344388742624460 [Eh]

	 ================> DF-SCS-MP2 Energies <==================
	-----------------------------------------------------------
	 SCS Same-Spin Scale       =       0.3333333333333333 [-]
	 SCS Opposite-Spin Scale   =       1.2000000000000000 [-]
	 SCS Same-Spin Energy      =      -0.1755826732966034 [Eh]
	 SCS Opposite-Spin Energy  =      -2.1207191541876860 [Eh]
	 SCS Correlation Energy    =      -2.2963018274842892 [Eh]
	 SCS Total Energy          =    -467.3367267200338233 [Eh]
	-----------------------------------------------------------

  Dipole Moment: [D]
     X:     0.0127      Y:    -0.0327      Z:     0.0495     Total:     0.0606

*** Psi4 exiting successfully. Buy a developer a beer!
