                               Psi4 1.3.2 release

  ==> Input File <==

--------------------------------------------------------------------------
#psi4
#
memory 32 gb

molecule  {
0 1
  C       -0.5088830     1.3115130    -0.0227420
  C       -1.3901940     0.2150430     0.0227430
  C        0.8813450     1.0964750     0.0226560
  C       -0.8813440    -1.0964340    -0.0226940
  C        1.3902270    -0.2150110    -0.0227900
  C        0.5089060    -1.3114930     0.0226680
  C       -1.0610502     2.7342156     0.2121393
  C       -2.8836500     0.4458940     0.0875300
  C        1.8281740     2.2742730     0.0874930
  C       -1.8282270    -2.2741900    -0.0874960
  C        2.8836660    -0.4460300    -0.0874310
  C        1.0556730    -2.7203040     0.0874750
  H       -1.2228990     3.1507820     0.9082400
  H       -0.3731520     3.3838700    -0.6219980
  H       -2.0070850     2.7494970    -0.6221200
  H       -3.1169600     1.3690200     0.6216180
  H       -3.3401820     0.5158720    -0.9081780
  H       -3.3845810    -0.3632220     0.6225760
  H        2.7440520     2.0146320     0.6219170
  H        1.3780590     3.1129020     0.6222310
  H        2.1174310     2.6343160    -0.9082230
  H       -1.3778060    -3.1130310    -0.6216310
  H       -2.1180860    -2.6338480     0.9081850
  H       -2.7438120    -2.0147100    -0.6225210
  H        3.3400770    -0.5159510     0.9083360
  H        3.1168940    -1.3692350    -0.6214080
  H        3.3848100     0.3629430    -0.6224920
  H        0.3729260    -3.3838390     0.6217170
  H        1.2232470    -3.1507440    -0.9082080
  H        2.0069120    -2.7495520     0.6224200
units angstrom
no_reorient  #important for SAPT in psi4, default
symmetry c1  #important for SAPT in psi4, default
}

set PROPERTIES_ORIGIN ["COM"]
properties('MP2/aug-cc-pvtz', properties = ['dipole'])
--------------------------------------------------------------------------

    Molecular point group: c1
  Charge       = 0
  Multiplicity = 1
  Basis Set: AUG-CC-PVTZ
    Blend: AUG-CC-PVTZ
  Basis Set: (AUG-CC-PVTZ AUX)
    Blend: AUG-CC-PVTZ-JKFIT

    Orbital Energies [Eh]
    ---------------------

    Doubly Occupied:

       1A    -11.229524     2A    -11.226449     3A    -11.225600
       4A    -11.225370     5A    -11.224681     6A    -11.223699
       7A    -11.223466     8A    -11.215926     9A    -11.214972
      10A    -11.214971    11A    -11.213217    12A    -11.213214
      13A     -1.155115    14A     -1.066750    15A     -1.066046
      16A     -0.980354    17A     -0.976771    18A     -0.947193
      19A     -0.940537    20A     -0.875164    21A     -0.866059
      22A     -0.757880    23A     -0.745345    24A     -0.676304
      25A     -0.647360    26A     -0.605426    27A     -0.594366
      28A     -0.573661    29A     -0.571330    30A     -0.566081
      31A     -0.562052    32A     -0.556498    33A     -0.547614
      34A     -0.541404    35A     -0.528984    36A     -0.522234
      37A     -0.516065    38A     -0.515936    39A     -0.505871
      40A     -0.460176    41A     -0.457008    42A     -0.432661
      43A     -0.432138    44A     -0.299111    45A     -0.295609

  @DF-RHF Final Energy:  -464.92597474734157

   => Energetics <=

    Nuclear Repulsion Energy =            713.7031056114379908
    One-Electron Energy =               -2044.3857731458288072
    Two-Electron Energy =                 865.7566927870493600
    Total Energy =                       -464.9259747473415700
  Basis Set: (AUG-CC-PVTZ AUX)
    Blend: AUG-CC-PVTZ-RI
    Molecular point group: c1

    Geometry (in Angstrom), charge = 0, multiplicity = 1:

       Center              X                  Y                   Z               Mass
    ------------   -----------------  -----------------  -----------------  -----------------
         C           -0.508485551654     1.310482298190    -0.044914575230    12.000000000000
         C           -1.389796551654     0.214012298190     0.000570424770    12.000000000000
         C            0.881742448346     1.095444298190     0.000483424770    12.000000000000
         C           -0.880946551654    -1.097464701810    -0.044866575230    12.000000000000
         C            1.390624448346    -0.216041701810    -0.044962575230    12.000000000000
         C            0.509303448346    -1.312523701810     0.000495424770    12.000000000000
         C           -1.060652751654     2.733184898190     0.189966724770    12.000000000000
         C           -2.883252551654     0.444863298190     0.065357424770    12.000000000000
         C            1.828571448346     2.273242298190     0.065320424770    12.000000000000
         C           -1.827829551654    -2.275220701810    -0.109668575230    12.000000000000
         C            2.884063448346    -0.447060701810    -0.109603575230    12.000000000000
         C            1.056070448346    -2.721334701810     0.065302424770    12.000000000000
         H           -1.222501551654     3.149751298190     0.886067424770     1.007825032230
         H           -0.372754551654     3.382839298190    -0.644170575230     1.007825032230
         H           -2.006687551654     2.748466298190    -0.644292575230     1.007825032230
         H           -3.116562551654     1.367989298190     0.599445424770     1.007825032230
         H           -3.339784551654     0.514841298190    -0.930350575230     1.007825032230
         H           -3.384183551654    -0.364252701810     0.600403424770     1.007825032230
         H            2.744449448346     2.013601298190     0.599744424770     1.007825032230
         H            1.378456448346     3.111871298190     0.600058424770     1.007825032230
         H            2.117828448346     2.633285298190    -0.930395575230     1.007825032230
         H           -1.377408551654    -3.114061701810    -0.643803575230     1.007825032230
         H           -2.117688551654    -2.634878701810     0.886012424770     1.007825032230
         H           -2.743414551654    -2.015740701810    -0.644693575230     1.007825032230
         H            3.340474448346    -0.516981701810     0.886163424770     1.007825032230
         H            3.117291448346    -1.370265701810    -0.643580575230     1.007825032230
         H            3.385207448346     0.361912298190    -0.644664575230     1.007825032230
         H            0.373323448346    -3.384869701810     0.599544424770     1.007825032230
         H            1.223644448346    -3.151774701810    -0.930380575230     1.007825032230
         H            2.007309448346    -2.750582701810     0.600247424770     1.007825032230

  Basis Set: AUG-CC-PVTZ
    Blend: AUG-CC-PVTZ
  Basis Set: (AUG-CC-PVTZ AUX)
    Blend: AUG-CC-PVTZ-JKFIT
	 Reference Energy          =    -464.9259747473415700 [Eh]
	 Singles Energy            =      -0.0000000000000000 [Eh]
	 Same-Spin Energy          =      -0.5282644267153915 [Eh]
	 Opposite-Spin Energy      =      -1.7720860211287734 [Eh]
	 Correlation Energy        =      -2.3003504478441652 [Eh]
	 Total Energy              =    -467.2263251951857228 [Eh]

	 ================> DF-SCS-MP2 Energies <==================
	-----------------------------------------------------------
	 SCS Same-Spin Scale       =       0.3333333333333333 [-]
	 SCS Opposite-Spin Scale   =       1.2000000000000000 [-]
	 SCS Same-Spin Energy      =      -0.1760881422384638 [Eh]
	 SCS Opposite-Spin Energy  =      -2.1265032253545280 [Eh]
	 SCS Correlation Energy    =      -2.3025913675929917 [Eh]
	 SCS Total Energy          =    -467.2285661149345515 [Eh]
	-----------------------------------------------------------

  Dipole Moment: [D]
     X:     0.0892      Y:    -0.2298      Z:     0.1014     Total:     0.2666

*** Psi4 exiting successfully. Buy a developer a beer!
