                               Psi4 1.3.2 release

  ==> Input File <==

--------------------------------------------------------------------------
#psi4
#
memory 32 gb

molecule  {
0 1
  C       -0.5088830     1.3115130    -0.0227420
  C       -1.3901940     0.2150430     0.0227430
  C        0.8813450     1.0964750     0.0226560
  C       -0.8813440    -1.0964340    -0.0226940
  C        1.3902270    -0.2150110    -0.0227900
  C        0.5089060    -1.3114930     0.0226680
  C       -1.0592558     2.7295814     0.1122629
  C       -2.8836500     0.4458940     0.0875300
  C        1.8281740     2.2742730     0.0874930
  C       -1.8282270    -2.2741900    -0.0874960
  C        2.8836660    -0.4460300    -0.0874310
  C        1.0556730    -2.7203040     0.0874750
  H       -1.2228990     3.1507820     0.9082400
  H       -0.3731520     3.3838700    -0.6219980
  H       -2.0070850     2.7494970    -0.6221200
  H       -3.1169600     1.3690200     0.6216180
  H       -3.3401820     0.5158720    -0.9081780
  H       -3.3845810    -0.3632220     0.6225760
  H        2.7440520     2.0146320     0.6219170
  H        1.3780590     3.1129020     0.6222310
  H        2.1174310     2.6343160    -0.9082230
  H       -1.3778060    -3.1130310    -0.6216310
  H       -2.1180860    -2.6338480     0.9081850
  H       -2.7438120    -2.0147100    -0.6225210
  H        3.3400770    -0.5159510     0.9083360
  H        3.1168940    -1.3692350    -0.6214080
  H        3.3848100     0.3629430    -0.6224920
  H        0.3729260    -3.3838390     0.6217170
  H        1.2232470    -3.1507440    -0.9082080
  H        2.0069120    -2.7495520     0.6224200
units angstrom
no_reorient  #important for SAPT in psi4, default
symmetry c1  #important for SAPT in psi4, default
}

set PROPERTIES_ORIGIN ["COM"]
properties('MP2/aug-cc-pvtz', properties = ['dipole'])
--------------------------------------------------------------------------

    Molecular point group: c1
  Charge       = 0
  Multiplicity = 1
  Basis Set: AUG-CC-PVTZ
    Blend: AUG-CC-PVTZ
  Basis Set: (AUG-CC-PVTZ AUX)
    Blend: AUG-CC-PVTZ-JKFIT

    Orbital Energies [Eh]
    ---------------------

    Doubly Occupied:

       1A    -11.225768     2A    -11.225135     3A    -11.224449
       4A    -11.223910     5A    -11.222964     6A    -11.222664
       7A    -11.218378     8A    -11.215160     9A    -11.214536
      10A    -11.214535    11A    -11.213478    12A    -11.213475
      13A     -1.154445    14A     -1.066178    15A     -1.065766
      16A     -0.977563    17A     -0.976501    18A     -0.943448
      19A     -0.939693    20A     -0.869270    21A     -0.865574
      22A     -0.750313    23A     -0.744882    24A     -0.676492
      25A     -0.632425    26A     -0.606336    27A     -0.591265
      28A     -0.573426    29A     -0.571207    30A     -0.566969
      31A     -0.563319    32A     -0.556677    33A     -0.547447
      34A     -0.540681    35A     -0.528440    36A     -0.523137
      37A     -0.520731    38A     -0.515758    39A     -0.506480
      40A     -0.469097    41A     -0.453963    42A     -0.445019
      43A     -0.436514    44A     -0.298044    45A     -0.294947

  @DF-RHF Final Energy:  -465.00131985687688

   => Energetics <=

    Nuclear Repulsion Energy =            713.8674250403078076
    One-Electron Energy =               -2044.9245721777065228
    Two-Electron Energy =                 866.0558272805218394
    Total Energy =                       -465.0013198568768757
  Basis Set: (AUG-CC-PVTZ AUX)
    Blend: AUG-CC-PVTZ-RI
    Molecular point group: c1

    Geometry (in Angstrom), charge = 0, multiplicity = 1:

       Center              X                  Y                   Z               Mass
    ------------   -----------------  -----------------  -----------------  -----------------
         C           -0.508618354707     1.310825274065    -0.037522750186    12.000000000000
         C           -1.389929354707     0.214355274065     0.007962249814    12.000000000000
         C            0.881609645293     1.095787274065     0.007875249814    12.000000000000
         C           -0.881079354707    -1.097121725935    -0.037474750186    12.000000000000
         C            1.390491645293    -0.215698725935    -0.037570750186    12.000000000000
         C            0.509170645293    -1.312180725935     0.007887249814    12.000000000000
         C           -1.058991154707     2.728893674065     0.097482149814    12.000000000000
         C           -2.883385354707     0.445206274065     0.072749249814    12.000000000000
         C            1.828438645293     2.273585274065     0.072712249814    12.000000000000
         C           -1.827962354707    -2.274877725935    -0.102276750186    12.000000000000
         C            2.883930645293    -0.446717725935    -0.102211750186    12.000000000000
         C            1.055937645293    -2.720991725935     0.072694249814    12.000000000000
         H           -1.222634354707     3.150094274065     0.893459249814     1.007825032230
         H           -0.372887354707     3.383182274065    -0.636778750186     1.007825032230
         H           -2.006820354707     2.748809274065    -0.636900750186     1.007825032230
         H           -3.116695354707     1.368332274065     0.606837249814     1.007825032230
         H           -3.339917354707     0.515184274065    -0.922958750186     1.007825032230
         H           -3.384316354707    -0.363909725935     0.607795249814     1.007825032230
         H            2.744316645293     2.013944274065     0.607136249814     1.007825032230
         H            1.378323645293     3.112214274065     0.607450249814     1.007825032230
         H            2.117695645293     2.633628274065    -0.923003750186     1.007825032230
         H           -1.377541354707    -3.113718725935    -0.636411750186     1.007825032230
         H           -2.117821354707    -2.634535725935     0.893404249814     1.007825032230
         H           -2.743547354707    -2.015397725935    -0.637301750186     1.007825032230
         H            3.340341645293    -0.516638725935     0.893555249814     1.007825032230
         H            3.117158645293    -1.369922725935    -0.636188750186     1.007825032230
         H            3.385074645293     0.362255274065    -0.637272750186     1.007825032230
         H            0.373190645293    -3.384526725935     0.606936249814     1.007825032230
         H            1.223511645293    -3.151431725935    -0.922988750186     1.007825032230
         H            2.007176645293    -2.750239725935     0.607639249814     1.007825032230

  Basis Set: AUG-CC-PVTZ
    Blend: AUG-CC-PVTZ
  Basis Set: (AUG-CC-PVTZ AUX)
    Blend: AUG-CC-PVTZ-JKFIT
	 Reference Energy          =    -465.0013198568768757 [Eh]
	 Singles Energy            =      -0.0000000000000000 [Eh]
	 Same-Spin Energy          =      -0.5273298665700917 [Eh]
	 Opposite-Spin Energy      =      -1.7690644250593912 [Eh]
	 Correlation Energy        =      -2.2963942916294831 [Eh]
	 Total Energy              =    -467.2977141485063726 [Eh]

	 ================> DF-SCS-MP2 Energies <==================
	-----------------------------------------------------------
	 SCS Same-Spin Scale       =       0.3333333333333333 [-]
	 SCS Opposite-Spin Scale   =       1.2000000000000000 [-]
	 SCS Same-Spin Energy      =      -0.1757766221900306 [Eh]
	 SCS Opposite-Spin Energy  =      -2.1228773100712695 [Eh]
	 SCS Correlation Energy    =      -2.2986539322613000 [Eh]
	 SCS Total Energy          =    -467.2999737891381642 [Eh]
	-----------------------------------------------------------

  Dipole Moment: [D]
     X:     0.0419      Y:    -0.1081      Z:     0.0835     Total:     0.1429

*** Psi4 exiting successfully. Buy a developer a beer!
