                               Psi4 1.3.2 release

  ==> Input File <==

--------------------------------------------------------------------------
#psi4
#
memory 32 gb

molecule  {
0 1
  C       -0.5088830     1.3115130    -0.0227420
  C       -1.3901940     0.2150430     0.0227430
  C        0.8813450     1.0964750     0.0226560
  C       -0.8813440    -1.0964340    -0.0226940
  C        1.3902270    -0.2150110    -0.0227900
  C        0.5089060    -1.3114930     0.0226680
  C       -1.0583586     2.7272643     0.0623247
  C       -2.8836500     0.4458940     0.0875300
  C        1.8281740     2.2742730     0.0874930
  C       -1.8282270    -2.2741900    -0.0874960
  C        2.8836660    -0.4460300    -0.0874310
  C        1.0556730    -2.7203040     0.0874750
  H       -1.2228990     3.1507820     0.9082400
  H       -0.3731520     3.3838700    -0.6219980
  H       -2.0070850     2.7494970    -0.6221200
  H       -3.1169600     1.3690200     0.6216180
  H       -3.3401820     0.5158720    -0.9081780
  H       -3.3845810    -0.3632220     0.6225760
  H        2.7440520     2.0146320     0.6219170
  H        1.3780590     3.1129020     0.6222310
  H        2.1174310     2.6343160    -0.9082230
  H       -1.3778060    -3.1130310    -0.6216310
  H       -2.1180860    -2.6338480     0.9081850
  H       -2.7438120    -2.0147100    -0.6225210
  H        3.3400770    -0.5159510     0.9083360
  H        3.1168940    -1.3692350    -0.6214080
  H        3.3848100     0.3629430    -0.6224920
  H        0.3729260    -3.3838390     0.6217170
  H        1.2232470    -3.1507440    -0.9082080
  H        2.0069120    -2.7495520     0.6224200
units angstrom
no_reorient  #important for SAPT in psi4, default
symmetry c1  #important for SAPT in psi4, default
}

set PROPERTIES_ORIGIN ["COM"]
properties('MP2/aug-cc-pvtz', properties = ['dipole'])
--------------------------------------------------------------------------

    Molecular point group: c1
  Charge       = 0
  Multiplicity = 1
  Basis Set: AUG-CC-PVTZ
    Blend: AUG-CC-PVTZ
  Basis Set: (AUG-CC-PVTZ AUX)
    Blend: AUG-CC-PVTZ-JKFIT

    Orbital Energies [Eh]
    ---------------------

    Doubly Occupied:

       1A    -11.224862     2A    -11.224536     3A    -11.224061
       4A    -11.223243     5A    -11.222720     6A    -11.222355
       7A    -11.216339     8A    -11.214868     9A    -11.214404
      10A    -11.214403    11A    -11.213651    12A    -11.213649
      13A     -1.154233    14A     -1.066004    15A     -1.065727
      16A     -0.976932    17A     -0.976450    18A     -0.942568
      19A     -0.939292    20A     -0.867350    21A     -0.865435
      22A     -0.747769    23A     -0.744794    24A     -0.676783
      25A     -0.624715    26A     -0.606104    27A     -0.588579
      28A     -0.573391    29A     -0.571195    30A     -0.567712
      31A     -0.564407    32A     -0.556188    33A     -0.547430
      34A     -0.540337    35A     -0.528281    36A     -0.524567
      37A     -0.521556    38A     -0.515924    39A     -0.507324
      40A     -0.476968    41A     -0.452632    42A     -0.447865
      43A     -0.438005    44A     -0.297367    45A     -0.294748

  @DF-RHF Final Energy:  -465.02478041150277

   => Energetics <=

    Nuclear Repulsion Energy =            713.9330027901748963
    One-Electron Energy =               -2045.1201238533849391
    Two-Electron Energy =                 866.1623406517072681
    Total Energy =                       -465.0247804115027748
  Basis Set: (AUG-CC-PVTZ AUX)
    Blend: AUG-CC-PVTZ-RI
    Molecular point group: c1

    Geometry (in Angstrom), charge = 0, multiplicity = 1:

       Center              X                  Y                   Z               Mass
    ------------   -----------------  -----------------  -----------------  -----------------
         C           -0.508684756234     1.310996762002    -0.033826837664    12.000000000000
         C           -1.389995756234     0.214526762002     0.011658162336    12.000000000000
         C            0.881543243766     1.095958762002     0.011571162336    12.000000000000
         C           -0.881145756234    -1.096950237998    -0.033778837664    12.000000000000
         C            1.390425243766    -0.215527237998    -0.033874837664    12.000000000000
         C            0.509104243766    -1.312009237998     0.011583162336    12.000000000000
         C           -1.058160356234     2.726748062002     0.051239862336    12.000000000000
         C           -2.883451756234     0.445377762002     0.076445162336    12.000000000000
         C            1.828372243766     2.273756762002     0.076408162336    12.000000000000
         C           -1.828028756234    -2.274706237998    -0.098580837664    12.000000000000
         C            2.883864243766    -0.446546237998    -0.098515837664    12.000000000000
         C            1.055871243766    -2.720820237998     0.076390162336    12.000000000000
         H           -1.222700756234     3.150265762002     0.897155162336     1.007825032230
         H           -0.372953756234     3.383353762002    -0.633082837664     1.007825032230
         H           -2.006886756234     2.748980762002    -0.633204837664     1.007825032230
         H           -3.116761756234     1.368503762002     0.610533162336     1.007825032230
         H           -3.339983756234     0.515355762002    -0.919262837664     1.007825032230
         H           -3.384382756234    -0.363738237998     0.611491162336     1.007825032230
         H            2.744250243766     2.014115762002     0.610832162336     1.007825032230
         H            1.378257243766     3.112385762002     0.611146162336     1.007825032230
         H            2.117629243766     2.633799762002    -0.919307837664     1.007825032230
         H           -1.377607756234    -3.113547237998    -0.632715837664     1.007825032230
         H           -2.117887756234    -2.634364237998     0.897100162336     1.007825032230
         H           -2.743613756234    -2.015226237998    -0.633605837664     1.007825032230
         H            3.340275243766    -0.516467237998     0.897251162336     1.007825032230
         H            3.117092243766    -1.369751237998    -0.632492837664     1.007825032230
         H            3.385008243766     0.362426762002    -0.633576837664     1.007825032230
         H            0.373124243766    -3.384355237998     0.610632162336     1.007825032230
         H            1.223445243766    -3.151260237998    -0.919292837664     1.007825032230
         H            2.007110243766    -2.750068237998     0.611335162336     1.007825032230

  Basis Set: AUG-CC-PVTZ
    Blend: AUG-CC-PVTZ
  Basis Set: (AUG-CC-PVTZ AUX)
    Blend: AUG-CC-PVTZ-JKFIT
	 Reference Energy          =    -465.0247804115027748 [Eh]
	 Singles Energy            =      -0.0000000000000000 [Eh]
	 Same-Spin Energy          =      -0.5269966849435846 [Eh]
	 Opposite-Spin Energy      =      -1.7680218024984560 [Eh]
	 Correlation Energy        =      -2.2950184874420407 [Eh]
	 Total Energy              =    -467.3197988989448390 [Eh]

	 ================> DF-SCS-MP2 Energies <==================
	-----------------------------------------------------------
	 SCS Same-Spin Scale       =       0.3333333333333333 [-]
	 SCS Opposite-Spin Scale   =       1.2000000000000000 [-]
	 SCS Same-Spin Energy      =      -0.1756655616478615 [Eh]
	 SCS Opposite-Spin Energy  =      -2.1216261629981470 [Eh]
	 SCS Correlation Energy    =      -2.2972917246460085 [Eh]
	 SCS Total Energy          =    -467.3220721361487904 [Eh]
	-----------------------------------------------------------

  Dipole Moment: [D]
     X:     0.0251      Y:    -0.0648      Z:     0.0685     Total:     0.0976

*** Psi4 exiting successfully. Buy a developer a beer!
