                               Psi4 1.3.2 release

  ==> Input File <==

--------------------------------------------------------------------------
#psi4
#
memory 32 gb

molecule  {
0 1
  C       -0.5088830     1.3115130    -0.0227420
  C       -1.3901940     0.2150430     0.0227430
  C        0.8813450     1.0964750     0.0226560
  C       -0.8813440    -1.0964340    -0.0226940
  C        1.3902270    -0.2150110    -0.0227900
  C        0.5089060    -1.3114930     0.0226680
  C       -1.0565642     2.7226301    -0.0375518
  C       -2.8836500     0.4458940     0.0875300
  C        1.8281740     2.2742730     0.0874930
  C       -1.8282270    -2.2741900    -0.0874960
  C        2.8836660    -0.4460300    -0.0874310
  C        1.0556730    -2.7203040     0.0874750
  H       -1.2228990     3.1507820     0.9082400
  H       -0.3731520     3.3838700    -0.6219980
  H       -2.0070850     2.7494970    -0.6221200
  H       -3.1169600     1.3690200     0.6216180
  H       -3.3401820     0.5158720    -0.9081780
  H       -3.3845810    -0.3632220     0.6225760
  H        2.7440520     2.0146320     0.6219170
  H        1.3780590     3.1129020     0.6222310
  H        2.1174310     2.6343160    -0.9082230
  H       -1.3778060    -3.1130310    -0.6216310
  H       -2.1180860    -2.6338480     0.9081850
  H       -2.7438120    -2.0147100    -0.6225210
  H        3.3400770    -0.5159510     0.9083360
  H        3.1168940    -1.3692350    -0.6214080
  H        3.3848100     0.3629430    -0.6224920
  H        0.3729260    -3.3838390     0.6217170
  H        1.2232470    -3.1507440    -0.9082080
  H        2.0069120    -2.7495520     0.6224200
units angstrom
no_reorient  #important for SAPT in psi4, default
symmetry c1  #important for SAPT in psi4, default
}

set PROPERTIES_ORIGIN ["COM"]
properties('MP2/aug-cc-pvtz', properties = ['dipole'])
--------------------------------------------------------------------------

    Molecular point group: c1
  Charge       = 0
  Multiplicity = 1
  Basis Set: AUG-CC-PVTZ
    Blend: AUG-CC-PVTZ
  Basis Set: (AUG-CC-PVTZ AUX)
    Blend: AUG-CC-PVTZ-JKFIT

    Orbital Energies [Eh]
    ---------------------

    Doubly Occupied:

       1A    -11.224206     2A    -11.223692     3A    -11.223635
       4A    -11.222480     5A    -11.222449     6A    -11.221896
       7A    -11.214450     8A    -11.214302     9A    -11.214298
      10A    -11.214297    11A    -11.214073    12A    -11.214072
      13A     -1.154034    14A     -1.065867    15A     -1.065795
      16A     -0.976527    17A     -0.976503    18A     -0.941965
      19A     -0.938915    20A     -0.865498    21A     -0.865350
      22A     -0.745291    23A     -0.744892    24A     -0.677810
      25A     -0.616892    26A     -0.602684    27A     -0.578791
      28A     -0.573524    29A     -0.571205    30A     -0.569568
      31A     -0.568154    32A     -0.552157    33A     -0.547526
      34A     -0.539342    35A     -0.528183    36A     -0.527440
      37A     -0.522080    38A     -0.518108    39A     -0.511147
      40A     -0.492030    41A     -0.450965    42A     -0.450308
      43A     -0.439416    44A     -0.295677    45A     -0.294601

  @DF-RHF Final Energy:  -465.04927911093972

   => Energetics <=

    Nuclear Repulsion Energy =            714.0164465027181677
    One-Electron Energy =               -2045.3472579460262750
    Two-Electron Energy =                 866.2815323323682151
    Total Energy =                       -465.0492791109397785
  Basis Set: (AUG-CC-PVTZ AUX)
    Blend: AUG-CC-PVTZ-RI
    Molecular point group: c1

    Geometry (in Angstrom), charge = 0, multiplicity = 1:

       Center              X                  Y                   Z               Mass
    ------------   -----------------  -----------------  -----------------  -----------------
         C           -0.508817559287     1.311339737876    -0.026435005219    12.000000000000
         C           -1.390128559287     0.214869737876     0.019049994781    12.000000000000
         C            0.881410440713     1.096301737876     0.018962994781    12.000000000000
         C           -0.881278559287    -1.096607262124    -0.026387005219    12.000000000000
         C            1.390292440713    -0.215184262124    -0.026483005219    12.000000000000
         C            0.508971440713    -1.311666262124     0.018974994781    12.000000000000
         C           -1.056498759287     2.722456837876    -0.041244805219    12.000000000000
         C           -2.883584559287     0.445720737876     0.083836994781    12.000000000000
         C            1.828239440713     2.274099737876     0.083799994781    12.000000000000
         C           -1.828161559287    -2.274363262124    -0.091189005219    12.000000000000
         C            2.883731440713    -0.446203262124    -0.091124005219    12.000000000000
         C            1.055738440713    -2.720477262124     0.083781994781    12.000000000000
         H           -1.222833559287     3.150608737876     0.904546994781     1.007825032230
         H           -0.373086559287     3.383696737876    -0.625691005219     1.007825032230
         H           -2.007019559287     2.749323737876    -0.625813005219     1.007825032230
         H           -3.116894559287     1.368846737876     0.617924994781     1.007825032230
         H           -3.340116559287     0.515698737876    -0.911871005219     1.007825032230
         H           -3.384515559287    -0.363395262124     0.618882994781     1.007825032230
         H            2.744117440713     2.014458737876     0.618223994781     1.007825032230
         H            1.378124440713     3.112728737876     0.618537994781     1.007825032230
         H            2.117496440713     2.634142737876    -0.911916005219     1.007825032230
         H           -1.377740559287    -3.113204262124    -0.625324005219     1.007825032230
         H           -2.118020559287    -2.634021262124     0.904491994781     1.007825032230
         H           -2.743746559287    -2.014883262124    -0.626214005219     1.007825032230
         H            3.340142440713    -0.516124262124     0.904642994781     1.007825032230
         H            3.116959440713    -1.369408262124    -0.625101005219     1.007825032230
         H            3.384875440713     0.362769737876    -0.626185005219     1.007825032230
         H            0.372991440713    -3.384012262124     0.618023994781     1.007825032230
         H            1.223312440713    -3.150917262124    -0.911901005219     1.007825032230
         H            2.006977440713    -2.749725262124     0.618726994781     1.007825032230

  Basis Set: AUG-CC-PVTZ
    Blend: AUG-CC-PVTZ
  Basis Set: (AUG-CC-PVTZ AUX)
    Blend: AUG-CC-PVTZ-JKFIT
	 Reference Energy          =    -465.0492791109397217 [Eh]
	 Singles Energy            =      -0.0000000000000000 [Eh]
	 Same-Spin Energy          =      -0.5265792269870841 [Eh]
	 Opposite-Spin Energy      =      -1.7667734190523252 [Eh]
	 Correlation Energy        =      -2.2933526460394091 [Eh]
	 Total Energy              =    -467.3426317569791308 [Eh]

	 ================> DF-SCS-MP2 Energies <==================
	-----------------------------------------------------------
	 SCS Same-Spin Scale       =       0.3333333333333333 [-]
	 SCS Opposite-Spin Scale   =       1.2000000000000000 [-]
	 SCS Same-Spin Energy      =      -0.1755264089956947 [Eh]
	 SCS Opposite-Spin Energy  =      -2.1201281028627901 [Eh]
	 SCS Correlation Energy    =      -2.2956545118584848 [Eh]
	 SCS Total Energy          =    -467.3449336227981803 [Eh]
	-----------------------------------------------------------

  Dipole Moment: [D]
     X:     0.0044      Y:    -0.0113      Z:     0.0266     Total:     0.0292

*** Psi4 exiting successfully. Buy a developer a beer!
