                               Psi4 1.3.2 release

  ==> Input File <==

--------------------------------------------------------------------------
#psi4
#
memory 32 gb

molecule  {
0 1
  N       -1.7893040    -0.1617730    -0.0001110
  N       -0.2713240    -1.8496560    -0.0082220
  N       -0.2672930     1.7497910     0.0010540
  N        2.0532340     1.0361840    -0.0078740
  N        2.7268170    -1.1967150     0.0786200
  C       -0.5487760     0.4359060     0.0048010
  C        0.3666280    -0.6257540     0.0082110
  C       -1.5569310    -1.5157420    -0.0063070
  C        1.7258273    -0.2641669    -0.1985087
  C       -3.0654680     0.5328540     0.0028660
  C        1.0578830     1.9506280    -0.0091420
  H       -2.3786350    -2.2235800    -0.0126570
  H       -3.1454970     1.1693440    -0.8801020
  H       -3.8626160    -0.2117770    -0.0066990
  H       -3.1511970     1.1523310     0.8973960
  H        1.3824760     2.9891980    -0.0128990
  H        3.6364610    -0.8630510    -0.2195510
  H        2.4794860    -2.1327440    -0.2212610
units angstrom
no_reorient  #important for SAPT in psi4, default
symmetry c1  #important for SAPT in psi4, default
}

set PROPERTIES_ORIGIN ["COM"]
properties('MP2/aug-cc-pvtz', properties = ['dipole'])
--------------------------------------------------------------------------

    Molecular point group: c1
  Charge       = 0
  Multiplicity = 1
  Basis Set: AUG-CC-PVTZ
    Blend: AUG-CC-PVTZ
  Basis Set: (AUG-CC-PVTZ AUX)
    Blend: AUG-CC-PVTZ-JKFIT

    Orbital Energies [Eh]
    ---------------------

    Doubly Occupied:

       1A    -15.633874     2A    -15.580949     3A    -15.567448
       4A    -15.563604     5A    -15.555921     6A    -11.336569
       7A    -11.324192     8A    -11.313618     9A    -11.311013
      10A    -11.289388    11A    -11.255671    12A     -1.368609
      13A     -1.293495    14A     -1.239558    15A     -1.196423
      16A     -1.149644    17A     -1.030673    18A     -0.986164
      19A     -0.889948    20A     -0.869435    21A     -0.800840
      22A     -0.751056    23A     -0.719927    24A     -0.678316
      25A     -0.670297    26A     -0.665695    27A     -0.621187
      28A     -0.605486    29A     -0.598776    30A     -0.583744
      31A     -0.572233    32A     -0.536002    33A     -0.497243
      34A     -0.492310    35A     -0.450876    36A     -0.413713
      37A     -0.410559    38A     -0.366501    39A     -0.308523

  @DF-RHF Final Energy:  -503.70531321050828

   => Energetics <=

    Nuclear Repulsion Energy =            593.6210229321302450
    One-Electron Energy =               -1861.6537142346719520
    Two-Electron Energy =                 764.3273780920334275
    Total Energy =                       -503.7053132105082796
  Basis Set: (AUG-CC-PVTZ AUX)
    Blend: AUG-CC-PVTZ-RI
    Molecular point group: c1

    Geometry (in Angstrom), charge = 0, multiplicity = 1:

       Center              X                  Y                   Z               Mass
    ------------   -----------------  -----------------  -----------------  -----------------
         N           -1.822901344580    -0.162657263334     0.012953740343    14.003074004430
         N           -0.304921344580    -1.850540263334     0.004842740343    14.003074004430
         N           -0.300890344580     1.748906736666     0.014118740343    14.003074004430
         N            2.019636655420     1.035299736666     0.005190740343    14.003074004430
         N            2.693219655420    -1.197599263334     0.091684740343    14.003074004430
         C           -0.582373344580     0.435021736666     0.017865740343    12.000000000000
         C            0.333030655420    -0.626638263334     0.021275740343    12.000000000000
         C           -1.590528344580    -1.516626263334     0.006757740343    12.000000000000
         C            1.692229955420    -0.265051163334    -0.185443959657    12.000000000000
         C           -3.099065344580     0.531969736666     0.015930740343    12.000000000000
         C            1.024285655420     1.949743736666     0.003922740343    12.000000000000
         H           -2.412232344580    -2.224464263334     0.000407740343     1.007825032230
         H           -3.179094344580     1.168459736666    -0.867037259657     1.007825032230
         H           -3.896213344580    -0.212661263334     0.006365740343     1.007825032230
         H           -3.184794344580     1.151446736666     0.910460740343     1.007825032230
         H            1.348878655420     2.988313736666     0.000165740343     1.007825032230
         H            3.602863655420    -0.863935263334    -0.206486259657     1.007825032230
         H            2.445888655420    -2.133628263334    -0.208196259657     1.007825032230

  Basis Set: AUG-CC-PVTZ
    Blend: AUG-CC-PVTZ
  Basis Set: (AUG-CC-PVTZ AUX)
    Blend: AUG-CC-PVTZ-JKFIT
	 Reference Energy          =    -503.7053132105082796 [Eh]
	 Singles Energy            =      -0.0000000000000000 [Eh]
	 Same-Spin Energy          =      -0.5506056765119415 [Eh]
	 Opposite-Spin Energy      =      -1.6360158966545388 [Eh]
	 Correlation Energy        =      -2.1866215731664802 [Eh]
	 Total Energy              =    -505.8919347836747420 [Eh]

	 ================> DF-SCS-MP2 Energies <==================
	-----------------------------------------------------------
	 SCS Same-Spin Scale       =       0.3333333333333333 [-]
	 SCS Opposite-Spin Scale   =       1.2000000000000000 [-]
	 SCS Same-Spin Energy      =      -0.1835352255039805 [Eh]
	 SCS Opposite-Spin Energy  =      -1.9632190759854464 [Eh]
	 SCS Correlation Energy    =      -2.1467543014894268 [Eh]
	 SCS Total Energy          =    -505.8520675119976886 [Eh]
	-----------------------------------------------------------

  Dipole Moment: [D]
     X:    -2.9169      Y:    -1.0484      Z:    -0.9050     Total:     3.2290

*** Psi4 exiting successfully. Buy a developer a beer!
