                               Psi4 1.3.2 release

  ==> Input File <==

--------------------------------------------------------------------------
#psi4
#
memory 32 gb

molecule  {
0 1
  N       -1.7893040    -0.1617730    -0.0001110
  N       -0.2713240    -1.8496560    -0.0082220
  N       -0.2672930     1.7497910     0.0010540
  N        2.0532340     1.0361840    -0.0078740
  N        2.7268170    -1.1967150     0.0786200
  C       -0.5487760     0.4359060     0.0048010
  C        0.3666280    -0.6257540     0.0082110
  C       -1.5569310    -1.5157420    -0.0063070
  C        1.7257806    -0.2650272    -0.0485112
  C       -3.0654680     0.5328540     0.0028660
  C        1.0578830     1.9506280    -0.0091420
  H       -2.3786350    -2.2235800    -0.0126570
  H       -3.1454970     1.1693440    -0.8801020
  H       -3.8626160    -0.2117770    -0.0066990
  H       -3.1511970     1.1523310     0.8973960
  H        1.3824760     2.9891980    -0.0128990
  H        3.6364610    -0.8630510    -0.2195510
  H        2.4794860    -2.1327440    -0.2212610
units angstrom
no_reorient  #important for SAPT in psi4, default
symmetry c1  #important for SAPT in psi4, default
}

set PROPERTIES_ORIGIN ["COM"]
properties('MP2/aug-cc-pvtz', properties = ['dipole'])
--------------------------------------------------------------------------

    Molecular point group: c1
  Charge       = 0
  Multiplicity = 1
  Basis Set: AUG-CC-PVTZ
    Blend: AUG-CC-PVTZ
  Basis Set: (AUG-CC-PVTZ AUX)
    Blend: AUG-CC-PVTZ-JKFIT

    Orbital Energies [Eh]
    ---------------------

    Doubly Occupied:

       1A    -15.633201     2A    -15.581142     3A    -15.567383
       4A    -15.561174     5A    -15.552787     6A    -11.334382
       7A    -11.322736     8A    -11.313137     9A    -11.311610
      10A    -11.288830    11A    -11.252264    12A     -1.367927
      13A     -1.296057    14A     -1.242042    15A     -1.196852
      16A     -1.151933    17A     -1.031388    18A     -0.986109
      19A     -0.890665    20A     -0.872002    21A     -0.802369
      22A     -0.753338    23A     -0.723233    24A     -0.680248
      25A     -0.672906    26A     -0.666378    27A     -0.624097
      28A     -0.606438    29A     -0.597433    30A     -0.589993
      31A     -0.571921    32A     -0.536791    33A     -0.496005
      34A     -0.492769    35A     -0.450634    36A     -0.414159
      37A     -0.409106    38A     -0.368375    39A     -0.308083

  @DF-RHF Final Energy:  -503.72323040292736

   => Energetics <=

    Nuclear Repulsion Energy =            594.2682364393099306
    One-Electron Energy =               -1862.9471359336505429
    Two-Electron Energy =                 764.9556690914132560
    Total Energy =                       -503.7232304029273564
  Basis Set: (AUG-CC-PVTZ AUX)
    Blend: AUG-CC-PVTZ-RI
    Molecular point group: c1

    Geometry (in Angstrom), charge = 0, multiplicity = 1:

       Center              X                  Y                   Z               Mass
    ------------   -----------------  -----------------  -----------------  -----------------
         N           -1.822897585275    -0.162588010030     0.000879089198    14.003074004430
         N           -0.304917585275    -1.850471010030    -0.007231910802    14.003074004430
         N           -0.300886585275     1.748975989970     0.002044089198    14.003074004430
         N            2.019640414725     1.035368989970    -0.006883910802    14.003074004430
         N            2.693223414725    -1.197530010030     0.079610089198    14.003074004430
         C           -0.582369585275     0.435090989970     0.005791089198    12.000000000000
         C            0.333034414725    -0.626569010030     0.009201089198    12.000000000000
         C           -1.590524585275    -1.516557010030    -0.005316910802    12.000000000000
         C            1.692187014725    -0.265842210030    -0.047521110802    12.000000000000
         C           -3.099061585275     0.532038989970     0.003856089198    12.000000000000
         C            1.024289414725     1.949812989970    -0.008151910802    12.000000000000
         H           -2.412228585275    -2.224395010030    -0.011666910802     1.007825032230
         H           -3.179090585275     1.168528989970    -0.879111910802     1.007825032230
         H           -3.896209585275    -0.212592010030    -0.005708910802     1.007825032230
         H           -3.184790585275     1.151515989970     0.898386089198     1.007825032230
         H            1.348882414725     2.988382989970    -0.011908910802     1.007825032230
         H            3.602867414725    -0.863866010030    -0.218560910802     1.007825032230
         H            2.445892414725    -2.133559010030    -0.220270910802     1.007825032230

  Basis Set: AUG-CC-PVTZ
    Blend: AUG-CC-PVTZ
  Basis Set: (AUG-CC-PVTZ AUX)
    Blend: AUG-CC-PVTZ-JKFIT
	 Reference Energy          =    -503.7232304029273564 [Eh]
	 Singles Energy            =      -0.0000000000000000 [Eh]
	 Same-Spin Energy          =      -0.5494035331443139 [Eh]
	 Opposite-Spin Energy      =      -1.6334044501291660 [Eh]
	 Correlation Energy        =      -2.1828079832734799 [Eh]
	 Total Energy              =    -505.9060383862008621 [Eh]

	 ================> DF-SCS-MP2 Energies <==================
	-----------------------------------------------------------
	 SCS Same-Spin Scale       =       0.3333333333333333 [-]
	 SCS Opposite-Spin Scale   =       1.2000000000000000 [-]
	 SCS Same-Spin Energy      =      -0.1831345110481046 [Eh]
	 SCS Opposite-Spin Energy  =      -1.9600853401549991 [Eh]
	 SCS Correlation Energy    =      -2.1432198512031038 [Eh]
	 SCS Total Energy          =    -505.8664502541304842 [Eh]
	-----------------------------------------------------------

  Dipole Moment: [D]
     X:    -2.7598      Y:    -1.1404      Z:    -0.8227     Total:     3.0974

*** Psi4 exiting successfully. Buy a developer a beer!
