                               Psi4 1.3.2 release

  ==> Input File <==

--------------------------------------------------------------------------
#psi4
#
memory 32 gb

molecule  {
0 1
  N       -1.7893040    -0.1617730    -0.0001110
  N       -0.2713240    -1.8496560    -0.0082220
  N       -0.2672930     1.7497910     0.0010540
  N        2.0532340     1.0361840    -0.0078740
  N        2.7268170    -1.1967150     0.0786200
  C       -0.5487760     0.4359060     0.0048010
  C        0.3666280    -0.6257540     0.0082110
  C       -1.5569310    -1.5157420    -0.0063070
  C        1.7257650    -0.2653140     0.0014880
  C       -3.0654680     0.5328540     0.0028660
  C        1.0578830     1.9506280    -0.0091420
  H       -2.3786350    -2.2235800    -0.0126570
  H       -3.1454970     1.1693440    -0.8801020
  H       -3.8626160    -0.2117770    -0.0066990
  H       -3.1511970     1.1523310     0.8973960
  H        1.3824760     2.9891980    -0.0128990
  H        3.6364610    -0.8630510    -0.2195510
  H        2.4572280    -2.1121278    -0.4694133
units angstrom
no_reorient  #important for SAPT in psi4, default
symmetry c1  #important for SAPT in psi4, default
}

set PROPERTIES_ORIGIN ["COM"]
properties('MP2/aug-cc-pvtz', properties = ['dipole'])
--------------------------------------------------------------------------

    Molecular point group: c1
  Charge       = 0
  Multiplicity = 1
  Basis Set: AUG-CC-PVTZ
    Blend: AUG-CC-PVTZ
  Basis Set: (AUG-CC-PVTZ AUX)
    Blend: AUG-CC-PVTZ-JKFIT

    Orbital Energies [Eh]
    ---------------------

    Doubly Occupied:

       1A    -15.633767     2A    -15.587345     3A    -15.567564
       4A    -15.562625     5A    -15.553820     6A    -11.333589
       7A    -11.323353     8A    -11.314016     9A    -11.312100
      10A    -11.289308    11A    -11.253100    12A     -1.368585
      13A     -1.296341    14A     -1.240460    15A     -1.196130
      16A     -1.149539    17A     -1.031416    18A     -0.986507
      19A     -0.889469    20A     -0.872218    21A     -0.801045
      22A     -0.748527    23A     -0.723719    24A     -0.680219
      25A     -0.667512    26A     -0.656147    27A     -0.623578
      28A     -0.601189    29A     -0.597465    30A     -0.589716
      31A     -0.571121    32A     -0.536713    33A     -0.497140
      34A     -0.493019    35A     -0.451196    36A     -0.416492
      37A     -0.409458    38A     -0.369556    39A     -0.309845

  @DF-RHF Final Energy:  -503.71533814565834

   => Energetics <=

    Nuclear Repulsion Energy =            594.0281758789035393
    One-Electron Energy =               -1862.4772130923247460
    Two-Electron Energy =                 764.7336990677628137
    Total Energy =                       -503.7153381456583929
  Basis Set: (AUG-CC-PVTZ AUX)
    Blend: AUG-CC-PVTZ-RI
    Molecular point group: c1

    Geometry (in Angstrom), charge = 0, multiplicity = 1:

       Center              X                  Y                   Z               Mass
    ------------   -----------------  -----------------  -----------------  -----------------
         N           -1.822745848860    -0.162704303755    -0.001468103123    14.003074004430
         N           -0.304765848860    -1.850587303755    -0.009579103123    14.003074004430
         N           -0.300734848860     1.748859696245    -0.000303103123    14.003074004430
         N            2.019792151140     1.035252696245    -0.009231103123    14.003074004430
         N            2.693375151140    -1.197646303755     0.077262896877    14.003074004430
         C           -0.582217848860     0.434974696245     0.003443896877    12.000000000000
         C            0.333186151140    -0.626685303755     0.006853896877    12.000000000000
         C           -1.590372848860    -1.516673303755    -0.007664103123    12.000000000000
         C            1.692323151140    -0.266245303755     0.000130896877    12.000000000000
         C           -3.098909848860     0.531922696245     0.001508896877    12.000000000000
         C            1.024441151140     1.949696696245    -0.010499103123    12.000000000000
         H           -2.412076848860    -2.224511303755    -0.014014103123     1.007825032230
         H           -3.178938848860     1.168412696245    -0.881459103123     1.007825032230
         H           -3.896057848860    -0.212708303755    -0.008056103123     1.007825032230
         H           -3.184638848860     1.151399696245     0.896038896877     1.007825032230
         H            1.349034151140     2.988266696245    -0.014256103123     1.007825032230
         H            3.603019151140    -0.863982303755    -0.220908103123     1.007825032230
         H            2.423786151140    -2.113059103755    -0.470770403123     1.007825032230

  Basis Set: AUG-CC-PVTZ
    Blend: AUG-CC-PVTZ
  Basis Set: (AUG-CC-PVTZ AUX)
    Blend: AUG-CC-PVTZ-JKFIT
	 Reference Energy          =    -503.7153381456583361 [Eh]
	 Singles Energy            =      -0.0000000000000000 [Eh]
	 Same-Spin Energy          =      -0.5498401705096777 [Eh]
	 Opposite-Spin Energy      =      -1.6348277535135718 [Eh]
	 Correlation Energy        =      -2.1846679240232496 [Eh]
	 Total Energy              =    -505.9000060696815808 [Eh]

	 ================> DF-SCS-MP2 Energies <==================
	-----------------------------------------------------------
	 SCS Same-Spin Scale       =       0.3333333333333333 [-]
	 SCS Opposite-Spin Scale   =       1.2000000000000000 [-]
	 SCS Same-Spin Energy      =      -0.1832800568365592 [Eh]
	 SCS Opposite-Spin Energy  =      -1.9617933042162861 [Eh]
	 SCS Correlation Energy    =      -2.1450733610528454 [Eh]
	 SCS Total Energy          =    -505.8604115067111593 [Eh]
	-----------------------------------------------------------

  Dipole Moment: [D]
     X:    -2.8865      Y:    -0.9626      Z:    -1.0613     Total:     3.2226

*** Psi4 exiting successfully. Buy a developer a beer!
