                               Psi4 1.3.2 release

  ==> Input File <==

--------------------------------------------------------------------------
#psi4
#
memory 32 gb

molecule  {
0 1
  N       -1.7893040    -0.1617730    -0.0001110
  N       -0.2713240    -1.8496560    -0.0082220
  N       -0.2672930     1.7497910     0.0010540
  N        2.0532340     1.0361840    -0.0078740
  N        2.7268170    -1.1967150     0.0786200
  C       -0.5487760     0.4359060     0.0048010
  C        0.3666280    -0.6257540     0.0082110
  C       -1.5569310    -1.5157420    -0.0063070
  C        1.7257650    -0.2653140     0.0014880
  C       -3.0654680     0.5328540     0.0028660
  C        1.0578830     1.9506280    -0.0091420
  H       -2.3785810    -2.2232912    -0.0626561
  H       -3.1454970     1.1693440    -0.8801020
  H       -3.8626160    -0.2117770    -0.0066990
  H       -3.1511970     1.1523310     0.8973960
  H        1.3824760     2.9891980    -0.0128990
  H        3.6364610    -0.8630510    -0.2195510
  H        2.4794860    -2.1327440    -0.2212610
units angstrom
no_reorient  #important for SAPT in psi4, default
symmetry c1  #important for SAPT in psi4, default
}

set PROPERTIES_ORIGIN ["COM"]
properties('MP2/aug-cc-pvtz', properties = ['dipole'])
--------------------------------------------------------------------------

    Molecular point group: c1
  Charge       = 0
  Multiplicity = 1
  Basis Set: AUG-CC-PVTZ
    Blend: AUG-CC-PVTZ
  Basis Set: (AUG-CC-PVTZ AUX)
    Blend: AUG-CC-PVTZ-JKFIT

    Orbital Energies [Eh]
    ---------------------

    Doubly Occupied:

       1A    -15.633075     2A    -15.581018     3A    -15.567392
       4A    -15.560717     5A    -15.552395     6A    -11.334545
       7A    -11.322605     8A    -11.313046     9A    -11.311607
      10A    -11.288718    11A    -11.251903    12A     -1.367795
      13A     -1.296191    14A     -1.242279    15A     -1.196857
      16A     -1.151915    17A     -1.031362    18A     -0.986047
      19A     -0.890654    20A     -0.872109    21A     -0.802752
      22A     -0.753456    23A     -0.724071    24A     -0.680653
      25A     -0.673182    26A     -0.666490    27A     -0.624480
      28A     -0.606371    29A     -0.596452    30A     -0.591700
      31A     -0.571800    32A     -0.536737    33A     -0.495587
      34A     -0.492683    35A     -0.450531    36A     -0.414212
      37A     -0.408595    38A     -0.368402    39A     -0.307796

  @DF-RHF Final Energy:  -503.72472659589283

   => Energetics <=

    Nuclear Repulsion Energy =            594.3232598649541387
    One-Electron Energy =               -1863.0596144226744855
    Two-Electron Energy =                 765.0116279618276849
    Total Energy =                       -503.7247265958927755
  Basis Set: (AUG-CC-PVTZ AUX)
    Blend: AUG-CC-PVTZ-RI
    Molecular point group: c1

    Geometry (in Angstrom), charge = 0, multiplicity = 1:

       Center              X                  Y                   Z               Mass
    ------------   -----------------  -----------------  -----------------  -----------------
         N           -1.822896694571    -0.162566875415    -0.002807766104    14.003074004430
         N           -0.304916694571    -1.850449875415    -0.010918766104    14.003074004430
         N           -0.300885694571     1.748997124585    -0.001642766104    14.003074004430
         N            2.019641305429     1.035390124585    -0.010570766104    14.003074004430
         N            2.693224305429    -1.197508875415     0.075923233896    14.003074004430
         C           -0.582368694571     0.435112124585     0.002104233896    12.000000000000
         C            0.333035305429    -0.626547875415     0.005514233896    12.000000000000
         C           -1.590523694571    -1.516535875415    -0.009003766104    12.000000000000
         C            1.692172305429    -0.266107875415    -0.001208766104    12.000000000000
         C           -3.099060694571     0.532060124585     0.000169233896    12.000000000000
         C            1.024290305429     1.949834124585    -0.011838766104    12.000000000000
         H           -2.412173694571    -2.224085075415    -0.065352866104     1.007825032230
         H           -3.179089694571     1.168550124585    -0.882798766104     1.007825032230
         H           -3.896208694571    -0.212570875415    -0.009395766104     1.007825032230
         H           -3.184789694571     1.151537124585     0.894699233896     1.007825032230
         H            1.348883305429     2.988404124585    -0.015595766104     1.007825032230
         H            3.602868305429    -0.863844875415    -0.222247766104     1.007825032230
         H            2.445893305429    -2.133537875415    -0.223957766104     1.007825032230

  Basis Set: AUG-CC-PVTZ
    Blend: AUG-CC-PVTZ
  Basis Set: (AUG-CC-PVTZ AUX)
    Blend: AUG-CC-PVTZ-JKFIT
	 Reference Energy          =    -503.7247265958928324 [Eh]
	 Singles Energy            =      -0.0000000000000000 [Eh]
	 Same-Spin Energy          =      -0.5492838978327610 [Eh]
	 Opposite-Spin Energy      =      -1.6331479788074386 [Eh]
	 Correlation Energy        =      -2.1824318766401998 [Eh]
	 Total Energy              =    -505.9071584725330126 [Eh]

	 ================> DF-SCS-MP2 Energies <==================
	-----------------------------------------------------------
	 SCS Same-Spin Scale       =       0.3333333333333333 [-]
	 SCS Opposite-Spin Scale   =       1.2000000000000000 [-]
	 SCS Same-Spin Energy      =      -0.1830946326109203 [Eh]
	 SCS Opposite-Spin Energy  =      -1.9597775745689261 [Eh]
	 SCS Correlation Energy    =      -2.1428722071798463 [Eh]
	 SCS Total Energy          =    -505.8675988030726671 [Eh]
	-----------------------------------------------------------

  Dipole Moment: [D]
     X:    -2.7315      Y:    -1.1562      Z:    -0.8222     Total:     3.0780

*** Psi4 exiting successfully. Buy a developer a beer!
