                               Psi4 1.3.2 release

  ==> Input File <==

--------------------------------------------------------------------------
#psi4
#
memory 32 gb

molecule  {
0 1
  N       -1.7893040    -0.1617730    -0.0001110
  N       -0.2713240    -1.8496560    -0.0082220
  N       -0.2672930     1.7497910     0.0010540
  N        2.0532340     1.0361840    -0.0078740
  N        2.7268170    -1.1967150     0.0786200
  C       -0.5487760     0.4359060     0.0048010
  C        0.3666280    -0.6257540     0.0082110
  C       -1.5569310    -1.5157420    -0.0063070
  C        1.7257650    -0.2653140     0.0014880
  C       -3.0654680     0.5328540     0.0028660
  C        1.0578830     1.9506280    -0.0091420
  H       -2.3784191    -2.2224247    -0.2126535
  H       -3.1454970     1.1693440    -0.8801020
  H       -3.8626160    -0.2117770    -0.0066990
  H       -3.1511970     1.1523310     0.8973960
  H        1.3824760     2.9891980    -0.0128990
  H        3.6364610    -0.8630510    -0.2195510
  H        2.4794860    -2.1327440    -0.2212610
units angstrom
no_reorient  #important for SAPT in psi4, default
symmetry c1  #important for SAPT in psi4, default
}

set PROPERTIES_ORIGIN ["COM"]
properties('MP2/aug-cc-pvtz', properties = ['dipole'])
--------------------------------------------------------------------------

    Molecular point group: c1
  Charge       = 0
  Multiplicity = 1
  Basis Set: AUG-CC-PVTZ
    Blend: AUG-CC-PVTZ
  Basis Set: (AUG-CC-PVTZ AUX)
    Blend: AUG-CC-PVTZ-JKFIT

    Orbital Energies [Eh]
    ---------------------

    Doubly Occupied:

       1A    -15.632990     2A    -15.581262     3A    -15.567910
       4A    -15.560854     5A    -15.552595     6A    -11.334853
       7A    -11.323778     8A    -11.313320     9A    -11.311890
      10A    -11.288558    11A    -11.252215    12A     -1.367871
      13A     -1.296384    14A     -1.242502    15A     -1.197027
      16A     -1.152112    17A     -1.031166    18A     -0.985967
      19A     -0.889401    20A     -0.872286    21A     -0.802040
      22A     -0.753066    23A     -0.723713    24A     -0.680447
      25A     -0.672967    26A     -0.666516    27A     -0.623263
      28A     -0.605945    29A     -0.594890    30A     -0.592254
      31A     -0.571615    32A     -0.536144    33A     -0.495727
      34A     -0.492866    35A     -0.450693    36A     -0.414310
      37A     -0.408815    38A     -0.368484    39A     -0.307976

  @DF-RHF Final Energy:  -503.72233440752251

   => Energetics <=

    Nuclear Repulsion Energy =            594.2532893987769285
    One-Electron Energy =               -1862.9179067204458988
    Two-Electron Energy =                 764.9422829141465172
    Total Energy =                       -503.7223344075225668
  Basis Set: (AUG-CC-PVTZ AUX)
    Blend: AUG-CC-PVTZ-RI
    Molecular point group: c1

    Geometry (in Angstrom), charge = 0, multiplicity = 1:

       Center              X                  Y                   Z               Mass
    ------------   -----------------  -----------------  -----------------  -----------------
         N           -1.822897789135    -0.162572733599    -0.001793672140    14.003074004430
         N           -0.304917789135    -1.850455733599    -0.009904672140    14.003074004430
         N           -0.300886789135     1.748991266401    -0.000628672140    14.003074004430
         N            2.019640210865     1.035384266401    -0.009556672140    14.003074004430
         N            2.693223210865    -1.197514733599     0.076937327860    14.003074004430
         C           -0.582369789135     0.435106266401     0.003118327860    12.000000000000
         C            0.333034210865    -0.626553733599     0.006528327860    12.000000000000
         C           -1.590524789135    -1.516541733599    -0.007989672140    12.000000000000
         C            1.692171210865    -0.266113733599    -0.000194672140    12.000000000000
         C           -3.099061789135     0.532054266401     0.001183327860    12.000000000000
         C            1.024289210865     1.949828266401    -0.010824672140    12.000000000000
         H           -2.412012889135    -2.223224433599    -0.214336172140     1.007825032230
         H           -3.179090789135     1.168544266401    -0.881784672140     1.007825032230
         H           -3.896209789135    -0.212576733599    -0.008381672140     1.007825032230
         H           -3.184790789135     1.151531266401     0.895713327860     1.007825032230
         H            1.348882210865     2.988398266401    -0.014581672140     1.007825032230
         H            3.602867210865    -0.863850733599    -0.221233672140     1.007825032230
         H            2.445892210865    -2.133543733599    -0.222943672140     1.007825032230

  Basis Set: AUG-CC-PVTZ
    Blend: AUG-CC-PVTZ
  Basis Set: (AUG-CC-PVTZ AUX)
    Blend: AUG-CC-PVTZ-JKFIT
	 Reference Energy          =    -503.7223344075225100 [Eh]
	 Singles Energy            =      -0.0000000000000000 [Eh]
	 Same-Spin Energy          =      -0.5494675307215169 [Eh]
	 Opposite-Spin Energy      =      -1.6335066635515827 [Eh]
	 Correlation Energy        =      -2.1829741942730996 [Eh]
	 Total Energy              =    -505.9053086017955820 [Eh]

	 ================> DF-SCS-MP2 Energies <==================
	-----------------------------------------------------------
	 SCS Same-Spin Scale       =       0.3333333333333333 [-]
	 SCS Opposite-Spin Scale   =       1.2000000000000000 [-]
	 SCS Same-Spin Energy      =      -0.1831558435738390 [Eh]
	 SCS Opposite-Spin Energy  =      -1.9602079962618992 [Eh]
	 SCS Correlation Energy    =      -2.1433638398357382 [Eh]
	 SCS Total Energy          =    -505.8656982473582389 [Eh]
	-----------------------------------------------------------

  Dipole Moment: [D]
     X:    -2.6956      Y:    -1.1343      Z:    -0.9207     Total:     3.0660

*** Psi4 exiting successfully. Buy a developer a beer!
