                               Psi4 1.3.2 release

  ==> Input File <==

--------------------------------------------------------------------------
#psi4
#
memory 32 gb

molecule  {
0 1
  N       -1.7893040    -0.1617730    -0.0001110
  N       -0.2713240    -1.8496560    -0.0082220
  N       -0.2672930     1.7497910     0.0010540
  N        2.0532340     1.0361840    -0.0078740
  N        2.7268170    -1.1967150     0.0786200
  C       -0.5487760     0.4359060     0.0048010
  C        0.3666280    -0.6257540     0.0082110
  C       -1.5569310    -1.5157420    -0.0063070
  C        1.7257650    -0.2653140     0.0014880
  C       -3.0654680     0.5328540     0.0028660
  C        1.0578830     1.9506280    -0.0091420
  H       -2.3786350    -2.2235800    -0.0126570
  H       -3.1454970     1.1693440    -0.8801020
  H       -3.8626160    -0.2117770    -0.0066990
  H       -3.1511970     1.1523310     0.8973960
  H        1.3829946     2.9896334     0.0870987
  H        3.6364610    -0.8630510    -0.2195510
  H        2.4794860    -2.1327440    -0.2212610
units angstrom
no_reorient  #important for SAPT in psi4, default
symmetry c1  #important for SAPT in psi4, default
}

set PROPERTIES_ORIGIN ["COM"]
properties('MP2/aug-cc-pvtz', properties = ['dipole'])
--------------------------------------------------------------------------

    Molecular point group: c1
  Charge       = 0
  Multiplicity = 1
  Basis Set: AUG-CC-PVTZ
    Blend: AUG-CC-PVTZ
  Basis Set: (AUG-CC-PVTZ AUX)
    Blend: AUG-CC-PVTZ-JKFIT

    Orbital Energies [Eh]
    ---------------------

    Doubly Occupied:

       1A    -15.633114     2A    -15.581007     3A    -15.567390
       4A    -15.560766     5A    -15.552437     6A    -11.334570
       7A    -11.322575     8A    -11.313059     9A    -11.312037
      10A    -11.288751    11A    -11.251955    12A     -1.367829
      13A     -1.296206    14A     -1.242286    15A     -1.196880
      16A     -1.151941    17A     -1.031329    18A     -0.986079
      19A     -0.890643    20A     -0.871834    21A     -0.802791
      22A     -0.753502    23A     -0.723853    24A     -0.680563
      25A     -0.673344    26A     -0.666316    27A     -0.624325
      28A     -0.606528    29A     -0.594919    30A     -0.593026
      31A     -0.571645    32A     -0.536979    33A     -0.496646
      34A     -0.491061    35A     -0.450479    36A     -0.414309
      37A     -0.408541    38A     -0.368387    39A     -0.307783

  @DF-RHF Final Energy:  -503.72410747654703

   => Energetics <=

    Nuclear Repulsion Energy =            594.3088283309360804
    One-Electron Energy =               -1863.0304960483381365
    Two-Electron Energy =                 764.9975602408549094
    Total Energy =                       -503.7241074765470330
  Basis Set: (AUG-CC-PVTZ AUX)
    Blend: AUG-CC-PVTZ-RI
    Molecular point group: c1

    Geometry (in Angstrom), charge = 0, multiplicity = 1:

       Center              X                  Y                   Z               Mass
    ------------   -----------------  -----------------  -----------------  -----------------
         N           -1.822899835612    -0.162567866540    -0.003821856012    14.003074004430
         N           -0.304919835612    -1.850450866540    -0.011932856012    14.003074004430
         N           -0.300888835612     1.748996133460    -0.002656856012    14.003074004430
         N            2.019638164388     1.035389133460    -0.011584856012    14.003074004430
         N            2.693221164388    -1.197509866540     0.074909143988    14.003074004430
         C           -0.582371835612     0.435111133460     0.001090143988    12.000000000000
         C            0.333032164388    -0.626548866540     0.004500143988    12.000000000000
         C           -1.590526835612    -1.516536866540    -0.010017856012    12.000000000000
         C            1.692169164388    -0.266108866540    -0.002222856012    12.000000000000
         C           -3.099063835612     0.532059133460    -0.000844856012    12.000000000000
         C            1.024287164388     1.949833133460    -0.012852856012    12.000000000000
         H           -2.412230835612    -2.224374866540    -0.016367856012     1.007825032230
         H           -3.179092835612     1.168549133460    -0.883812856012     1.007825032230
         H           -3.896211835612    -0.212571866540    -0.010409856012     1.007825032230
         H           -3.184792835612     1.151536133460     0.893685143988     1.007825032230
         H            1.349398764388     2.988838533460     0.083387843988     1.007825032230
         H            3.602865164388    -0.863845866540    -0.223261856012     1.007825032230
         H            2.445890164388    -2.133538866540    -0.224971856012     1.007825032230

  Basis Set: AUG-CC-PVTZ
    Blend: AUG-CC-PVTZ
  Basis Set: (AUG-CC-PVTZ AUX)
    Blend: AUG-CC-PVTZ-JKFIT
	 Reference Energy          =    -503.7241074765470330 [Eh]
	 Singles Energy            =      -0.0000000000000000 [Eh]
	 Same-Spin Energy          =      -0.5493237602283487 [Eh]
	 Opposite-Spin Energy      =      -1.6332083974494074 [Eh]
	 Correlation Energy        =      -2.1825321576777563 [Eh]
	 Total Energy              =    -505.9066396342248026 [Eh]

	 ================> DF-SCS-MP2 Energies <==================
	-----------------------------------------------------------
	 SCS Same-Spin Scale       =       0.3333333333333333 [-]
	 SCS Opposite-Spin Scale   =       1.2000000000000000 [-]
	 SCS Same-Spin Energy      =      -0.1831079200761162 [Eh]
	 SCS Opposite-Spin Energy  =      -1.9598500769392888 [Eh]
	 SCS Correlation Energy    =      -2.1429579970154049 [Eh]
	 SCS Total Energy          =    -505.8670654735624339 [Eh]
	-----------------------------------------------------------

  Dipole Moment: [D]
     X:    -2.7375      Y:    -1.1667      Z:    -0.7412     Total:     3.0666

*** Psi4 exiting successfully. Buy a developer a beer!
