                               Psi4 1.3.2 release

  ==> Input File <==

--------------------------------------------------------------------------
#psi4
#
memory 32 gb

molecule  {
0 1
  N       -1.7893040    -0.1617730    -0.0001110
  N       -0.2713240    -1.8496560    -0.0082220
  N       -0.2672930     1.7497910     0.0010540
  N        2.0532340     1.0361840    -0.0078740
  N        2.7268170    -1.1967150     0.0786200
  C       -0.5487760     0.4359060     0.0048010
  C        0.3666280    -0.6257540     0.0082110
  C       -1.5569310    -1.5157420    -0.0063070
  C        1.7257650    -0.2653140     0.0014880
  C       -3.0654680     0.5328540     0.0028660
  C        1.0578830     1.9506280    -0.0091420
  H       -2.3786350    -2.2235800    -0.0126570
  H       -3.1454970     1.1693440    -0.8801020
  H       -3.8626160    -0.2117770    -0.0066990
  H       -3.1511970     1.1523310     0.8973960
  H        1.3824760     2.9891980    -0.0128990
  H        3.6364610    -0.8630510    -0.2195510
  H        2.4750344    -2.1286208    -0.2708915
units angstrom
no_reorient  #important for SAPT in psi4, default
symmetry c1  #important for SAPT in psi4, default
}

set PROPERTIES_ORIGIN ["COM"]
properties('MP2/aug-cc-pvtz', properties = ['dipole'])
--------------------------------------------------------------------------

    Molecular point group: c1
  Charge       = 0
  Multiplicity = 1
  Basis Set: AUG-CC-PVTZ
    Blend: AUG-CC-PVTZ
  Basis Set: (AUG-CC-PVTZ AUX)
    Blend: AUG-CC-PVTZ-JKFIT

    Orbital Energies [Eh]
    ---------------------

    Doubly Occupied:

       1A    -15.633225     2A    -15.581973     3A    -15.567415
       4A    -15.561069     5A    -15.552650     6A    -11.334339
       7A    -11.322701     8A    -11.313228     9A    -11.311689
      10A    -11.288848    11A    -11.252136    12A     -1.367957
      13A     -1.296238    14A     -1.242016    15A     -1.196768
      16A     -1.151578    17A     -1.031416    18A     -0.986155
      19A     -0.890514    20A     -0.872139    21A     -0.802459
      22A     -0.752469    23A     -0.724062    24A     -0.680353
      25A     -0.670705    26A     -0.666356    27A     -0.624544
      28A     -0.605588    29A     -0.596985    30A     -0.591343
      31A     -0.571805    32A     -0.536880    33A     -0.495934
      34A     -0.492769    35A     -0.450665    36A     -0.414694
      37A     -0.408735    38A     -0.368626    39A     -0.308196

  @DF-RHF Final Energy:  -503.72413538536199

   => Energetics <=

    Nuclear Repulsion Energy =            594.2850948411567060
    One-Electron Energy =               -1862.9840211699190604
    Two-Electron Energy =                 764.9747909434004214
    Total Energy =                       -503.7241353853619330
  Basis Set: (AUG-CC-PVTZ AUX)
    Blend: AUG-CC-PVTZ-RI
    Molecular point group: c1

    Geometry (in Angstrom), charge = 0, multiplicity = 1:

       Center              X                  Y                   Z               Mass
    ------------   -----------------  -----------------  -----------------  -----------------
         N           -1.822866233365    -0.162592798810    -0.002810258114    14.003074004430
         N           -0.304886233365    -1.850475798810    -0.010921258114    14.003074004430
         N           -0.300855233365     1.748971201190    -0.001645258114    14.003074004430
         N            2.019671766635     1.035364201190    -0.010573258114    14.003074004430
         N            2.693254766635    -1.197534798810     0.075920741886    14.003074004430
         C           -0.582338233365     0.435086201190     0.002101741886    12.000000000000
         C            0.333065766635    -0.626573798810     0.005511741886    12.000000000000
         C           -1.590493233365    -1.516561798810    -0.009006258114    12.000000000000
         C            1.692202766635    -0.266133798810    -0.001211258114    12.000000000000
         C           -3.099030233365     0.532034201190     0.000166741886    12.000000000000
         C            1.024320766635     1.949808201190    -0.011841258114    12.000000000000
         H           -2.412197233365    -2.224399798810    -0.015356258114     1.007825032230
         H           -3.179059233365     1.168524201190    -0.882801258114     1.007825032230
         H           -3.896178233365    -0.212596798810    -0.009398258114     1.007825032230
         H           -3.184759233365     1.151511201190     0.894696741886     1.007825032230
         H            1.348913766635     2.988378201190    -0.015598258114     1.007825032230
         H            3.602898766635    -0.863870798810    -0.222250258114     1.007825032230
         H            2.441472166635    -2.129440598810    -0.273590758114     1.007825032230

  Basis Set: AUG-CC-PVTZ
    Blend: AUG-CC-PVTZ
  Basis Set: (AUG-CC-PVTZ AUX)
    Blend: AUG-CC-PVTZ-JKFIT
	 Reference Energy          =    -503.7241353853619898 [Eh]
	 Singles Energy            =      -0.0000000000000000 [Eh]
	 Same-Spin Energy          =      -0.5493510719495860 [Eh]
	 Opposite-Spin Energy      =      -1.6333643326453293 [Eh]
	 Correlation Energy        =      -2.1827154045949153 [Eh]
	 Total Energy              =    -505.9068507899568772 [Eh]

	 ================> DF-SCS-MP2 Energies <==================
	-----------------------------------------------------------
	 SCS Same-Spin Scale       =       0.3333333333333333 [-]
	 SCS Opposite-Spin Scale   =       1.2000000000000000 [-]
	 SCS Same-Spin Energy      =      -0.1831170239831953 [Eh]
	 SCS Opposite-Spin Energy  =      -1.9600371991743950 [Eh]
	 SCS Correlation Energy    =      -2.1431542231575902 [Eh]
	 SCS Total Energy          =    -505.8672896085195703 [Eh]
	-----------------------------------------------------------

  Dipole Moment: [D]
     X:    -2.7638      Y:    -1.1223      Z:    -0.8485     Total:     3.1013

*** Psi4 exiting successfully. Buy a developer a beer!
