                               Psi4 1.3.2 release

  ==> Input File <==

--------------------------------------------------------------------------
#psi4
#
memory 32 gb

molecule  {
0 1
  N       -1.7893040    -0.1617730    -0.0001110
  N       -0.2713240    -1.8496560    -0.0082220
  N       -0.2672930     1.7497910     0.0010540
  N        2.0532340     1.0361840    -0.0078740
  N        2.7268170    -1.1967150     0.0786200
  C       -0.5487760     0.4359060     0.0048010
  C        0.3666280    -0.6257540     0.0082110
  C       -1.5569310    -1.5157420    -0.0063070
  C        1.7258118    -0.2644536    -0.1485095
  C       -3.0654680     0.5328540     0.0028660
  C        1.0578830     1.9506280    -0.0091420
  H       -2.3786350    -2.2235800    -0.0126570
  H       -3.1454970     1.1693440    -0.8801020
  H       -3.8626160    -0.2117770    -0.0066990
  H       -3.1511970     1.1523310     0.8973960
  H        1.3824760     2.9891980    -0.0128990
  H        3.6364610    -0.8630510    -0.2195510
  H        2.4794860    -2.1327440    -0.2212610
units angstrom
no_reorient  #important for SAPT in psi4, default
symmetry c1  #important for SAPT in psi4, default
}

set PROPERTIES_ORIGIN ["COM"]
properties('MP2/aug-cc-pvtz', properties = ['dipole'])
--------------------------------------------------------------------------

    Molecular point group: c1
  Charge       = 0
  Multiplicity = 1
  Basis Set: AUG-CC-PVTZ
    Blend: AUG-CC-PVTZ
  Basis Set: (AUG-CC-PVTZ AUX)
    Blend: AUG-CC-PVTZ-JKFIT

    Orbital Energies [Eh]
    ---------------------

    Doubly Occupied:

       1A    -15.633594     2A    -15.581133     3A    -15.567428
       4A    -15.562610     5A    -15.554568     6A    -11.335461
       7A    -11.323561     8A    -11.313427     9A    -11.311321
      10A    -11.289157    11A    -11.254166    12A     -1.368329
      13A     -1.294687    14A     -1.240688    15A     -1.196645
      16A     -1.150799    17A     -1.031025    18A     -0.986160
      19A     -0.890274    20A     -0.870642    21A     -0.801362
      22A     -0.752128    23A     -0.721078    24A     -0.679067
      25A     -0.671292    26A     -0.666126    27A     -0.622415
      28A     -0.605971    29A     -0.598437    30A     -0.586181
      31A     -0.572141    32A     -0.536379    33A     -0.496890
      34A     -0.492545    35A     -0.450813    36A     -0.413903
      37A     -0.410103    38A     -0.367413    39A     -0.308449

  @DF-RHF Final Energy:  -503.71344631893624

   => Energetics <=

    Nuclear Repulsion Energy =            593.9128437060049919
    One-Electron Energy =               -1862.2358458719138525
    Two-Electron Energy =                 764.6095558469725120
    Total Energy =                       -503.7134463189362350
  Basis Set: (AUG-CC-PVTZ AUX)
    Blend: AUG-CC-PVTZ-RI
    Molecular point group: c1

    Geometry (in Angstrom), charge = 0, multiplicity = 1:

       Center              X                  Y                   Z               Mass
    ------------   -----------------  -----------------  -----------------  -----------------
         N           -1.822900096845    -0.162634184266     0.008928853945    14.003074004430
         N           -0.304920096845    -1.850517184266     0.000817853945    14.003074004430
         N           -0.300889096845     1.748929815734     0.010093853945    14.003074004430
         N            2.019637903155     1.035322815734     0.001165853945    14.003074004430
         N            2.693220903155    -1.197576184266     0.087659853945    14.003074004430
         C           -0.582372096845     0.435044815734     0.013840853945    12.000000000000
         C            0.333031903155    -0.626615184266     0.017250853945    12.000000000000
         C           -1.590527096845    -1.516603184266     0.002732853945    12.000000000000
         C            1.692215703155    -0.265314784266    -0.139469646055    12.000000000000
         C           -3.099064096845     0.531992815734     0.011905853945    12.000000000000
         C            1.024286903155     1.949766815734    -0.000102146055    12.000000000000
         H           -2.412231096845    -2.224441184266    -0.003617146055     1.007825032230
         H           -3.179093096845     1.168482815734    -0.871062146055     1.007825032230
         H           -3.896212096845    -0.212638184266     0.002340853945     1.007825032230
         H           -3.184793096845     1.151469815734     0.906435853945     1.007825032230
         H            1.348879903155     2.988336815734    -0.003859146055     1.007825032230
         H            3.602864903155    -0.863912184266    -0.210511146055     1.007825032230
         H            2.445889903155    -2.133605184266    -0.212221146055     1.007825032230

  Basis Set: AUG-CC-PVTZ
    Blend: AUG-CC-PVTZ
  Basis Set: (AUG-CC-PVTZ AUX)
    Blend: AUG-CC-PVTZ-JKFIT
	 Reference Energy          =    -503.7134463189362350 [Eh]
	 Singles Energy            =      -0.0000000000000000 [Eh]
	 Same-Spin Energy          =      -0.5500697829365711 [Eh]
	 Opposite-Spin Energy      =      -1.6347966615152849 [Eh]
	 Correlation Energy        =      -2.1848664444518562 [Eh]
	 Total Energy              =    -505.8983127633881054 [Eh]

	 ================> DF-SCS-MP2 Energies <==================
	-----------------------------------------------------------
	 SCS Same-Spin Scale       =       0.3333333333333333 [-]
	 SCS Opposite-Spin Scale   =       1.2000000000000000 [-]
	 SCS Same-Spin Energy      =      -0.1833565943121903 [Eh]
	 SCS Opposite-Spin Energy  =      -1.9617559938183418 [Eh]
	 SCS Correlation Energy    =      -2.1451125881305320 [Eh]
	 SCS Total Energy          =    -505.8585589070667652 [Eh]
	-----------------------------------------------------------

  Dipole Moment: [D]
     X:    -2.8508      Y:    -1.0858      Z:    -0.8815     Total:     3.1754

*** Psi4 exiting successfully. Buy a developer a beer!
