                               Psi4 1.3.2 release

  ==> Input File <==

--------------------------------------------------------------------------
#psi4
#
memory 32 gb

molecule  {
0 1
  N       -1.7893040    -0.1617730    -0.0001110
  N       -0.2713240    -1.8496560    -0.0082220
  N       -0.2672930     1.7497910     0.0010540
  N        2.0532340     1.0361840    -0.0078740
  N        2.7268170    -1.1967150     0.0786200
  C       -0.5487760     0.4359060     0.0048010
  C        0.3732445    -0.6353701    -0.2915618
  C       -1.5569310    -1.5157420    -0.0063070
  C        1.7257650    -0.2653140     0.0014880
  C       -3.0654680     0.5328540     0.0028660
  C        1.0578830     1.9506280    -0.0091420
  H       -2.3786350    -2.2235800    -0.0126570
  H       -3.1454970     1.1693440    -0.8801020
  H       -3.8626160    -0.2117770    -0.0066990
  H       -3.1511970     1.1523310     0.8973960
  H        1.3824760     2.9891980    -0.0128990
  H        3.6364610    -0.8630510    -0.2195510
  H        2.4794860    -2.1327440    -0.2212610
units angstrom
no_reorient  #important for SAPT in psi4, default
symmetry c1  #important for SAPT in psi4, default
}

set PROPERTIES_ORIGIN ["COM"]
properties('MP2/aug-cc-pvtz', properties = ['dipole'])
--------------------------------------------------------------------------

    Molecular point group: c1
  Charge       = 0
  Multiplicity = 1
  Basis Set: AUG-CC-PVTZ
    Blend: AUG-CC-PVTZ
  Basis Set: (AUG-CC-PVTZ AUX)
    Blend: AUG-CC-PVTZ-JKFIT

    Orbital Energies [Eh]
    ---------------------

    Doubly Occupied:

       1A    -15.633945     2A    -15.581040     3A    -15.567148
       4A    -15.560817     5A    -15.551985     6A    -11.338646
       7A    -11.321842     8A    -11.321160     9A    -11.315862
      10A    -11.289243    11A    -11.256913    12A     -1.364635
      13A     -1.295912    14A     -1.241835    15A     -1.193072
      16A     -1.152592    17A     -1.025245    18A     -0.984820
      19A     -0.887717    20A     -0.871251    21A     -0.796346
      22A     -0.749764    23A     -0.722795    24A     -0.680584
      25A     -0.673473    26A     -0.664572    27A     -0.624258
      28A     -0.602607    29A     -0.596982    30A     -0.588203
      31A     -0.571379    32A     -0.530766    33A     -0.497545
      34A     -0.490350    35A     -0.447214    36A     -0.412352
      37A     -0.403674    38A     -0.368598    39A     -0.307017

  @DF-RHF Final Energy:  -503.69781445470949

   => Energetics <=

    Nuclear Repulsion Energy =            592.8580477457347797
    One-Electron Energy =               -1860.1434095434847222
    Two-Electron Energy =                 763.5875473430403417
    Total Energy =                       -503.6978144547094871
  Basis Set: (AUG-CC-PVTZ AUX)
    Blend: AUG-CC-PVTZ-RI
    Molecular point group: c1

    Geometry (in Angstrom), charge = 0, multiplicity = 1:

       Center              X                  Y                   Z               Mass
    ------------   -----------------  -----------------  -----------------  -----------------
         N           -1.823428951230    -0.161790836325     0.020985618208    14.003074004430
         N           -0.305448951230    -1.849673836325     0.012874618208    14.003074004430
         N           -0.301417951230     1.749773163675     0.022150618208    14.003074004430
         N            2.019109048770     1.036166163675     0.013222618208    14.003074004430
         N            2.692692048770    -1.196732836325     0.099716618208    14.003074004430
         C           -0.582900951230     0.435888163675     0.025897618208    12.000000000000
         C            0.339119548770    -0.635387936325    -0.270465181792    12.000000000000
         C           -1.591055951230    -1.515759836325     0.014789618208    12.000000000000
         C            1.691640048770    -0.265331836325     0.022584618208    12.000000000000
         C           -3.099592951230     0.532836163675     0.023962618208    12.000000000000
         C            1.023758048770     1.950610163675     0.011954618208    12.000000000000
         H           -2.412759951230    -2.223597836325     0.008439618208     1.007825032230
         H           -3.179621951230     1.169326163675    -0.859005381792     1.007825032230
         H           -3.896740951230    -0.211794836325     0.014397618208     1.007825032230
         H           -3.185321951230     1.152313163675     0.918492618208     1.007825032230
         H            1.348351048770     2.989180163675     0.008197618208     1.007825032230
         H            3.602336048770    -0.863068836325    -0.198454381792     1.007825032230
         H            2.445361048770    -2.132761836325    -0.200164381792     1.007825032230

  Basis Set: AUG-CC-PVTZ
    Blend: AUG-CC-PVTZ
  Basis Set: (AUG-CC-PVTZ AUX)
    Blend: AUG-CC-PVTZ-JKFIT
	 Reference Energy          =    -503.6978144547094871 [Eh]
	 Singles Energy            =      -0.0000000000000000 [Eh]
	 Same-Spin Energy          =      -0.5496785539922243 [Eh]
	 Opposite-Spin Energy      =      -1.6347679296144304 [Eh]
	 Correlation Energy        =      -2.1844464836066546 [Eh]
	 Total Energy              =    -505.8822609383161648 [Eh]

	 ================> DF-SCS-MP2 Energies <==================
	-----------------------------------------------------------
	 SCS Same-Spin Scale       =       0.3333333333333333 [-]
	 SCS Opposite-Spin Scale   =       1.2000000000000000 [-]
	 SCS Same-Spin Energy      =      -0.1832261846640748 [Eh]
	 SCS Opposite-Spin Energy  =      -1.9617215155373164 [Eh]
	 SCS Correlation Energy    =      -2.1449477002013912 [Eh]
	 SCS Total Energy          =    -505.8427621549108721 [Eh]
	-----------------------------------------------------------

  Dipole Moment: [D]
     X:    -2.7352      Y:    -1.0875      Z:    -0.8800     Total:     3.0722

*** Psi4 exiting successfully. Buy a developer a beer!
