                               Psi4 1.3.2 release

  ==> Input File <==

--------------------------------------------------------------------------
#psi4
#
memory 32 gb

molecule  {
0 1
  N       -1.7893040    -0.1617730    -0.0001110
  N       -0.2713240    -1.8496560    -0.0082220
  N       -0.2672930     1.7497910     0.0010540
  N        2.0532340     1.0361840    -0.0078740
  N        2.7268170    -1.1967150     0.0786200
  C       -0.5487760     0.4359060     0.0048010
  C        0.3688335    -0.6289594    -0.0917133
  C       -1.5569310    -1.5157420    -0.0063070
  C        1.7257650    -0.2653140     0.0014880
  C       -3.0654680     0.5328540     0.0028660
  C        1.0578830     1.9506280    -0.0091420
  H       -2.3786350    -2.2235800    -0.0126570
  H       -3.1454970     1.1693440    -0.8801020
  H       -3.8626160    -0.2117770    -0.0066990
  H       -3.1511970     1.1523310     0.8973960
  H        1.3824760     2.9891980    -0.0128990
  H        3.6364610    -0.8630510    -0.2195510
  H        2.4794860    -2.1327440    -0.2212610
units angstrom
no_reorient  #important for SAPT in psi4, default
symmetry c1  #important for SAPT in psi4, default
}

set PROPERTIES_ORIGIN ["COM"]
properties('MP2/aug-cc-pvtz', properties = ['dipole'])
--------------------------------------------------------------------------

    Molecular point group: c1
  Charge       = 0
  Multiplicity = 1
  Basis Set: AUG-CC-PVTZ
    Blend: AUG-CC-PVTZ
  Basis Set: (AUG-CC-PVTZ AUX)
    Blend: AUG-CC-PVTZ-JKFIT

    Orbital Energies [Eh]
    ---------------------

    Doubly Occupied:

       1A    -15.633422     2A    -15.580657     3A    -15.567416
       4A    -15.560772     5A    -15.552306     6A    -11.334871
       7A    -11.322532     8A    -11.314334     9A    -11.312029
      10A    -11.288904    11A    -11.252639    12A     -1.367521
      13A     -1.296113    14A     -1.242258    15A     -1.196795
      16A     -1.151925    17A     -1.030507    18A     -0.986153
      19A     -0.890444    20A     -0.872205    21A     -0.801778
      22A     -0.753106    23A     -0.724196    24A     -0.680831
      25A     -0.673183    26A     -0.666355    27A     -0.624875
      28A     -0.606154    29A     -0.597243    30A     -0.590908
      31A     -0.571877    32A     -0.535804    33A     -0.495945
      34A     -0.492379    35A     -0.450209    36A     -0.413130
      37A     -0.408997    38A     -0.368394    39A     -0.307496

  @DF-RHF Final Energy:  -503.72214573555681

   => Energetics <=

    Nuclear Repulsion Energy =            594.1550920099889481
    One-Electron Energy =               -1862.7211481862241271
    Two-Electron Energy =                 764.8439104406784281
    Total Energy =                       -503.7221457355567509
  Basis Set: (AUG-CC-PVTZ AUX)
    Blend: AUG-CC-PVTZ-RI
    Molecular point group: c1

    Geometry (in Angstrom), charge = 0, multiplicity = 1:

       Center              X                  Y                   Z               Mass
    ------------   -----------------  -----------------  -----------------  -----------------
         N           -1.823073870071    -0.162306891367     0.004898010619    14.003074004430
         N           -0.305093870071    -1.850189891367    -0.003212989381    14.003074004430
         N           -0.301062870071     1.749257108633     0.006063010619    14.003074004430
         N            2.019464129929     1.035650108633    -0.002864989381    14.003074004430
         N            2.693047129929    -1.197248891367     0.083629010619    14.003074004430
         C           -0.582545870071     0.435372108633     0.009810010619    12.000000000000
         C            0.335063629929    -0.629493291367    -0.086704289381    12.000000000000
         C           -1.590700870071    -1.516275891367    -0.001297989381    12.000000000000
         C            1.691995129929    -0.265847891367     0.006497010619    12.000000000000
         C           -3.099237870071     0.532320108633     0.007875010619    12.000000000000
         C            1.024113129929     1.950094108633    -0.004132989381    12.000000000000
         H           -2.412404870071    -2.224113891367    -0.007647989381     1.007825032230
         H           -3.179266870071     1.168810108633    -0.875092989381     1.007825032230
         H           -3.896385870071    -0.212310891367    -0.001689989381     1.007825032230
         H           -3.184966870071     1.151797108633     0.902405010619     1.007825032230
         H            1.348706129929     2.988664108633    -0.007889989381     1.007825032230
         H            3.602691129929    -0.863584891367    -0.214541989381     1.007825032230
         H            2.445716129929    -2.133277891367    -0.216251989381     1.007825032230

  Basis Set: AUG-CC-PVTZ
    Blend: AUG-CC-PVTZ
  Basis Set: (AUG-CC-PVTZ AUX)
    Blend: AUG-CC-PVTZ-JKFIT
	 Reference Energy          =    -503.7221457355568077 [Eh]
	 Singles Energy            =      -0.0000000000000000 [Eh]
	 Same-Spin Energy          =      -0.5493417663994875 [Eh]
	 Opposite-Spin Energy      =      -1.6330442034842654 [Eh]
	 Correlation Energy        =      -2.1823859698837529 [Eh]
	 Total Energy              =    -505.9045317054405473 [Eh]

	 ================> DF-SCS-MP2 Energies <==================
	-----------------------------------------------------------
	 SCS Same-Spin Scale       =       0.3333333333333333 [-]
	 SCS Opposite-Spin Scale   =       1.2000000000000000 [-]
	 SCS Same-Spin Energy      =      -0.1831139221331625 [Eh]
	 SCS Opposite-Spin Energy  =      -1.9596530441811184 [Eh]
	 SCS Correlation Energy    =      -2.1427669663142810 [Eh]
	 SCS Total Energy          =    -505.8649127018711056 [Eh]
	-----------------------------------------------------------

  Dipole Moment: [D]
     X:    -2.7479      Y:    -1.1493      Z:    -0.8268     Total:     3.0912

*** Psi4 exiting successfully. Buy a developer a beer!
