                               Psi4 1.3.2 release

  ==> Input File <==

--------------------------------------------------------------------------
#psi4
#
memory 32 gb

molecule  {
0 1
  N       -1.7893040    -0.1617730    -0.0001110
  N       -0.2713240    -1.8496560    -0.0082220
  N       -0.2672930     1.7497910     0.0010540
  N        2.0532340     1.0361840    -0.0078740
  N        2.7268170    -1.1967150     0.0786200
  C       -0.5487760     0.4359060     0.0048010
  C        0.3710390    -0.6321647    -0.1916376
  C       -1.5569310    -1.5157420    -0.0063070
  C        1.7257650    -0.2653140     0.0014880
  C       -3.0654680     0.5328540     0.0028660
  C        1.0578830     1.9506280    -0.0091420
  H       -2.3786350    -2.2235800    -0.0126570
  H       -3.1454970     1.1693440    -0.8801020
  H       -3.8626160    -0.2117770    -0.0066990
  H       -3.1511970     1.1523310     0.8973960
  H        1.3824760     2.9891980    -0.0128990
  H        3.6364610    -0.8630510    -0.2195510
  H        2.4794860    -2.1327440    -0.2212610
units angstrom
no_reorient  #important for SAPT in psi4, default
symmetry c1  #important for SAPT in psi4, default
}

set PROPERTIES_ORIGIN ["COM"]
properties('MP2/aug-cc-pvtz', properties = ['dipole'])
--------------------------------------------------------------------------

    Molecular point group: c1
  Charge       = 0
  Multiplicity = 1
  Basis Set: AUG-CC-PVTZ
    Blend: AUG-CC-PVTZ
  Basis Set: (AUG-CC-PVTZ AUX)
    Blend: AUG-CC-PVTZ-JKFIT

    Orbital Energies [Eh]
    ---------------------

    Doubly Occupied:

       1A    -15.633707     2A    -15.580648     3A    -15.567409
       4A    -15.560789     5A    -15.552155     6A    -11.336288
       7A    -11.322290     8A    -11.317110     9A    -11.313438
      10A    -11.289075    11A    -11.254380    12A     -1.366437
      13A     -1.296002    14A     -1.242085    15A     -1.195557
      16A     -1.152149    17A     -1.028433    18A     -0.985733
      19A     -0.889332    20A     -0.871974    21A     -0.799487
      22A     -0.751861    23A     -0.723741    24A     -0.680754
      25A     -0.673372    26A     -0.665647    27A     -0.624748
      28A     -0.604844    29A     -0.597335    30A     -0.589835
      31A     -0.571756    32A     -0.533764    33A     -0.496782
      34A     -0.491440    35A     -0.449108    36A     -0.412675
      37A     -0.407187    38A     -0.368440    39A     -0.307193

  @DF-RHF Final Energy:  -503.71312108852271

   => Energetics <=

    Nuclear Repulsion Energy =            593.6595506282581027
    One-Electron Energy =               -1861.7354205855624514
    Two-Electron Energy =                 764.3627488687816367
    Total Energy =                       -503.7131210885227119
  Basis Set: (AUG-CC-PVTZ AUX)
    Blend: AUG-CC-PVTZ-RI
    Molecular point group: c1

    Geometry (in Angstrom), charge = 0, multiplicity = 1:

       Center              X                  Y                   Z               Mass
    ------------   -----------------  -----------------  -----------------  -----------------
         N           -1.823251410650    -0.162048867871     0.012941818439    14.003074004430
         N           -0.305271410650    -1.849931867871     0.004830818439    14.003074004430
         N           -0.301240410650     1.749515132129     0.014106818439    14.003074004430
         N            2.019286589350     1.035908132129     0.005178818439    14.003074004430
         N            2.692869589350    -1.196990867871     0.091672818439    14.003074004430
         C           -0.582723410650     0.435630132129     0.017853818439    12.000000000000
         C            0.337091589350    -0.632440567871    -0.178584781561    12.000000000000
         C           -1.590878410650    -1.516017867871     0.006745818439    12.000000000000
         C            1.691817589350    -0.265589867871     0.014540818439    12.000000000000
         C           -3.099415410650     0.532578132129     0.015918818439    12.000000000000
         C            1.023935589350     1.950352132129     0.003910818439    12.000000000000
         H           -2.412582410650    -2.223855867871     0.000395818439     1.007825032230
         H           -3.179444410650     1.169068132129    -0.867049181561     1.007825032230
         H           -3.896563410650    -0.212052867871     0.006353818439     1.007825032230
         H           -3.185144410650     1.152055132129     0.910448818439     1.007825032230
         H            1.348528589350     2.988922132129     0.000153818439     1.007825032230
         H            3.602513589350    -0.863326867871    -0.206498181561     1.007825032230
         H            2.445538589350    -2.133019867871    -0.208208181561     1.007825032230

  Basis Set: AUG-CC-PVTZ
    Blend: AUG-CC-PVTZ
  Basis Set: (AUG-CC-PVTZ AUX)
    Blend: AUG-CC-PVTZ-JKFIT
	 Reference Energy          =    -503.7131210885227119 [Eh]
	 Singles Energy            =      -0.0000000000000000 [Eh]
	 Same-Spin Energy          =      -0.5494880192542373 [Eh]
	 Opposite-Spin Energy      =      -1.6335415787660346 [Eh]
	 Correlation Energy        =      -2.1830295980202719 [Eh]
	 Total Energy              =    -505.8961506865429669 [Eh]

	 ================> DF-SCS-MP2 Energies <==================
	-----------------------------------------------------------
	 SCS Same-Spin Scale       =       0.3333333333333333 [-]
	 SCS Opposite-Spin Scale   =       1.2000000000000000 [-]
	 SCS Same-Spin Energy      =      -0.1831626730847458 [Eh]
	 SCS Opposite-Spin Energy  =      -1.9602498945192415 [Eh]
	 SCS Correlation Energy    =      -2.1434125676039875 [Eh]
	 SCS Total Energy          =    -505.8565336561267145 [Eh]
	-----------------------------------------------------------

  Dipole Moment: [D]
     X:    -2.7488      Y:    -1.1261      Z:    -0.8588     Total:     3.0922

*** Psi4 exiting successfully. Buy a developer a beer!
