                               Psi4 1.3.2 release

  ==> Input File <==

--------------------------------------------------------------------------
#psi4
#
memory 32 gb

molecule  {
0 1
  N       -1.7893040    -0.1617730    -0.0001110
  N       -0.2713240    -1.8496560    -0.0082220
  N       -0.2672930     1.7497910     0.0010540
  N        2.0532340     1.0361840    -0.0078740
  N        2.7268170    -1.1967150     0.0786200
  C       -0.5487760     0.4359060     0.0048010
  C        0.3666280    -0.6257540     0.0082110
  C       -1.5569310    -1.5157420    -0.0063070
  C        1.7257650    -0.2653140     0.0014880
  C       -3.0654680     0.5328540     0.0028660
  C        1.0578830     1.9506280    -0.0091420
  H       -2.3786350    -2.2235800    -0.0126570
  H       -3.1454970     1.1693440    -0.8801020
  H       -3.8626160    -0.2117770    -0.0066990
  H       -3.1511970     1.1523310     0.8973960
  H        1.3824760     2.9891980    -0.0128990
  H        3.6364610    -0.8630510    -0.2195510
  H        2.4705828    -2.1244975    -0.3205219
units angstrom
no_reorient  #important for SAPT in psi4, default
symmetry c1  #important for SAPT in psi4, default
}

set PROPERTIES_ORIGIN ["COM"]
properties('MP2/aug-cc-pvtz', properties = ['dipole'])
--------------------------------------------------------------------------

    Molecular point group: c1
  Charge       = 0
  Multiplicity = 1
  Basis Set: AUG-CC-PVTZ
    Blend: AUG-CC-PVTZ
  Basis Set: (AUG-CC-PVTZ AUX)
    Blend: AUG-CC-PVTZ-JKFIT

    Orbital Energies [Eh]
    ---------------------

    Doubly Occupied:

       1A    -15.633368     2A    -15.583102     3A    -15.567472
       4A    -15.561447     5A    -15.552929     6A    -11.334146
       7A    -11.322874     8A    -11.313433     9A    -11.311792
      10A    -11.288967    11A    -11.252388    12A     -1.368122
      13A     -1.296279    14A     -1.241695    15A     -1.196652
      16A     -1.151169    17A     -1.031438    18A     -0.986253
      19A     -0.890260    20A     -0.872171    21A     -0.802099
      22A     -0.751433    23A     -0.723997    24A     -0.680232
      25A     -0.668309    26A     -0.665660    27A     -0.624416
      28A     -0.604638    29A     -0.597188    30A     -0.591181
      31A     -0.571753    32A     -0.536913    33A     -0.496264
      34A     -0.492865    35A     -0.450807    36A     -0.415166
      37A     -0.408907    38A     -0.368859    39A     -0.308616

  @DF-RHF Final Energy:  -503.72289441020814

   => Energetics <=

    Nuclear Repulsion Energy =            594.2326180191164440
    One-Electron Energy =               -1862.8804992702162053
    Two-Electron Energy =                 764.9249868408916200
    Total Energy =                       -503.7228944102081414
  Basis Set: (AUG-CC-PVTZ AUX)
    Blend: AUG-CC-PVTZ-RI
    Molecular point group: c1

    Geometry (in Angstrom), charge = 0, multiplicity = 1:

       Center              X                  Y                   Z               Mass
    ------------   -----------------  -----------------  -----------------  -----------------
         N           -1.822836137238    -0.162620675385    -0.002474719705    14.003074004430
         N           -0.304856137238    -1.850503675385    -0.010585719705    14.003074004430
         N           -0.300825137238     1.748943324615    -0.001309719705    14.003074004430
         N            2.019701862762     1.035336324615    -0.010237719705    14.003074004430
         N            2.693284862762    -1.197562675385     0.076256280295    14.003074004430
         C           -0.582308137238     0.435058324615     0.002437280295    12.000000000000
         C            0.333095862762    -0.626601675385     0.005847280295    12.000000000000
         C           -1.590463137238    -1.516589675385    -0.008670719705    12.000000000000
         C            1.692232862762    -0.266161675385    -0.000875719705    12.000000000000
         C           -3.099000137238     0.532006324615     0.000502280295    12.000000000000
         C            1.024350862762     1.949780324615    -0.011505719705    12.000000000000
         H           -2.412167137238    -2.224427675385    -0.015020719705     1.007825032230
         H           -3.179029137238     1.168496324615    -0.882465719705     1.007825032230
         H           -3.896148137238    -0.212624675385    -0.009062719705     1.007825032230
         H           -3.184729137238     1.151483324615     0.895032280295     1.007825032230
         H            1.348943862762     2.988350324615    -0.015262719705     1.007825032230
         H            3.602928862762    -0.863898675385    -0.221914719705     1.007825032230
         H            2.437050662762    -2.125345175385    -0.322885619705     1.007825032230

  Basis Set: AUG-CC-PVTZ
    Blend: AUG-CC-PVTZ
  Basis Set: (AUG-CC-PVTZ AUX)
    Blend: AUG-CC-PVTZ-JKFIT
	 Reference Energy          =    -503.7228944102081414 [Eh]
	 Singles Energy            =      -0.0000000000000000 [Eh]
	 Same-Spin Energy          =      -0.5494490407094084 [Eh]
	 Opposite-Spin Energy      =      -1.6336541566322542 [Eh]
	 Correlation Energy        =      -2.1831031973416626 [Eh]
	 Total Energy              =    -505.9059976075498071 [Eh]

	 ================> DF-SCS-MP2 Energies <==================
	-----------------------------------------------------------
	 SCS Same-Spin Scale       =       0.3333333333333333 [-]
	 SCS Opposite-Spin Scale   =       1.2000000000000000 [-]
	 SCS Same-Spin Energy      =      -0.1831496802364694 [Eh]
	 SCS Opposite-Spin Energy  =      -1.9603849879587050 [Eh]
	 SCS Correlation Energy    =      -2.1435346681951746 [Eh]
	 SCS Total Energy          =    -505.8664290784033142 [Eh]
	-----------------------------------------------------------

  Dipole Moment: [D]
     X:    -2.7942      Y:    -1.0848      Z:    -0.9056     Total:     3.1312

*** Psi4 exiting successfully. Buy a developer a beer!
