                               Psi4 1.3.2 release

  ==> Input File <==

--------------------------------------------------------------------------
#psi4
#
memory 32 gb

molecule  {
0 1
  N       -1.7893040    -0.1617730    -0.0001110
  N       -0.2713240    -1.8496560    -0.0082220
  N       -0.2672930     1.7497910     0.0010540
  N        2.0532340     1.0361840    -0.0078740
  N        2.7268170    -1.1967150     0.0786200
  C       -0.5487760     0.4359060     0.0048010
  C        0.3666280    -0.6257540     0.0082110
  C       -1.5569310    -1.5157420    -0.0063070
  C        1.7257650    -0.2653140     0.0014880
  C       -3.0653711     0.5333731    -0.0971326
  C        1.0578830     1.9506280    -0.0091420
  H       -2.3786350    -2.2235800    -0.0126570
  H       -3.1454970     1.1693440    -0.8801020
  H       -3.8626160    -0.2117770    -0.0066990
  H       -3.1511970     1.1523310     0.8973960
  H        1.3824760     2.9891980    -0.0128990
  H        3.6364610    -0.8630510    -0.2195510
  H        2.4794860    -2.1327440    -0.2212610
units angstrom
no_reorient  #important for SAPT in psi4, default
symmetry c1  #important for SAPT in psi4, default
}

set PROPERTIES_ORIGIN ["COM"]
properties('MP2/aug-cc-pvtz', properties = ['dipole'])
--------------------------------------------------------------------------

    Molecular point group: c1
  Charge       = 0
  Multiplicity = 1
  Basis Set: AUG-CC-PVTZ
    Blend: AUG-CC-PVTZ
  Basis Set: (AUG-CC-PVTZ AUX)
    Blend: AUG-CC-PVTZ-JKFIT

    Orbital Energies [Eh]
    ---------------------

    Doubly Occupied:

       1A    -15.633576     2A    -15.581094     3A    -15.567569
       4A    -15.560781     5A    -15.552470     6A    -11.334615
       7A    -11.322645     8A    -11.313097     9A    -11.311662
      10A    -11.290198    11A    -11.252002    12A     -1.367798
      13A     -1.296234    14A     -1.242345    15A     -1.196692
      16A     -1.151951    17A     -1.031474    18A     -0.987181
      19A     -0.890944    20A     -0.872283    21A     -0.803299
      22A     -0.754113    23A     -0.726025    24A     -0.681001
      25A     -0.676238    26A     -0.665644    27A     -0.624999
      28A     -0.614310    29A     -0.600363    30A     -0.583159
      31A     -0.568002    32A     -0.532301    33A     -0.495732
      34A     -0.492275    35A     -0.450631    36A     -0.413555
      37A     -0.408766    38A     -0.368226    39A     -0.307892

  @DF-RHF Final Energy:  -503.71382789570259

   => Energetics <=

    Nuclear Repulsion Energy =            594.2814964469652068
    One-Electron Energy =               -1862.9443696035791618
    Two-Electron Energy =                 764.9490452609112481
    Total Energy =                       -503.7138278957025932
  Basis Set: (AUG-CC-PVTZ AUX)
    Blend: AUG-CC-PVTZ-RI
    Molecular point group: c1

    Geometry (in Angstrom), charge = 0, multiplicity = 1:

       Center              X                  Y                   Z               Mass
    ------------   -----------------  -----------------  -----------------  -----------------
         N           -1.822904129845    -0.162606709952     0.004903991696    14.003074004430
         N           -0.304924129845    -1.850489709952    -0.003207008304    14.003074004430
         N           -0.300893129845     1.748957290048     0.006068991696    14.003074004430
         N            2.019633870155     1.035350290048    -0.002859008304    14.003074004430
         N            2.693216870155    -1.197548709952     0.083634991696    14.003074004430
         C           -0.582376129845     0.435072290048     0.009815991696    12.000000000000
         C            0.333027870155    -0.626587709952     0.013225991696    12.000000000000
         C           -1.590531129845    -1.516575709952    -0.001292008304    12.000000000000
         C            1.692164870155    -0.266147709952     0.006502991696    12.000000000000
         C           -3.098971229845     0.532539390048    -0.092117608304    12.000000000000
         C            1.024282870155     1.949794290048    -0.004127008304    12.000000000000
         H           -2.412235129845    -2.224413709952    -0.007642008304     1.007825032230
         H           -3.179097129845     1.168510290048    -0.875087008304     1.007825032230
         H           -3.896216129845    -0.212610709952    -0.001684008304     1.007825032230
         H           -3.184797129845     1.151497290048     0.902410991696     1.007825032230
         H            1.348875870155     2.988364290048    -0.007884008304     1.007825032230
         H            3.602860870155    -0.863884709952    -0.214536008304     1.007825032230
         H            2.445885870155    -2.133577709952    -0.216246008304     1.007825032230

  Basis Set: AUG-CC-PVTZ
    Blend: AUG-CC-PVTZ
  Basis Set: (AUG-CC-PVTZ AUX)
    Blend: AUG-CC-PVTZ-JKFIT
	 Reference Energy          =    -503.7138278957025932 [Eh]
	 Singles Energy            =      -0.0000000000000000 [Eh]
	 Same-Spin Energy          =      -0.5494153567842158 [Eh]
	 Opposite-Spin Energy      =      -1.6335831747406413 [Eh]
	 Correlation Energy        =      -2.1829985315248570 [Eh]
	 Total Energy              =    -505.8968264272274382 [Eh]

	 ================> DF-SCS-MP2 Energies <==================
	-----------------------------------------------------------
	 SCS Same-Spin Scale       =       0.3333333333333333 [-]
	 SCS Opposite-Spin Scale   =       1.2000000000000000 [-]
	 SCS Same-Spin Energy      =      -0.1831384522614053 [Eh]
	 SCS Opposite-Spin Energy  =      -1.9602998096887694 [Eh]
	 SCS Correlation Energy    =      -2.1434382619501746 [Eh]
	 SCS Total Energy          =    -505.8572661576527594 [Eh]
	-----------------------------------------------------------

  Dipole Moment: [D]
     X:    -2.7179      Y:    -1.1700      Z:    -0.8855     Total:     3.0887

*** Psi4 exiting successfully. Buy a developer a beer!
