                               Psi4 1.3.2 release

  ==> Input File <==

--------------------------------------------------------------------------
#psi4
#
memory 32 gb

molecule  {
0 1
  N       -1.7893040    -0.1617730    -0.0001110
  N       -0.2713240    -1.8496560    -0.0082220
  N       -0.2672930     1.7497910     0.0010540
  N        2.0532340     1.0361840    -0.0078740
  N        2.7268170    -1.1967150     0.0786200
  C       -0.5487760     0.4359060     0.0048010
  C        0.3666280    -0.6257540     0.0082110
  C       -1.5569310    -1.5157420    -0.0063070
  C        1.7257650    -0.2653140     0.0014880
  C       -3.0654680     0.5328540     0.0028660
  C        1.0578830     1.9506280    -0.0091420
  H       -2.3786350    -2.2235800    -0.0126570
  H       -3.1454970     1.1693440    -0.8801020
  H       -3.8626160    -0.2117770    -0.0066990
  H       -3.1511970     1.1523310     0.8973960
  H        1.3837726     2.9902865     0.2370953
  H        3.6364610    -0.8630510    -0.2195510
  H        2.4794860    -2.1327440    -0.2212610
units angstrom
no_reorient  #important for SAPT in psi4, default
symmetry c1  #important for SAPT in psi4, default
}

set PROPERTIES_ORIGIN ["COM"]
properties('MP2/aug-cc-pvtz', properties = ['dipole'])
--------------------------------------------------------------------------

    Molecular point group: c1
  Charge       = 0
  Multiplicity = 1
  Basis Set: AUG-CC-PVTZ
    Blend: AUG-CC-PVTZ
  Basis Set: (AUG-CC-PVTZ AUX)
    Blend: AUG-CC-PVTZ-JKFIT

    Orbital Energies [Eh]
    ---------------------

    Doubly Occupied:

       1A    -15.633295     2A    -15.581078     3A    -15.567600
       4A    -15.561098     5A    -15.552710     6A    -11.334785
       7A    -11.322823     8A    -11.314352     9A    -11.313305
      10A    -11.288874    11A    -11.252292    12A     -1.368042
      13A     -1.296350    14A     -1.242426    15A     -1.197063
      16A     -1.152145    17A     -1.031124    18A     -0.986225
      19A     -0.890248    20A     -0.870556    21A     -0.802750
      22A     -0.753616    23A     -0.722497    24A     -0.680408
      25A     -0.673169    26A     -0.666294    27A     -0.623691
      28A     -0.606748    29A     -0.594945    30A     -0.591498
      31A     -0.570812    32A     -0.537221    33A     -0.499023
      34A     -0.487121    35A     -0.450006    36A     -0.414520
      37A     -0.408625    38A     -0.368435    39A     -0.307757

  @DF-RHF Final Energy:  -503.72006180365901

   => Energetics <=

    Nuclear Repulsion Energy =            594.2129868368739380
    One-Electron Energy =               -1862.8350438777256386
    Two-Electron Energy =                 764.9019952371927502
    Total Energy =                       -503.7200618036590640
  Basis Set: (AUG-CC-PVTZ AUX)
    Blend: AUG-CC-PVTZ-RI
    Molecular point group: c1

    Geometry (in Angstrom), charge = 0, multiplicity = 1:

       Center              X                  Y                   Z               Mass
    ------------   -----------------  -----------------  -----------------  -----------------
         N           -1.822905095471    -0.162572281982    -0.004835944567    14.003074004430
         N           -0.304925095471    -1.850455281982    -0.012946944567    14.003074004430
         N           -0.300894095471     1.748991718018    -0.003670944567    14.003074004430
         N            2.019632904529     1.035384718018    -0.012598944567    14.003074004430
         N            2.693215904529    -1.197514281982     0.073895055433    14.003074004430
         C           -0.582377095471     0.435106718018     0.000076055433    12.000000000000
         C            0.333026904529    -0.626553281982     0.003486055433    12.000000000000
         C           -1.590532095471    -1.516541281982    -0.011031944567    12.000000000000
         C            1.692163904529    -0.266113281982    -0.003236944567    12.000000000000
         C           -3.099069095471     0.532054718018    -0.001858944567    12.000000000000
         C            1.024281904529     1.949828718018    -0.013866944567    12.000000000000
         H           -2.412236095471    -2.224379281982    -0.017381944567     1.007825032230
         H           -3.179098095471     1.168544718018    -0.884826944567     1.007825032230
         H           -3.896217095471    -0.212576281982    -0.011423944567     1.007825032230
         H           -3.184798095471     1.151531718018     0.892671055433     1.007825032230
         H            1.350171504529     2.989487218018     0.232370355433     1.007825032230
         H            3.602859904529    -0.863850281982    -0.224275944567     1.007825032230
         H            2.445884904529    -2.133543281982    -0.225985944567     1.007825032230

  Basis Set: AUG-CC-PVTZ
    Blend: AUG-CC-PVTZ
  Basis Set: (AUG-CC-PVTZ AUX)
    Blend: AUG-CC-PVTZ-JKFIT
	 Reference Energy          =    -503.7200618036590072 [Eh]
	 Singles Energy            =      -0.0000000000000000 [Eh]
	 Same-Spin Energy          =      -0.5495939912237779 [Eh]
	 Opposite-Spin Energy      =      -1.6337133340715964 [Eh]
	 Correlation Energy        =      -2.1833073252953743 [Eh]
	 Total Energy              =    -505.9033691289544095 [Eh]

	 ================> DF-SCS-MP2 Energies <==================
	-----------------------------------------------------------
	 SCS Same-Spin Scale       =       0.3333333333333333 [-]
	 SCS Opposite-Spin Scale   =       1.2000000000000000 [-]
	 SCS Same-Spin Energy      =      -0.1831979970745926 [Eh]
	 SCS Opposite-Spin Energy  =      -1.9604560008859155 [Eh]
	 SCS Correlation Energy    =      -2.1436539979605080 [Eh]
	 SCS Total Energy          =    -505.8637158016194917 [Eh]
	-----------------------------------------------------------

  Dipole Moment: [D]
     X:    -2.7557      Y:    -1.2103      Z:    -0.6708     Total:     3.0836

*** Psi4 exiting successfully. Buy a developer a beer!
