                               Psi4 1.3.2 release

  ==> Input File <==

--------------------------------------------------------------------------
#psi4
#
memory 32 gb

molecule  {
0 1
  N       -1.7893040    -0.1617730    -0.0001110
  N       -0.2713240    -1.8496560    -0.0082220
  N       -0.2672930     1.7497910     0.0010540
  N        2.0532340     1.0361840    -0.0078740
  N        2.7268170    -1.1967150     0.0786200
  C       -0.5487760     0.4359060     0.0048010
  C        0.3677308    -0.6273567    -0.0417511
  C       -1.5569310    -1.5157420    -0.0063070
  C        1.7257650    -0.2653140     0.0014880
  C       -3.0654680     0.5328540     0.0028660
  C        1.0578830     1.9506280    -0.0091420
  H       -2.3786350    -2.2235800    -0.0126570
  H       -3.1454970     1.1693440    -0.8801020
  H       -3.8626160    -0.2117770    -0.0066990
  H       -3.1511970     1.1523310     0.8973960
  H        1.3824760     2.9891980    -0.0128990
  H        3.6364610    -0.8630510    -0.2195510
  H        2.4794860    -2.1327440    -0.2212610
units angstrom
no_reorient  #important for SAPT in psi4, default
symmetry c1  #important for SAPT in psi4, default
}

set PROPERTIES_ORIGIN ["COM"]
properties('MP2/aug-cc-pvtz', properties = ['dipole'])
--------------------------------------------------------------------------

    Molecular point group: c1
  Charge       = 0
  Multiplicity = 1
  Basis Set: AUG-CC-PVTZ
    Blend: AUG-CC-PVTZ
  Basis Set: (AUG-CC-PVTZ AUX)
    Blend: AUG-CC-PVTZ-JKFIT

    Orbital Energies [Eh]
    ---------------------

    Doubly Occupied:

       1A    -15.633258     2A    -15.580792     3A    -15.567384
       4A    -15.560747     5A    -15.552356     6A    -11.334560
       7A    -11.322561     8A    -11.313487     9A    -11.311689
      10A    -11.288816    11A    -11.252129    12A     -1.367760
      13A     -1.296154    14A     -1.242284    15A     -1.196965
      16A     -1.151890    17A     -1.031095    18A     -0.986169
      19A     -0.890707    20A     -0.872188    21A     -0.802465
      22A     -0.753403    23A     -0.724220    24A     -0.680769
      25A     -0.673194    26A     -0.666468    27A     -0.624791
      28A     -0.606417    29A     -0.597050    30A     -0.591232
      31A     -0.571866    32A     -0.536436    33A     -0.495650
      34A     -0.492650    35A     -0.450464    36A     -0.413624
      37A     -0.409033    38A     -0.368391    39A     -0.307645

  @DF-RHF Final Energy:  -503.72429784155258

   => Energetics <=

    Nuclear Repulsion Energy =            594.2825421642033916
    One-Electron Energy =               -1862.9761628546971224
    Two-Electron Energy =                 764.9693228489412604
    Total Energy =                       -503.7242978415525840
  Basis Set: (AUG-CC-PVTZ AUX)
    Blend: AUG-CC-PVTZ-RI
    Molecular point group: c1

    Geometry (in Angstrom), charge = 0, multiplicity = 1:

       Center              X                  Y                   Z               Mass
    ------------   -----------------  -----------------  -----------------  -----------------
         N           -1.822985103806    -0.162435907140     0.000876102685    14.003074004430
         N           -0.305005103806    -1.850318907140    -0.007234897315    14.003074004430
         N           -0.300974103806     1.749128092860     0.002041102685    14.003074004430
         N            2.019552896194     1.035521092860    -0.006886897315    14.003074004430
         N            2.693135896194    -1.197377907140     0.079607102685    14.003074004430
         C           -0.582457103806     0.435243092860     0.005788102685    12.000000000000
         C            0.334049696194    -0.628019607140    -0.040763997315    12.000000000000
         C           -1.590612103806    -1.516404907140    -0.005319897315    12.000000000000
         C            1.692083896194    -0.265976907140     0.002475102685    12.000000000000
         C           -3.099149103806     0.532191092860     0.003853102685    12.000000000000
         C            1.024201896194     1.949965092860    -0.008154897315    12.000000000000
         H           -2.412316103806    -2.224242907140    -0.011669897315     1.007825032230
         H           -3.179178103806     1.168681092860    -0.879114897315     1.007825032230
         H           -3.896297103806    -0.212439907140    -0.005711897315     1.007825032230
         H           -3.184878103806     1.151668092860     0.898383102685     1.007825032230
         H            1.348794896194     2.988535092860    -0.011911897315     1.007825032230
         H            3.602779896194    -0.863713907140    -0.218563897315     1.007825032230
         H            2.445804896194    -2.133406907140    -0.220273897315     1.007825032230

  Basis Set: AUG-CC-PVTZ
    Blend: AUG-CC-PVTZ
  Basis Set: (AUG-CC-PVTZ AUX)
    Blend: AUG-CC-PVTZ-JKFIT
	 Reference Energy          =    -503.7242978415525840 [Eh]
	 Singles Energy            =      -0.0000000000000000 [Eh]
	 Same-Spin Energy          =      -0.5492970375967434 [Eh]
	 Opposite-Spin Energy      =      -1.6330690989383903 [Eh]
	 Correlation Energy        =      -2.1823661365351334 [Eh]
	 Total Energy              =    -505.9066639780876926 [Eh]

	 ================> DF-SCS-MP2 Energies <==================
	-----------------------------------------------------------
	 SCS Same-Spin Scale       =       0.3333333333333333 [-]
	 SCS Opposite-Spin Scale   =       1.2000000000000000 [-]
	 SCS Same-Spin Energy      =      -0.1830990125322478 [Eh]
	 SCS Opposite-Spin Energy  =      -1.9596829187260683 [Eh]
	 SCS Correlation Energy    =      -2.1427819312583161 [Eh]
	 SCS Total Energy          =    -505.8670797728108823 [Eh]
	-----------------------------------------------------------

  Dipole Moment: [D]
     X:    -2.7425      Y:    -1.1554      Z:    -0.8083     Total:     3.0837

*** Psi4 exiting successfully. Buy a developer a beer!
