                               Psi4 1.3.2 release

  ==> Input File <==

--------------------------------------------------------------------------
#psi4
#
memory 32 gb

molecule  {
0 1
  N       -1.7893040    -0.1617730    -0.0001110
  N       -0.2713240    -1.8496560    -0.0082220
  N       -0.2672930     1.7497910     0.0010540
  N        2.0532340     1.0361840    -0.0078740
  N        2.7268170    -1.1967150     0.0786200
  C       -0.5487760     0.4359060     0.0048010
  C        0.3660212    -0.6267803     0.1082039
  C       -1.5569310    -1.5157420    -0.0063070
  C        1.7257650    -0.2653140     0.0014880
  C       -3.0654680     0.5328540     0.0028660
  C        1.0578830     1.9506280    -0.0091420
  H       -2.3786350    -2.2235800    -0.0126570
  H       -3.1454970     1.1693440    -0.8801020
  H       -3.8626160    -0.2117770    -0.0066990
  H       -3.1511970     1.1523310     0.8973960
  H        1.3824760     2.9891980    -0.0128990
  H        3.6364610    -0.8630510    -0.2195510
  H        2.4794860    -2.1327440    -0.2212610
units angstrom
no_reorient  #important for SAPT in psi4, default
symmetry c1  #important for SAPT in psi4, default
}

set PROPERTIES_ORIGIN ["COM"]
properties('MP2/aug-cc-pvtz', properties = ['dipole'])
--------------------------------------------------------------------------

    Molecular point group: c1
  Charge       = 0
  Multiplicity = 1
  Basis Set: AUG-CC-PVTZ
    Blend: AUG-CC-PVTZ
  Basis Set: (AUG-CC-PVTZ AUX)
    Blend: AUG-CC-PVTZ-JKFIT

    Orbital Energies [Eh]
    ---------------------

    Doubly Occupied:

       1A    -15.632954     2A    -15.581362     3A    -15.567262
       4A    -15.560656     5A    -15.552403     6A    -11.335071
       7A    -11.322279     8A    -11.313667     9A    -11.312096
      10A    -11.288656    11A    -11.252464    12A     -1.367248
      13A     -1.296093    14A     -1.242187    15A     -1.196223
      16A     -1.152018    17A     -1.030523    18A     -0.985677
      19A     -0.890230    20A     -0.871838    21A     -0.801939
      22A     -0.752921    23A     -0.723863    24A     -0.680163
      25A     -0.673746    26A     -0.665789    27A     -0.624097
      28A     -0.605286    29A     -0.595891    30A     -0.591392
      31A     -0.571615    32A     -0.536693    33A     -0.496224
      34A     -0.491957    35A     -0.450155    36A     -0.415399
      37A     -0.406574    38A     -0.368367    39A     -0.307417

  @DF-RHF Final Energy:  -503.72113598927098

   => Energetics <=

    Nuclear Repulsion Energy =            594.1335324226175771
    One-Electron Energy =               -1862.6885459683178397
    Two-Electron Energy =                 764.8338775564291154
    Total Energy =                       -503.7211359892710334
  Basis Set: (AUG-CC-PVTZ AUX)
    Blend: AUG-CC-PVTZ-RI
    Molecular point group: c1

    Geometry (in Angstrom), charge = 0, multiplicity = 1:

       Center              X                  Y                   Z               Mass
    ------------   -----------------  -----------------  -----------------  -----------------
         N           -1.822847482688    -0.162482306772    -0.011195127252    14.003074004430
         N           -0.304867482688    -1.850365306772    -0.019306127252    14.003074004430
         N           -0.300836482688     1.749081693228    -0.010030127252    14.003074004430
         N            2.019690517312     1.035474693228    -0.018958127252    14.003074004430
         N            2.693273517312    -1.197424306772     0.067535872748    14.003074004430
         C           -0.582319482688     0.435196693228    -0.006283127252    12.000000000000
         C            0.332477717312    -0.627489606772     0.097119772748    12.000000000000
         C           -1.590474482688    -1.516451306772    -0.017391127252    12.000000000000
         C            1.692221517312    -0.266023306772    -0.009596127252    12.000000000000
         C           -3.099011482688     0.532144693228    -0.008218127252    12.000000000000
         C            1.024339517312     1.949918693228    -0.020226127252    12.000000000000
         H           -2.412178482688    -2.224289306772    -0.023741127252     1.007825032230
         H           -3.179040482688     1.168634693228    -0.891186127252     1.007825032230
         H           -3.896159482688    -0.212486306772    -0.017783127252     1.007825032230
         H           -3.184740482688     1.151621693228     0.886311872748     1.007825032230
         H            1.348932517312     2.988488693228    -0.023983127252     1.007825032230
         H            3.602917517312    -0.863760306772    -0.230635127252     1.007825032230
         H            2.445942517312    -2.133453306772    -0.232345127252     1.007825032230

  Basis Set: AUG-CC-PVTZ
    Blend: AUG-CC-PVTZ
  Basis Set: (AUG-CC-PVTZ AUX)
    Blend: AUG-CC-PVTZ-JKFIT
	 Reference Energy          =    -503.7211359892709766 [Eh]
	 Singles Energy            =      -0.0000000000000000 [Eh]
	 Same-Spin Energy          =      -0.5493621829313877 [Eh]
	 Opposite-Spin Energy      =      -1.6332271147589075 [Eh]
	 Correlation Energy        =      -2.1825892976902952 [Eh]
	 Total Energy              =    -505.9037252869612757 [Eh]

	 ================> DF-SCS-MP2 Energies <==================
	-----------------------------------------------------------
	 SCS Same-Spin Scale       =       0.3333333333333333 [-]
	 SCS Opposite-Spin Scale   =       1.2000000000000000 [-]
	 SCS Same-Spin Energy      =      -0.1831207276437959 [Eh]
	 SCS Opposite-Spin Energy  =      -1.9598725377106889 [Eh]
	 SCS Correlation Energy    =      -2.1429932653544848 [Eh]
	 SCS Total Energy          =    -505.8641292546254817 [Eh]
	-----------------------------------------------------------

  Dipole Moment: [D]
     X:    -2.7185      Y:    -1.1528      Z:    -0.7503     Total:     3.0466

*** Psi4 exiting successfully. Buy a developer a beer!
