                               Psi4 1.3.2 release

  ==> Input File <==

--------------------------------------------------------------------------
#psi4
#
memory 32 gb

molecule  {
0 1
  N       -1.7893040    -0.1617730    -0.0001110
  N       -0.2713240    -1.8496560    -0.0082220
  N       -0.2672930     1.7497910     0.0010540
  N        2.0532340     1.0361840    -0.0078740
  N        2.7268170    -1.1967150     0.0786200
  C       -0.5487760     0.4359060     0.0048010
  C        0.3666280    -0.6257540     0.0082110
  C       -1.5569310    -1.5157420    -0.0063070
  C        1.7257650    -0.2653140     0.0014880
  C       -3.0654680     0.5328540     0.0028660
  C        1.0578830     1.9506280    -0.0091420
  H       -2.3786350    -2.2235800    -0.0126570
  H       -3.1454970     1.1693440    -0.8801020
  H       -3.8626160    -0.2117770    -0.0066990
  H       -3.1511970     1.1523310     0.8973960
  H        1.3824760     2.9891980    -0.0128990
  H        3.6364610    -0.8630510    -0.2195510
  H        2.4527764    -2.1080045    -0.5190437
units angstrom
no_reorient  #important for SAPT in psi4, default
symmetry c1  #important for SAPT in psi4, default
}

set PROPERTIES_ORIGIN ["COM"]
properties('MP2/aug-cc-pvtz', properties = ['dipole'])
--------------------------------------------------------------------------

    Molecular point group: c1
  Charge       = 0
  Multiplicity = 1
  Basis Set: AUG-CC-PVTZ
    Blend: AUG-CC-PVTZ
  Basis Set: (AUG-CC-PVTZ AUX)
    Blend: AUG-CC-PVTZ-JKFIT

    Orbital Energies [Eh]
    ---------------------

    Doubly Occupied:

       1A    -15.633886     2A    -15.588999     3A    -15.567568
       4A    -15.563023     5A    -15.554131     6A    -11.333425
       7A    -11.323496     8A    -11.314195     9A    -11.312203
      10A    -11.289414    11A    -11.253318    12A     -1.368725
      13A     -1.296359    14A     -1.240012    15A     -1.195922
      16A     -1.148905    17A     -1.031388    18A     -0.986578
      19A     -0.889222    20A     -0.872226    21A     -0.800730
      22A     -0.747699    23A     -0.723616    24A     -0.680262
      25A     -0.667598    26A     -0.652816    27A     -0.623139
      28A     -0.600132    29A     -0.597327    30A     -0.588617
      31A     -0.570604    32A     -0.536543    33A     -0.497401
      34A     -0.493026    35A     -0.451310    36A     -0.416891
      37A     -0.409651    38A     -0.369785    39A     -0.310228

  @DF-RHF Final Energy:  -503.71138173073030

   => Energetics <=

    Nuclear Repulsion Energy =            593.9475187629926722
    One-Electron Energy =               -1862.3170558516428628
    Two-Electron Energy =                 764.6581553579200090
    Total Energy =                       -503.7113817307302952
  Basis Set: (AUG-CC-PVTZ AUX)
    Blend: AUG-CC-PVTZ-RI
    Molecular point group: c1

    Geometry (in Angstrom), charge = 0, multiplicity = 1:

       Center              X                  Y                   Z               Mass
    ------------   -----------------  -----------------  -----------------  -----------------
         N           -1.822715752733    -0.162732180329    -0.001132564713    14.003074004430
         N           -0.304735752733    -1.850615180329    -0.009243564713    14.003074004430
         N           -0.300704752733     1.748831819671     0.000032435287    14.003074004430
         N            2.019822247267     1.035224819671    -0.008895564713    14.003074004430
         N            2.693405247267    -1.197674180329     0.077598435287    14.003074004430
         C           -0.582187752733     0.434946819671     0.003779435287    12.000000000000
         C            0.333216247267    -0.626713180329     0.007189435287    12.000000000000
         C           -1.590342752733    -1.516701180329    -0.007328564713    12.000000000000
         C            1.692353247267    -0.266273180329     0.000466435287    12.000000000000
         C           -3.098879752733     0.531894819671     0.001844435287    12.000000000000
         C            1.024471247267     1.949668819671    -0.010163564713    12.000000000000
         H           -2.412046752733    -2.224539180329    -0.013678564713     1.007825032230
         H           -3.178908752733     1.168384819671    -0.881123564713     1.007825032230
         H           -3.896027752733    -0.212736180329    -0.007720564713     1.007825032230
         H           -3.184608752733     1.151371819671     0.896374435287     1.007825032230
         H            1.349064247267     2.988238819671    -0.013920564713     1.007825032230
         H            3.603049247267    -0.864010180329    -0.220572564713     1.007825032230
         H            2.419364647267    -2.108963680329    -0.520065264713     1.007825032230

  Basis Set: AUG-CC-PVTZ
    Blend: AUG-CC-PVTZ
  Basis Set: (AUG-CC-PVTZ AUX)
    Blend: AUG-CC-PVTZ-JKFIT
	 Reference Energy          =    -503.7113817307302952 [Eh]
	 Singles Energy            =      -0.0000000000000000 [Eh]
	 Same-Spin Energy          =      -0.5499973390101229 [Eh]
	 Opposite-Spin Energy      =      -1.6353195394998461 [Eh]
	 Correlation Energy        =      -2.1853168785099690 [Eh]
	 Total Energy              =    -505.8966986092402749 [Eh]

	 ================> DF-SCS-MP2 Energies <==================
	-----------------------------------------------------------
	 SCS Same-Spin Scale       =       0.3333333333333333 [-]
	 SCS Opposite-Spin Scale   =       1.2000000000000000 [-]
	 SCS Same-Spin Energy      =      -0.1833324463367076 [Eh]
	 SCS Opposite-Spin Energy  =      -1.9623834473998152 [Eh]
	 SCS Correlation Energy    =      -2.1457158937365230 [Eh]
	 SCS Total Energy          =    -505.8570976244668032 [Eh]
	-----------------------------------------------------------

  Dipole Moment: [D]
     X:    -2.9169      Y:    -0.9194      Z:    -1.1079     Total:     3.2529

*** Psi4 exiting successfully. Buy a developer a beer!
