                               Psi4 1.3.2 release

  ==> Input File <==

--------------------------------------------------------------------------
#psi4
#
memory 32 gb

molecule  {
0 1
  N       -1.7893040    -0.1617730    -0.0001110
  N       -0.2713240    -1.8496560    -0.0082220
  N       -0.2672930     1.7497910     0.0010540
  N        2.0532340     1.0361840    -0.0078740
  N        2.7268170    -1.1967150     0.0786200
  C       -0.5487760     0.4359060     0.0048010
  C        0.3666280    -0.6257540     0.0082110
  C       -1.5569310    -1.5157420    -0.0063070
  C        1.7257650    -0.2653140     0.0014880
  C       -3.0654680     0.5328540     0.0028660
  C        1.0578830     1.9506280    -0.0091420
  H       -2.3785270    -2.2230024    -0.1126553
  H       -3.1454970     1.1693440    -0.8801020
  H       -3.8626160    -0.2117770    -0.0066990
  H       -3.1511970     1.1523310     0.8973960
  H        1.3824760     2.9891980    -0.0128990
  H        3.6364610    -0.8630510    -0.2195510
  H        2.4794860    -2.1327440    -0.2212610
units angstrom
no_reorient  #important for SAPT in psi4, default
symmetry c1  #important for SAPT in psi4, default
}

set PROPERTIES_ORIGIN ["COM"]
properties('MP2/aug-cc-pvtz', properties = ['dipole'])
--------------------------------------------------------------------------

    Molecular point group: c1
  Charge       = 0
  Multiplicity = 1
  Basis Set: AUG-CC-PVTZ
    Blend: AUG-CC-PVTZ
  Basis Set: (AUG-CC-PVTZ AUX)
    Blend: AUG-CC-PVTZ-JKFIT

    Orbital Energies [Eh]
    ---------------------

    Doubly Occupied:

       1A    -15.633058     2A    -15.581066     3A    -15.567503
       4A    -15.560745     5A    -15.552436     6A    -11.334606
       7A    -11.322842     8A    -11.313104     9A    -11.311664
      10A    -11.288686    11A    -11.251966    12A     -1.367811
      13A     -1.296230    14A     -1.242324    15A     -1.196893
      16A     -1.151955    17A     -1.031320    18A     -0.986031
      19A     -0.890391    20A     -0.872145    21A     -0.802604
      22A     -0.753375    23A     -0.723992    24A     -0.680627
      25A     -0.673088    26A     -0.666542    27A     -0.624200
      28A     -0.606274    29A     -0.596053    30A     -0.591937
      31A     -0.571763    32A     -0.536609    33A     -0.495612
      34A     -0.492732    35A     -0.450566    36A     -0.414228
      37A     -0.408645    38A     -0.368420    39A     -0.307835

  @DF-RHF Final Energy:  -503.72427136029205

   => Energetics <=

    Nuclear Repulsion Energy =            594.3090048776660979
    One-Electron Energy =               -1863.0307988130339254
    Two-Electron Energy =                 764.9975225750756636
    Total Energy =                       -503.7242713602920503
  Basis Set: (AUG-CC-PVTZ AUX)
    Blend: AUG-CC-PVTZ-RI
    Molecular point group: c1

    Geometry (in Angstrom), charge = 0, multiplicity = 1:

       Center              X                  Y                   Z               Mass
    ------------   -----------------  -----------------  -----------------  -----------------
         N           -1.822897059651    -0.162568827918    -0.002469734332    14.003074004430
         N           -0.304917059651    -1.850451827918    -0.010580734332    14.003074004430
         N           -0.300886059651     1.748995172082    -0.001304734332    14.003074004430
         N            2.019640940349     1.035388172082    -0.010232734332    14.003074004430
         N            2.693223940349    -1.197510827918     0.076261265668    14.003074004430
         C           -0.582369059651     0.435110172082     0.002442265668    12.000000000000
         C            0.333034940349    -0.626549827918     0.005852265668    12.000000000000
         C           -1.590524059651    -1.516537827918    -0.008665734332    12.000000000000
         C            1.692171940349    -0.266109827918    -0.000870734332    12.000000000000
         C           -3.099061059651     0.532058172082     0.000507265668    12.000000000000
         C            1.024289940349     1.949832172082    -0.011500734332    12.000000000000
         H           -2.412120059651    -2.223798227918    -0.115014034332     1.007825032230
         H           -3.179090059651     1.168548172082    -0.882460734332     1.007825032230
         H           -3.896209059651    -0.212572827918    -0.009057734332     1.007825032230
         H           -3.184790059651     1.151535172082     0.895037265668     1.007825032230
         H            1.348882940349     2.988402172082    -0.015257734332     1.007825032230
         H            3.602867940349    -0.863846827918    -0.221909734332     1.007825032230
         H            2.445892940349    -2.133539827918    -0.223619734332     1.007825032230

  Basis Set: AUG-CC-PVTZ
    Blend: AUG-CC-PVTZ
  Basis Set: (AUG-CC-PVTZ AUX)
    Blend: AUG-CC-PVTZ-JKFIT
	 Reference Energy          =    -503.7242713602920503 [Eh]
	 Singles Energy            =      -0.0000000000000000 [Eh]
	 Same-Spin Energy          =      -0.5493210005948175 [Eh]
	 Opposite-Spin Energy      =      -1.6332170558201629 [Eh]
	 Correlation Energy        =      -2.1825380564149803 [Eh]
	 Total Energy              =    -505.9068094167070058 [Eh]

	 ================> DF-SCS-MP2 Energies <==================
	-----------------------------------------------------------
	 SCS Same-Spin Scale       =       0.3333333333333333 [-]
	 SCS Opposite-Spin Scale   =       1.2000000000000000 [-]
	 SCS Same-Spin Energy      =      -0.1831070001982725 [Eh]
	 SCS Opposite-Spin Energy  =      -1.9598604669841952 [Eh]
	 SCS Correlation Energy    =      -2.1429674671824679 [Eh]
	 SCS Total Energy          =    -505.8672388274745231 [Eh]
	-----------------------------------------------------------

  Dipole Moment: [D]
     X:    -2.7243      Y:    -1.1516      Z:    -0.8553     Total:     3.0789

*** Psi4 exiting successfully. Buy a developer a beer!
