                               Psi4 1.3.2 release

  ==> Input File <==

--------------------------------------------------------------------------
#psi4
#
memory 32 gb

molecule  {
0 1
  N       -1.7893040    -0.1617730    -0.0001110
  N       -0.2713240    -1.8496560    -0.0082220
  N       -0.2672930     1.7497910     0.0010540
  N        2.0532340     1.0361840    -0.0078740
  N        2.7268170    -1.1967150     0.0786200
  C       -0.5487760     0.4359060     0.0048010
  C        0.3721418    -0.6337674    -0.2415997
  C       -1.5569310    -1.5157420    -0.0063070
  C        1.7257650    -0.2653140     0.0014880
  C       -3.0654680     0.5328540     0.0028660
  C        1.0578830     1.9506280    -0.0091420
  H       -2.3786350    -2.2235800    -0.0126570
  H       -3.1454970     1.1693440    -0.8801020
  H       -3.8626160    -0.2117770    -0.0066990
  H       -3.1511970     1.1523310     0.8973960
  H        1.3824760     2.9891980    -0.0128990
  H        3.6364610    -0.8630510    -0.2195510
  H        2.4794860    -2.1327440    -0.2212610
units angstrom
no_reorient  #important for SAPT in psi4, default
symmetry c1  #important for SAPT in psi4, default
}

set PROPERTIES_ORIGIN ["COM"]
properties('MP2/aug-cc-pvtz', properties = ['dipole'])
--------------------------------------------------------------------------

    Molecular point group: c1
  Charge       = 0
  Multiplicity = 1
  Basis Set: AUG-CC-PVTZ
    Blend: AUG-CC-PVTZ
  Basis Set: (AUG-CC-PVTZ AUX)
    Blend: AUG-CC-PVTZ-JKFIT

    Orbital Energies [Eh]
    ---------------------

    Doubly Occupied:

       1A    -15.633831     2A    -15.580790     3A    -15.567325
       4A    -15.560796     5A    -15.552068     6A    -11.337362
       7A    -11.322087     8A    -11.318992     9A    -11.314520
      10A    -11.289159    11A    -11.255562    12A     -1.365617
      13A     -1.295949    14A     -1.241961    15A     -1.194474
      16A     -1.152342    17A     -1.026970    18A     -0.985336
      19A     -0.888560    20A     -0.871687    21A     -0.797988
      22A     -0.750916    23A     -0.723324    24A     -0.680661
      25A     -0.673468    26A     -0.665135    27A     -0.624544
      28A     -0.603824    29A     -0.597226    30A     -0.589087
      31A     -0.571605    32A     -0.532379    33A     -0.497188
      34A     -0.490901    35A     -0.448261    36A     -0.412541
      37A     -0.405596    38A     -0.368500    39A     -0.307078

  @DF-RHF Final Energy:  -503.70624967789672

   => Energetics <=

    Nuclear Repulsion Energy =            593.2956181916169953
    One-Electron Energy =               -1861.0125178926869012
    Two-Electron Energy =                 764.0106500231731843
    Total Energy =                       -503.7062496778967216
  Basis Set: (AUG-CC-PVTZ AUX)
    Blend: AUG-CC-PVTZ-RI
    Molecular point group: c1

    Geometry (in Angstrom), charge = 0, multiplicity = 1:

       Center              X                  Y                   Z               Mass
    ------------   -----------------  -----------------  -----------------  -----------------
         N           -1.823340184965    -0.161919852098     0.016963718324    14.003074004430
         N           -0.305360184965    -1.849802852098     0.008852718324    14.003074004430
         N           -0.301329184965     1.749644147902     0.018128718324    14.003074004430
         N            2.019197815035     1.036037147902     0.009200718324    14.003074004430
         N            2.692780815035    -1.196861852098     0.095694718324    14.003074004430
         C           -0.582812184965     0.435759147902     0.021875718324    12.000000000000
         C            0.338105615035    -0.633914252098    -0.224524981676    12.000000000000
         C           -1.590967184965    -1.515888852098     0.010767718324    12.000000000000
         C            1.691728815035    -0.265460852098     0.018562718324    12.000000000000
         C           -3.099504184965     0.532707147902     0.019940718324    12.000000000000
         C            1.023846815035     1.950481147902     0.007932718324    12.000000000000
         H           -2.412671184965    -2.223726852098     0.004417718324     1.007825032230
         H           -3.179533184965     1.169197147902    -0.863027281676     1.007825032230
         H           -3.896652184965    -0.211923852098     0.010375718324     1.007825032230
         H           -3.185233184965     1.152184147902     0.914470718324     1.007825032230
         H            1.348439815035     2.989051147902     0.004175718324     1.007825032230
         H            3.602424815035    -0.863197852098    -0.202476281676     1.007825032230
         H            2.445449815035    -2.132890852098    -0.204186281676     1.007825032230

  Basis Set: AUG-CC-PVTZ
    Blend: AUG-CC-PVTZ
  Basis Set: (AUG-CC-PVTZ AUX)
    Blend: AUG-CC-PVTZ-JKFIT
	 Reference Energy          =    -503.7062496778967216 [Eh]
	 Singles Energy            =      -0.0000000000000000 [Eh]
	 Same-Spin Energy          =      -0.5495809426221625 [Eh]
	 Opposite-Spin Energy      =      -1.6340699607117544 [Eh]
	 Correlation Energy        =      -2.1836509033339171 [Eh]
	 Total Energy              =    -505.8899005812306200 [Eh]

	 ================> DF-SCS-MP2 Energies <==================
	-----------------------------------------------------------
	 SCS Same-Spin Scale       =       0.3333333333333333 [-]
	 SCS Opposite-Spin Scale   =       1.2000000000000000 [-]
	 SCS Same-Spin Energy      =      -0.1831936475407208 [Eh]
	 SCS Opposite-Spin Energy  =      -1.9608839528541051 [Eh]
	 SCS Correlation Energy    =      -2.1440776003948261 [Eh]
	 SCS Total Energy          =    -505.8503272782915587 [Eh]
	-----------------------------------------------------------

  Dipole Moment: [D]
     X:    -2.7440      Y:    -1.1088      Z:    -0.8710     Total:     3.0850

*** Psi4 exiting successfully. Buy a developer a beer!
