                               Psi4 1.3.2 release

  ==> Input File <==

--------------------------------------------------------------------------
#psi4
#
memory 32 gb

molecule  {
0 1
  N       -1.7893040    -0.1617730    -0.0001110
  N       -0.2713240    -1.8496560    -0.0082220
  N       -0.2672930     1.7497910     0.0010540
  N        2.0532340     1.0361840    -0.0078740
  N        2.7268170    -1.1967150     0.0786200
  C       -0.5487760     0.4359060     0.0048010
  C        0.3666280    -0.6257540     0.0082110
  C       -1.5569310    -1.5157420    -0.0063070
  C        1.7257650    -0.2653140     0.0014880
  C       -3.0652742     0.5338922    -0.1971312
  C        1.0578830     1.9506280    -0.0091420
  H       -2.3786350    -2.2235800    -0.0126570
  H       -3.1454970     1.1693440    -0.8801020
  H       -3.8626160    -0.2117770    -0.0066990
  H       -3.1511970     1.1523310     0.8973960
  H        1.3824760     2.9891980    -0.0128990
  H        3.6364610    -0.8630510    -0.2195510
  H        2.4794860    -2.1327440    -0.2212610
units angstrom
no_reorient  #important for SAPT in psi4, default
symmetry c1  #important for SAPT in psi4, default
}

set PROPERTIES_ORIGIN ["COM"]
properties('MP2/aug-cc-pvtz', properties = ['dipole'])
--------------------------------------------------------------------------

    Molecular point group: c1
  Charge       = 0
  Multiplicity = 1
  Basis Set: AUG-CC-PVTZ
    Blend: AUG-CC-PVTZ
  Basis Set: (AUG-CC-PVTZ AUX)
    Blend: AUG-CC-PVTZ-JKFIT

    Orbital Energies [Eh]
    ---------------------

    Doubly Occupied:

       1A    -15.634990     2A    -15.581329     3A    -15.568235
       4A    -15.560989     5A    -15.552729     6A    -11.334871
       7A    -11.322991     8A    -11.313304     9A    -11.311872
      10A    -11.294573    11A    -11.252365    12A     -1.367814
      13A     -1.296388    14A     -1.242574    15A     -1.196227
      16A     -1.152083    17A     -1.031763    18A     -0.990780
      19A     -0.891522    20A     -0.872821    21A     -0.805002
      22A     -0.756647    23A     -0.731473    24A     -0.685303
      25A     -0.677511    26A     -0.665014    27A     -0.630964
      28A     -0.619473    29A     -0.599790    30A     -0.579598
      31A     -0.561202    32A     -0.520251    33A     -0.496025
      34A     -0.490486    35A     -0.450951    36A     -0.412139
      37A     -0.408702    38A     -0.367760    39A     -0.308226

  @DF-RHF Final Energy:  -503.68019033594584

   => Energetics <=

    Nuclear Repulsion Energy =            594.1395888544770969
    One-Electron Energy =               -1862.5660829558989917
    Two-Electron Energy =                 764.7463037654761138
    Total Energy =                       -503.6801903359457810
  Basis Set: (AUG-CC-PVTZ AUX)
    Blend: AUG-CC-PVTZ-RI
    Molecular point group: c1

    Geometry (in Angstrom), charge = 0, multiplicity = 1:

       Center              X                  Y                   Z               Mass
    ------------   -----------------  -----------------  -----------------  -----------------
         N           -1.822911930200    -0.162648496991     0.012953780593    14.003074004430
         N           -0.304931930200    -1.850531496991     0.004842780593    14.003074004430
         N           -0.300900930200     1.748915503009     0.014118780593    14.003074004430
         N            2.019626069800     1.035308503009     0.005190780593    14.003074004430
         N            2.693209069800    -1.197590496991     0.091684780593    14.003074004430
         C           -0.582383930200     0.435030503009     0.017865780593    12.000000000000
         C            0.333020069800    -0.626629496991     0.021275780593    12.000000000000
         C           -1.590538930200    -1.516617496991     0.006757780593    12.000000000000
         C            1.692157069800    -0.266189496991     0.014552780593    12.000000000000
         C           -3.098882130200     0.533016703009    -0.184066419407    12.000000000000
         C            1.024275069800     1.949752503009     0.003922780593    12.000000000000
         H           -2.412242930200    -2.224455496991     0.000407780593     1.007825032230
         H           -3.179104930200     1.168468503009    -0.867037219407     1.007825032230
         H           -3.896223930200    -0.212652496991     0.006365780593     1.007825032230
         H           -3.184804930200     1.151455503009     0.910460780593     1.007825032230
         H            1.348868069800     2.988322503009     0.000165780593     1.007825032230
         H            3.602853069800    -0.863926496991    -0.206486219407     1.007825032230
         H            2.445878069800    -2.133619496991    -0.208196219407     1.007825032230

  Basis Set: AUG-CC-PVTZ
    Blend: AUG-CC-PVTZ
  Basis Set: (AUG-CC-PVTZ AUX)
    Blend: AUG-CC-PVTZ-JKFIT
	 Reference Energy          =    -503.6801903359458379 [Eh]
	 Singles Energy            =      -0.0000000000000000 [Eh]
	 Same-Spin Energy          =      -0.5498511401934003 [Eh]
	 Opposite-Spin Energy      =      -1.6350406858939202 [Eh]
	 Correlation Energy        =      -2.1848918260873207 [Eh]
	 Total Energy              =    -505.8650821620331612 [Eh]

	 ================> DF-SCS-MP2 Energies <==================
	-----------------------------------------------------------
	 SCS Same-Spin Scale       =       0.3333333333333333 [-]
	 SCS Opposite-Spin Scale   =       1.2000000000000000 [-]
	 SCS Same-Spin Energy      =      -0.1832837133978001 [Eh]
	 SCS Opposite-Spin Energy  =      -1.9620488230727040 [Eh]
	 SCS Correlation Energy    =      -2.1453325364705043 [Eh]
	 SCS Total Energy          =    -505.8255228724163430 [Eh]
	-----------------------------------------------------------

  Dipole Moment: [D]
     X:    -2.6712      Y:    -1.2039      Z:    -0.9722     Total:     3.0871

*** Psi4 exiting successfully. Buy a developer a beer!
