                               Psi4 1.3.2 release

  ==> Input File <==

--------------------------------------------------------------------------
#psi4
#
memory 32 gb

molecule  {
0 1
  N       -1.7893040    -0.1617730    -0.0001110
  N       -0.2713240    -1.8496560    -0.0082220
  N       -0.2672930     1.7497910     0.0010540
  N        2.0532340     1.0361840    -0.0078740
  N        2.7268170    -1.1967150     0.0786200
  C       -0.5487760     0.4359060     0.0048010
  C        0.3651109    -0.6283197     0.2581932
  C       -1.5569310    -1.5157420    -0.0063070
  C        1.7257650    -0.2653140     0.0014880
  C       -3.0654680     0.5328540     0.0028660
  C        1.0578830     1.9506280    -0.0091420
  H       -2.3786350    -2.2235800    -0.0126570
  H       -3.1454970     1.1693440    -0.8801020
  H       -3.8626160    -0.2117770    -0.0066990
  H       -3.1511970     1.1523310     0.8973960
  H        1.3824760     2.9891980    -0.0128990
  H        3.6364610    -0.8630510    -0.2195510
  H        2.4794860    -2.1327440    -0.2212610
units angstrom
no_reorient  #important for SAPT in psi4, default
symmetry c1  #important for SAPT in psi4, default
}

set PROPERTIES_ORIGIN ["COM"]
properties('MP2/aug-cc-pvtz', properties = ['dipole'])
--------------------------------------------------------------------------

    Molecular point group: c1
  Charge       = 0
  Multiplicity = 1
  Basis Set: AUG-CC-PVTZ
    Blend: AUG-CC-PVTZ
  Basis Set: (AUG-CC-PVTZ AUX)
    Blend: AUG-CC-PVTZ-JKFIT

    Orbital Energies [Eh]
    ---------------------

    Doubly Occupied:

       1A    -15.632713     2A    -15.582499     3A    -15.566918
       4A    -15.560527     5A    -15.552312     6A    -11.337756
       7A    -11.321492     8A    -11.317443     9A    -11.314685
      10A    -11.288566    11A    -11.255109    12A     -1.364980
      13A     -1.295904    14A     -1.241857    15A     -1.193044
      16A     -1.152557    17A     -1.027012    18A     -0.984168
      19A     -0.888170    20A     -0.870727    21A     -0.798363
      22A     -0.750570    23A     -0.722522    24A     -0.679662
      25A     -0.673687    26A     -0.664268    27A     -0.622785
      28A     -0.602272    29A     -0.593381    30A     -0.590276
      31A     -0.570909    32A     -0.534313    33A     -0.497619
      34A     -0.490202    35A     -0.448028    36A     -0.416074
      37A     -0.401749    38A     -0.368416    39A     -0.306885

  @DF-RHF Final Energy:  -503.70373201522517

   => Energetics <=

    Nuclear Repulsion Energy =            593.2436621028483614
    One-Electron Energy =               -1860.9339462657162585
    Two-Electron Energy =                 763.9865521476427830
    Total Energy =                       -503.7037320152252278
  Basis Set: (AUG-CC-PVTZ AUX)
    Blend: AUG-CC-PVTZ-RI
    Molecular point group: c1

    Geometry (in Angstrom), charge = 0, multiplicity = 1:

       Center              X                  Y                   Z               Mass
    ------------   -----------------  -----------------  -----------------  -----------------
         N           -1.822774204434    -0.162358386587    -0.023269118305    14.003074004430
         N           -0.304794204434    -1.850241386587    -0.031380118305    14.003074004430
         N           -0.300763204434     1.749205613413    -0.022104118305    14.003074004430
         N            2.019763795566     1.035598613413    -0.031032118305    14.003074004430
         N            2.693346795566    -1.197300386587     0.055461881695    14.003074004430
         C           -0.582246204434     0.435320613413    -0.018357118305    12.000000000000
         C            0.331640695566    -0.628905086587     0.235035081695    12.000000000000
         C           -1.590401204434    -1.516327386587    -0.029465118305    12.000000000000
         C            1.692294795566    -0.265899386587    -0.021670118305    12.000000000000
         C           -3.098938204434     0.532268613413    -0.020292118305    12.000000000000
         C            1.024412795566     1.950042613413    -0.032300118305    12.000000000000
         H           -2.412105204434    -2.224165386587    -0.035815118305     1.007825032230
         H           -3.178967204434     1.168758613413    -0.903260118305     1.007825032230
         H           -3.896086204434    -0.212362386587    -0.029857118305     1.007825032230
         H           -3.184667204434     1.151745613413     0.874237881695     1.007825032230
         H            1.349005795566     2.988612613413    -0.036057118305     1.007825032230
         H            3.602990795566    -0.863636386587    -0.242709118305     1.007825032230
         H            2.446015795566    -2.133329386587    -0.244419118305     1.007825032230

  Basis Set: AUG-CC-PVTZ
    Blend: AUG-CC-PVTZ
  Basis Set: (AUG-CC-PVTZ AUX)
    Blend: AUG-CC-PVTZ-JKFIT
	 Reference Energy          =    -503.7037320152251709 [Eh]
	 Singles Energy            =      -0.0000000000000000 [Eh]
	 Same-Spin Energy          =      -0.5496503353386686 [Eh]
	 Opposite-Spin Energy      =      -1.6346030839513346 [Eh]
	 Correlation Energy        =      -2.1842534192900032 [Eh]
	 Total Energy              =    -505.8879854345152012 [Eh]

	 ================> DF-SCS-MP2 Energies <==================
	-----------------------------------------------------------
	 SCS Same-Spin Scale       =       0.3333333333333333 [-]
	 SCS Opposite-Spin Scale   =       1.2000000000000000 [-]
	 SCS Same-Spin Energy      =      -0.1832167784462229 [Eh]
	 SCS Opposite-Spin Energy  =      -1.9615237007416013 [Eh]
	 SCS Correlation Energy    =      -2.1447404791878242 [Eh]
	 SCS Total Energy          =    -505.8484724944129880 [Eh]
	-----------------------------------------------------------

  Dipole Moment: [D]
     X:    -2.6723      Y:    -1.1176      Z:    -0.7014     Total:     2.9803

*** Psi4 exiting successfully. Buy a developer a beer!
