                               Psi4 1.3.2 release

  ==> Input File <==

--------------------------------------------------------------------------
#psi4
#
memory 32 gb

molecule  {
0 1
  N       -1.7893040    -0.1617730    -0.0001110
  N       -0.2713240    -1.8496560    -0.0082220
  N       -0.2672930     1.7497910     0.0010540
  N        2.0532340     1.0361840    -0.0078740
  N        2.7268170    -1.1967150     0.0786200
  C       -0.5487760     0.4359060     0.0048010
  C        0.3666280    -0.6257540     0.0082110
  C       -1.5569310    -1.5157420    -0.0063070
  C        1.7257650    -0.2653140     0.0014880
  C       -3.0654680     0.5328540     0.0028660
  C        1.0578830     1.9506280    -0.0091420
  H       -2.3783111    -2.2218471    -0.3126518
  H       -3.1454970     1.1693440    -0.8801020
  H       -3.8626160    -0.2117770    -0.0066990
  H       -3.1511970     1.1523310     0.8973960
  H        1.3824760     2.9891980    -0.0128990
  H        3.6364610    -0.8630510    -0.2195510
  H        2.4794860    -2.1327440    -0.2212610
units angstrom
no_reorient  #important for SAPT in psi4, default
symmetry c1  #important for SAPT in psi4, default
}

set PROPERTIES_ORIGIN ["COM"]
properties('MP2/aug-cc-pvtz', properties = ['dipole'])
--------------------------------------------------------------------------

    Molecular point group: c1
  Charge       = 0
  Multiplicity = 1
  Basis Set: AUG-CC-PVTZ
    Blend: AUG-CC-PVTZ
  Basis Set: (AUG-CC-PVTZ AUX)
    Blend: AUG-CC-PVTZ-JKFIT

    Orbital Energies [Eh]
    ---------------------

    Doubly Occupied:

       1A    -15.632894     2A    -15.581583     3A    -15.568555
       4A    -15.561029     5A    -15.552855     6A    -11.335256
       7A    -11.325293     8A    -11.313667     9A    -11.312254
      10A    -11.288353    11A    -11.252623    12A     -1.367973
      13A     -1.296636    14A     -1.242792    15A     -1.197245
      16A     -1.152369    17A     -1.030951    18A     -0.985871
      19A     -0.887932    20A     -0.872515    21A     -0.801190
      22A     -0.752614    23A     -0.723300    24A     -0.680136
      25A     -0.672904    26A     -0.666364    27A     -0.622015
      28A     -0.605491    29A     -0.593623    30A     -0.591766
      31A     -0.571342    32A     -0.535386    33A     -0.495932
      34A     -0.493033    35A     -0.450881    36A     -0.414460
      37A     -0.409074    38A     -0.368589    39A     -0.308202

  @DF-RHF Final Energy:  -503.71876838349772

   => Energetics <=

    Nuclear Repulsion Energy =            594.1638769696565987
    One-Electron Energy =               -1862.7353929686591982
    Two-Electron Energy =                 764.8527476155049953
    Total Energy =                       -503.7187683834977179
  Basis Set: (AUG-CC-PVTZ AUX)
    Blend: AUG-CC-PVTZ-RI
    Molecular point group: c1

    Geometry (in Angstrom), charge = 0, multiplicity = 1:

       Center              X                  Y                   Z               Mass
    ------------   -----------------  -----------------  -----------------  -----------------
         N           -1.822898519296    -0.162576638605    -0.001117609272    14.003074004430
         N           -0.304918519296    -1.850459638605    -0.009228609272    14.003074004430
         N           -0.300887519296     1.748987361395     0.000047390728    14.003074004430
         N            2.019639480704     1.035380361395    -0.008880609272    14.003074004430
         N            2.693222480704    -1.197518638605     0.077613390728    14.003074004430
         C           -0.582370519296     0.435102361395     0.003794390728    12.000000000000
         C            0.333033480704    -0.626557638605     0.007204390728    12.000000000000
         C           -1.590525519296    -1.516545638605    -0.007313609272    12.000000000000
         C            1.692170480704    -0.266117638605     0.000481390728    12.000000000000
         C           -3.099062519296     0.532050361395     0.001859390728    12.000000000000
         C            1.024288480704     1.949824361395    -0.010148609272    12.000000000000
         H           -2.411905619296    -2.222650738605    -0.313658409272     1.007825032230
         H           -3.179091519296     1.168540361395    -0.881108609272     1.007825032230
         H           -3.896210519296    -0.212580638605    -0.007705609272     1.007825032230
         H           -3.184791519296     1.151527361395     0.896389390728     1.007825032230
         H            1.348881480704     2.988394361395    -0.013905609272     1.007825032230
         H            3.602866480704    -0.863854638605    -0.220557609272     1.007825032230
         H            2.445891480704    -2.133547638605    -0.222267609272     1.007825032230

  Basis Set: AUG-CC-PVTZ
    Blend: AUG-CC-PVTZ
  Basis Set: (AUG-CC-PVTZ AUX)
    Blend: AUG-CC-PVTZ-JKFIT
	 Reference Energy          =    -503.7187683834977179 [Eh]
	 Singles Energy            =      -0.0000000000000000 [Eh]
	 Same-Spin Energy          =      -0.5497056414605502 [Eh]
	 Opposite-Spin Energy      =      -1.6340172059707410 [Eh]
	 Correlation Energy        =      -2.1837228474312913 [Eh]
	 Total Energy              =    -505.9024912309290016 [Eh]

	 ================> DF-SCS-MP2 Energies <==================
	-----------------------------------------------------------
	 SCS Same-Spin Scale       =       0.3333333333333333 [-]
	 SCS Opposite-Spin Scale   =       1.2000000000000000 [-]
	 SCS Same-Spin Energy      =      -0.1832352138201834 [Eh]
	 SCS Opposite-Spin Energy  =      -1.9608206471648890 [Eh]
	 SCS Correlation Energy    =      -2.1440558609850724 [Eh]
	 SCS Total Energy          =    -505.8628242444827947 [Eh]
	-----------------------------------------------------------

  Dipole Moment: [D]
     X:    -2.6492      Y:    -1.1064      Z:    -0.9843     Total:     3.0350

*** Psi4 exiting successfully. Buy a developer a beer!
