                               Psi4 1.3.2 release

  ==> Input File <==

--------------------------------------------------------------------------
#psi4
#
memory 32 gb

molecule  {
0 1
  N       -1.7893040    -0.1617730    -0.0001110
  N       -0.2713240    -1.8496560    -0.0082220
  N       -0.2672930     1.7497910     0.0010540
  N        2.0532340     1.0361840    -0.0078740
  N        2.7268170    -1.1967150     0.0786200
  C       -0.5487760     0.4359060     0.0048010
  C        0.3666280    -0.6257540     0.0082110
  C       -1.5569310    -1.5157420    -0.0063070
  C        1.7257650    -0.2653140     0.0014880
  C       -3.0654680     0.5328540     0.0028660
  C        1.0578830     1.9506280    -0.0091420
  H       -2.3786350    -2.2235800    -0.0126570
  H       -3.1454970     1.1693440    -0.8801020
  H       -3.8626160    -0.2117770    -0.0066990
  H       -3.1511970     1.1523310     0.8973960
  H        1.3832539     2.9898511     0.1370976
  H        3.6364610    -0.8630510    -0.2195510
  H        2.4794860    -2.1327440    -0.2212610
units angstrom
no_reorient  #important for SAPT in psi4, default
symmetry c1  #important for SAPT in psi4, default
}

set PROPERTIES_ORIGIN ["COM"]
properties('MP2/aug-cc-pvtz', properties = ['dipole'])
--------------------------------------------------------------------------

    Molecular point group: c1
  Charge       = 0
  Multiplicity = 1
  Basis Set: AUG-CC-PVTZ
    Blend: AUG-CC-PVTZ
  Basis Set: (AUG-CC-PVTZ AUX)
    Blend: AUG-CC-PVTZ-JKFIT

    Orbital Energies [Eh]
    ---------------------

    Doubly Occupied:

       1A    -15.633157     2A    -15.581021     3A    -15.567441
       4A    -15.560844     5A    -15.552502     6A    -11.334622
       7A    -11.322635     8A    -11.313116     9A    -11.312596
      10A    -11.288781    11A    -11.252037    12A     -1.367880
      13A     -1.296240    14A     -1.242319    15A     -1.196923
      16A     -1.151989    17A     -1.031275    18A     -0.986114
      19A     -0.890533    20A     -0.871520    21A     -0.802779
      22A     -0.753528    23A     -0.723519    24A     -0.680514
      25A     -0.673317    26A     -0.666296    27A     -0.624133
      28A     -0.606594    29A     -0.593943    30A     -0.593650
      31A     -0.571455    32A     -0.537063    33A     -0.497445
      34A     -0.489841    35A     -0.450383    36A     -0.414370
      37A     -0.408552    38A     -0.368395    39A     -0.307778

  @DF-RHF Final Energy:  -503.72317520997552

   => Energetics <=

    Nuclear Repulsion Energy =            594.2854873268515803
    One-Electron Energy =               -1862.9831259716795557
    Two-Electron Energy =                 764.9744634348523959
    Total Energy =                       -503.7231752099755795
  Basis Set: (AUG-CC-PVTZ AUX)
    Blend: AUG-CC-PVTZ-RI
    Molecular point group: c1

    Geometry (in Angstrom), charge = 0, multiplicity = 1:

       Center              X                  Y                   Z               Mass
    ------------   -----------------  -----------------  -----------------  -----------------
         N           -1.822901588673    -0.162569338354    -0.004159885755    14.003074004430
         N           -0.304921588673    -1.850452338354    -0.012270885755    14.003074004430
         N           -0.300890588673     1.748994661646    -0.002994885755    14.003074004430
         N            2.019636411327     1.035387661646    -0.011922885755    14.003074004430
         N            2.693219411327    -1.197511338354     0.074571114245    14.003074004430
         C           -0.582373588673     0.435109661646     0.000752114245    12.000000000000
         C            0.333030411327    -0.626550338354     0.004162114245    12.000000000000
         C           -1.590528588673    -1.516538338354    -0.010355885755    12.000000000000
         C            1.692167411327    -0.266110338354    -0.002560885755    12.000000000000
         C           -3.099065588673     0.532057661646    -0.001182885755    12.000000000000
         C            1.024285411327     1.949831661646    -0.013190885755    12.000000000000
         H           -2.412232588673    -2.224376338354    -0.016705885755     1.007825032230
         H           -3.179094588673     1.168547661646    -0.884150885755     1.007825032230
         H           -3.896213588673    -0.212573338354    -0.010747885755     1.007825032230
         H           -3.184794588673     1.151534661646     0.893347114245     1.007825032230
         H            1.349656311327     2.989054761646     0.133048714245     1.007825032230
         H            3.602863411327    -0.863847338354    -0.223599885755     1.007825032230
         H            2.445888411327    -2.133540338354    -0.225309885755     1.007825032230

  Basis Set: AUG-CC-PVTZ
    Blend: AUG-CC-PVTZ
  Basis Set: (AUG-CC-PVTZ AUX)
    Blend: AUG-CC-PVTZ-JKFIT
	 Reference Energy          =    -503.7231752099755226 [Eh]
	 Singles Energy            =      -0.0000000000000000 [Eh]
	 Same-Spin Energy          =      -0.5493885441331976 [Eh]
	 Opposite-Spin Energy      =      -1.6333211654358344 [Eh]
	 Correlation Energy        =      -2.1827097095690320 [Eh]
	 Total Energy              =    -505.9058849195445760 [Eh]

	 ================> DF-SCS-MP2 Energies <==================
	-----------------------------------------------------------
	 SCS Same-Spin Scale       =       0.3333333333333333 [-]
	 SCS Opposite-Spin Scale   =       1.2000000000000000 [-]
	 SCS Same-Spin Energy      =      -0.1831295147110659 [Eh]
	 SCS Opposite-Spin Energy  =      -1.9599853985230011 [Eh]
	 SCS Correlation Energy    =      -2.1431149132340668 [Eh]
	 SCS Total Energy          =    -505.8662901232095805 [Eh]
	-----------------------------------------------------------

  Dipole Moment: [D]
     X:    -2.7418      Y:    -1.1772      Z:    -0.7175     Total:     3.0689

*** Psi4 exiting successfully. Buy a developer a beer!
