                               Psi4 1.3.2 release

  ==> Input File <==

--------------------------------------------------------------------------
#psi4
#
memory 32 gb

molecule  {
0 1
  N       -1.7893040    -0.1617730    -0.0001110
  N       -0.2713240    -1.8496560    -0.0082220
  N       -0.2672930     1.7497910     0.0010540
  N        2.0532340     1.0361840    -0.0078740
  N        2.7268170    -1.1967150     0.0786200
  C       -0.5487760     0.4359060     0.0048010
  C        0.3666280    -0.6257540     0.0082110
  C       -1.5569310    -1.5157420    -0.0063070
  C        1.7257650    -0.2653140     0.0014880
  C       -3.0654680     0.5328540     0.0028660
  C        1.0578830     1.9506280    -0.0091420
  H       -2.3786350    -2.2235800    -0.0126570
  H       -3.1454970     1.1693440    -0.8801020
  H       -3.8626160    -0.2117770    -0.0066990
  H       -3.1511970     1.1523310     0.8973960
  H        1.3824760     2.9891980    -0.0128990
  H        3.6364610    -0.8630510    -0.2195510
  H        2.4616796    -2.1162510    -0.4197828
units angstrom
no_reorient  #important for SAPT in psi4, default
symmetry c1  #important for SAPT in psi4, default
}

set PROPERTIES_ORIGIN ["COM"]
properties('MP2/aug-cc-pvtz', properties = ['dipole'])
--------------------------------------------------------------------------

    Molecular point group: c1
  Charge       = 0
  Multiplicity = 1
  Basis Set: AUG-CC-PVTZ
    Blend: AUG-CC-PVTZ
  Basis Set: (AUG-CC-PVTZ AUX)
    Blend: AUG-CC-PVTZ-JKFIT

    Orbital Energies [Eh]
    ---------------------

    Doubly Occupied:

       1A    -15.633640     2A    -15.585801     3A    -15.567546
       4A    -15.562229     5A    -15.553515     6A    -11.333767
       7A    -11.323201     8A    -11.313829     9A    -11.311997
      10A    -11.289198    11A    -11.252872    12A     -1.368438
      13A     -1.296325    14A     -1.240901    15A     -1.196326
      16A     -1.150137    17A     -1.031435    18A     -0.986429
      19A     -0.889729    20A     -0.872208    21A     -0.801382
      22A     -0.749436    23A     -0.723820    24A     -0.680192
      25A     -0.667458    26A     -0.659648    27A     -0.623939
      28A     -0.602389    29A     -0.597451    30A     -0.590440
      31A     -0.571444    32A     -0.536830    33A     -0.496866
      34A     -0.492990    35A     -0.451073    36A     -0.416068
      37A     -0.409270    38A     -0.369325    39A     -0.309445

  @DF-RHF Final Energy:  -503.71855617911456

   => Energetics <=

    Nuclear Repulsion Energy =            594.1031965653122597
    One-Electron Energy =               -1862.6255321373471361
    Two-Electron Energy =                 764.8037793929204327
    Total Energy =                       -503.7185561791145574
  Basis Set: (AUG-CC-PVTZ AUX)
    Blend: AUG-CC-PVTZ-RI
    Molecular point group: c1

    Geometry (in Angstrom), charge = 0, multiplicity = 1:

       Center              X                  Y                   Z               Mass
    ------------   -----------------  -----------------  -----------------  -----------------
         N           -1.822775944986    -0.162676427857    -0.001803642209    14.003074004430
         N           -0.304795944986    -1.850559427857    -0.009914642209    14.003074004430
         N           -0.300764944986     1.748887572143    -0.000638642209    14.003074004430
         N            2.019762055014     1.035280572143    -0.009566642209    14.003074004430
         N            2.693345055014    -1.197618427857     0.076927357791    14.003074004430
         C           -0.582247944986     0.435002572143     0.003108357791    12.000000000000
         C            0.333156055014    -0.626657427857     0.006518357791    12.000000000000
         C           -1.590402944986    -1.516645427857    -0.007999642209    12.000000000000
         C            1.692293055014    -0.266217427857    -0.000204642209    12.000000000000
         C           -3.098939944986     0.531950572143     0.001173357791    12.000000000000
         C            1.024411055014     1.949724572143    -0.010834642209    12.000000000000
         H           -2.412106944986    -2.224483427857    -0.014349642209     1.007825032230
         H           -3.178968944986     1.168440572143    -0.881794642209     1.007825032230
         H           -3.896087944986    -0.212680427857    -0.008391642209     1.007825032230
         H           -3.184668944986     1.151427572143     0.895703357791     1.007825032230
         H            1.349004055014     2.988294572143    -0.014591642209     1.007825032230
         H            3.602989055014    -0.863954427857    -0.221243642209     1.007825032230
         H            2.428207655014    -2.117154427857    -0.421475442209     1.007825032230

  Basis Set: AUG-CC-PVTZ
    Blend: AUG-CC-PVTZ
  Basis Set: (AUG-CC-PVTZ AUX)
    Blend: AUG-CC-PVTZ-JKFIT
	 Reference Energy          =    -503.7185561791145574 [Eh]
	 Singles Energy            =      -0.0000000000000000 [Eh]
	 Same-Spin Energy          =      -0.5496951328415707 [Eh]
	 Opposite-Spin Energy      =      -1.6343859021547706 [Eh]
	 Correlation Energy        =      -2.1840810349963413 [Eh]
	 Total Energy              =    -505.9026372141108823 [Eh]

	 ================> DF-SCS-MP2 Energies <==================
	-----------------------------------------------------------
	 SCS Same-Spin Scale       =       0.3333333333333333 [-]
	 SCS Opposite-Spin Scale   =       1.2000000000000000 [-]
	 SCS Same-Spin Energy      =      -0.1832317109471902 [Eh]
	 SCS Opposite-Spin Energy  =      -1.9612630825857247 [Eh]
	 SCS Correlation Energy    =      -2.1444947935329148 [Eh]
	 SCS Total Energy          =    -505.8630509726474997 [Eh]
	-----------------------------------------------------------

  Dipole Moment: [D]
     X:    -2.8558      Y:    -1.0047      Z:    -1.0120     Total:     3.1921

*** Psi4 exiting successfully. Buy a developer a beer!
