                               Psi4 1.3.2 release

  ==> Input File <==

--------------------------------------------------------------------------
#psi4
#
memory 32 gb

molecule  {
0 1
  N       -1.7893040    -0.1617730    -0.0001110
  N       -0.2713240    -1.8496560    -0.0082220
  N       -0.2672930     1.7497910     0.0010540
  N        2.0532340     1.0361840    -0.0078740
  N        2.7268170    -1.1967150     0.0786200
  C       -0.5487760     0.4359060     0.0048010
  C        0.3657177    -0.6272934     0.1582003
  C       -1.5569310    -1.5157420    -0.0063070
  C        1.7257650    -0.2653140     0.0014880
  C       -3.0654680     0.5328540     0.0028660
  C        1.0578830     1.9506280    -0.0091420
  H       -2.3786350    -2.2235800    -0.0126570
  H       -3.1454970     1.1693440    -0.8801020
  H       -3.8626160    -0.2117770    -0.0066990
  H       -3.1511970     1.1523310     0.8973960
  H        1.3824760     2.9891980    -0.0128990
  H        3.6364610    -0.8630510    -0.2195510
  H        2.4794860    -2.1327440    -0.2212610
units angstrom
no_reorient  #important for SAPT in psi4, default
symmetry c1  #important for SAPT in psi4, default
}

set PROPERTIES_ORIGIN ["COM"]
properties('MP2/aug-cc-pvtz', properties = ['dipole'])
--------------------------------------------------------------------------

    Molecular point group: c1
  Charge       = 0
  Multiplicity = 1
  Basis Set: AUG-CC-PVTZ
    Blend: AUG-CC-PVTZ
  Basis Set: (AUG-CC-PVTZ AUX)
    Blend: AUG-CC-PVTZ-JKFIT

    Orbital Energies [Eh]
    ---------------------

    Doubly Occupied:

       1A    -15.632877     2A    -15.581657     3A    -15.567196
       4A    -15.560613     5A    -15.552383     6A    -11.335735
       7A    -11.322065     8A    -11.314566     9A    -11.312710
      10A    -11.288622    11A    -11.253132    12A     -1.366674
      13A     -1.296031    14A     -1.242092    15A     -1.195469
      16A     -1.152147    17A     -1.029640    18A     -0.985295
      19A     -0.889676    20A     -0.871581    21A     -0.801008
      22A     -0.752332    23A     -0.723539    24A     -0.679904
      25A     -0.673912    26A     -0.665328    27A     -0.623726
      28A     -0.604405    29A     -0.595233    30A     -0.591177
      31A     -0.571443    32A     -0.536203    33A     -0.496689
      34A     -0.491408    35A     -0.449662    36A     -0.415775
      37A     -0.405199    38A     -0.368364    39A     -0.307222

  @DF-RHF Final Energy:  -503.71690958239270

   => Energetics <=

    Nuclear Repulsion Energy =            593.9147233602441247
    One-Electron Energy =               -1862.2578776302013921
    Two-Electron Energy =                 764.6262446875646219
    Total Energy =                       -503.7169095823926455
  Basis Set: (AUG-CC-PVTZ AUX)
    Blend: AUG-CC-PVTZ-RI
    Molecular point group: c1

    Geometry (in Angstrom), charge = 0, multiplicity = 1:

       Center              X                  Y                   Z               Mass
    ------------   -----------------  -----------------  -----------------  -----------------
         N           -1.822823051237    -0.162441002727    -0.015219788253    14.003074004430
         N           -0.304843051237    -1.850324002727    -0.023330788253    14.003074004430
         N           -0.300812051237     1.749122997273    -0.014054788253    14.003074004430
         N            2.019714948763     1.035515997273    -0.022982788253    14.003074004430
         N            2.693297948763    -1.197383002727     0.063511211747    14.003074004430
         C           -0.582295051237     0.435237997273    -0.010307788253    12.000000000000
         C            0.332198648763    -0.627961402727     0.143091511747    12.000000000000
         C           -1.590450051237    -1.516410002727    -0.021415788253    12.000000000000
         C            1.692245948763    -0.265982002727    -0.013620788253    12.000000000000
         C           -3.098987051237     0.532185997273    -0.012242788253    12.000000000000
         C            1.024363948763     1.949959997273    -0.024250788253    12.000000000000
         H           -2.412154051237    -2.224248002727    -0.027765788253     1.007825032230
         H           -3.179016051237     1.168675997273    -0.895210788253     1.007825032230
         H           -3.896135051237    -0.212445002727    -0.021807788253     1.007825032230
         H           -3.184716051237     1.151662997273     0.882287211747     1.007825032230
         H            1.348956948763     2.988529997273    -0.028007788253     1.007825032230
         H            3.602941948763    -0.863719002727    -0.234659788253     1.007825032230
         H            2.445966948763    -2.133412002727    -0.236369788253     1.007825032230

  Basis Set: AUG-CC-PVTZ
    Blend: AUG-CC-PVTZ
  Basis Set: (AUG-CC-PVTZ AUX)
    Blend: AUG-CC-PVTZ-JKFIT
	 Reference Energy          =    -503.7169095823927023 [Eh]
	 Singles Energy            =      -0.0000000000000000 [Eh]
	 Same-Spin Energy          =      -0.5494404581759874 [Eh]
	 Opposite-Spin Energy      =      -1.6334994265386475 [Eh]
	 Correlation Energy        =      -2.1829398847146351 [Eh]
	 Total Energy              =    -505.8998494671073445 [Eh]

	 ================> DF-SCS-MP2 Energies <==================
	-----------------------------------------------------------
	 SCS Same-Spin Scale       =       0.3333333333333333 [-]
	 SCS Opposite-Spin Scale   =       1.2000000000000000 [-]
	 SCS Same-Spin Energy      =      -0.1831468193919958 [Eh]
	 SCS Opposite-Spin Energy  =      -1.9601993118463770 [Eh]
	 SCS Correlation Energy    =      -2.1433461312383728 [Eh]
	 SCS Total Energy          =    -505.8602557136310907 [Eh]
	-----------------------------------------------------------

  Dipole Moment: [D]
     X:    -2.7063      Y:    -1.1448      Z:    -0.7321     Total:     3.0283

*** Psi4 exiting successfully. Buy a developer a beer!
