                               Psi4 1.3.2 release

  ==> Input File <==

--------------------------------------------------------------------------
#psi4
#
memory 32 gb

molecule  {
0 1
  N       -1.7893040    -0.1617730    -0.0001110
  N       -0.2713240    -1.8496560    -0.0082220
  N       -0.2672930     1.7497910     0.0010540
  N        2.0532340     1.0361840    -0.0078740
  N        2.7268170    -1.1967150     0.0786200
  C       -0.5487760     0.4359060     0.0048010
  C        0.3666280    -0.6257540     0.0082110
  C       -1.5569310    -1.5157420    -0.0063070
  C        1.7257650    -0.2653140     0.0014880
  C       -3.0654680     0.5328540     0.0028660
  C        1.0578830     1.9506280    -0.0091420
  H       -2.3784731    -2.2227136    -0.1626544
  H       -3.1454970     1.1693440    -0.8801020
  H       -3.8626160    -0.2117770    -0.0066990
  H       -3.1511970     1.1523310     0.8973960
  H        1.3824760     2.9891980    -0.0128990
  H        3.6364610    -0.8630510    -0.2195510
  H        2.4794860    -2.1327440    -0.2212610
units angstrom
no_reorient  #important for SAPT in psi4, default
symmetry c1  #important for SAPT in psi4, default
}

set PROPERTIES_ORIGIN ["COM"]
properties('MP2/aug-cc-pvtz', properties = ['dipole'])
--------------------------------------------------------------------------

    Molecular point group: c1
  Charge       = 0
  Multiplicity = 1
  Basis Set: AUG-CC-PVTZ
    Blend: AUG-CC-PVTZ
  Basis Set: (AUG-CC-PVTZ AUX)
    Blend: AUG-CC-PVTZ-JKFIT

    Orbital Energies [Eh]
    ---------------------

    Doubly Occupied:

       1A    -15.633029     2A    -15.581148     3A    -15.567676
       4A    -15.560791     5A    -15.552502     6A    -11.334710
       7A    -11.323235     8A    -11.313195     9A    -11.311759
      10A    -11.288633    11A    -11.252070    12A     -1.367836
      13A     -1.296295    14A     -1.242399    15A     -1.196949
      16A     -1.152021    17A     -1.031253    18A     -0.986004
      19A     -0.889968    20A     -0.872204    21A     -0.802363
      22A     -0.753243    23A     -0.723871    24A     -0.680557
      25A     -0.673017    26A     -0.666549    27A     -0.623787
      28A     -0.606131    29A     -0.595534    30A     -0.592128
      31A     -0.571702    32A     -0.536411    33A     -0.495659
      34A     -0.492793    35A     -0.450620    36A     -0.414260
      37A     -0.408719    38A     -0.368447    39A     -0.307895

  @DF-RHF Final Energy:  -503.72348519364004

   => Energetics <=

    Nuclear Repulsion Energy =            594.2855769699903021
    One-Electron Energy =               -1862.9834001390845515
    Two-Electron Energy =                 764.9743379754540911
    Total Energy =                       -503.7234851936400446
  Basis Set: (AUG-CC-PVTZ AUX)
    Blend: AUG-CC-PVTZ-RI
    Molecular point group: c1

    Geometry (in Angstrom), charge = 0, multiplicity = 1:

       Center              X                  Y                   Z               Mass
    ------------   -----------------  -----------------  -----------------  -----------------
         N           -1.822897424055    -0.162570780421    -0.002131703236    14.003074004430
         N           -0.304917424055    -1.850453780421    -0.010242703236    14.003074004430
         N           -0.300886424055     1.748993219579    -0.000966703236    14.003074004430
         N            2.019640575945     1.035386219579    -0.009894703236    14.003074004430
         N            2.693223575945    -1.197512780421     0.076599296764    14.003074004430
         C           -0.582369424055     0.435108219579     0.002780296764    12.000000000000
         C            0.333034575945    -0.626551780421     0.006190296764    12.000000000000
         C           -1.590524424055    -1.516539780421    -0.008327703236    12.000000000000
         C            1.692171575945    -0.266111780421    -0.000532703236    12.000000000000
         C           -3.099061424055     0.532056219579     0.000845296764    12.000000000000
         C            1.024289575945     1.949830219579    -0.011162703236    12.000000000000
         H           -2.412066524055    -2.223511380421    -0.164675103236     1.007825032230
         H           -3.179090424055     1.168546219579    -0.882122703236     1.007825032230
         H           -3.896209424055    -0.212574780421    -0.008719703236     1.007825032230
         H           -3.184790424055     1.151533219579     0.895375296764     1.007825032230
         H            1.348882575945     2.988400219579    -0.014919703236     1.007825032230
         H            3.602867575945    -0.863848780421    -0.221571703236     1.007825032230
         H            2.445892575945    -2.133541780421    -0.223281703236     1.007825032230

  Basis Set: AUG-CC-PVTZ
    Blend: AUG-CC-PVTZ
  Basis Set: (AUG-CC-PVTZ AUX)
    Blend: AUG-CC-PVTZ-JKFIT
	 Reference Energy          =    -503.7234851936400446 [Eh]
	 Singles Energy            =      -0.0000000000000000 [Eh]
	 Same-Spin Energy          =      -0.5493823772562881 [Eh]
	 Opposite-Spin Energy      =      -1.6333353924826048 [Eh]
	 Correlation Energy        =      -2.1827177697388929 [Eh]
	 Total Energy              =    -505.9062029633789166 [Eh]

	 ================> DF-SCS-MP2 Energies <==================
	-----------------------------------------------------------
	 SCS Same-Spin Scale       =       0.3333333333333333 [-]
	 SCS Opposite-Spin Scale   =       1.2000000000000000 [-]
	 SCS Same-Spin Energy      =      -0.1831274590854294 [Eh]
	 SCS Opposite-Spin Energy  =      -1.9600024709791257 [Eh]
	 SCS Correlation Energy    =      -2.1431299300645552 [Eh]
	 SCS Total Energy          =    -505.8666151237046051 [Eh]
	-----------------------------------------------------------

  Dipole Moment: [D]
     X:    -2.7122      Y:    -1.1443      Z:    -0.8882     Total:     3.0748

*** Psi4 exiting successfully. Buy a developer a beer!
