                               Psi4 1.3.2 release

  ==> Input File <==

--------------------------------------------------------------------------
#psi4
#
memory 32 gb

molecule  {
0 1
  N       -1.7893040    -0.1617730    -0.0001110
  N       -0.2713240    -1.8496560    -0.0082220
  N       -0.2672930     1.7497910     0.0010540
  N        2.0532340     1.0361840    -0.0078740
  N        2.7268170    -1.1967150     0.0786200
  C       -0.5487760     0.4359060     0.0048010
  C        0.3666280    -0.6257540     0.0082110
  C       -1.5569310    -1.5157420    -0.0063070
  C        1.7257650    -0.2653140     0.0014880
  C       -3.0654196     0.5331136    -0.0471333
  C        1.0578830     1.9506280    -0.0091420
  H       -2.3786350    -2.2235800    -0.0126570
  H       -3.1454970     1.1693440    -0.8801020
  H       -3.8626160    -0.2117770    -0.0066990
  H       -3.1511970     1.1523310     0.8973960
  H        1.3824760     2.9891980    -0.0128990
  H        3.6364610    -0.8630510    -0.2195510
  H        2.4794860    -2.1327440    -0.2212610
units angstrom
no_reorient  #important for SAPT in psi4, default
symmetry c1  #important for SAPT in psi4, default
}

set PROPERTIES_ORIGIN ["COM"]
properties('MP2/aug-cc-pvtz', properties = ['dipole'])
--------------------------------------------------------------------------

    Molecular point group: c1
  Charge       = 0
  Multiplicity = 1
  Basis Set: AUG-CC-PVTZ
    Blend: AUG-CC-PVTZ
  Basis Set: (AUG-CC-PVTZ AUX)
    Blend: AUG-CC-PVTZ-JKFIT

    Orbital Energies [Eh]
    ---------------------

    Doubly Occupied:

       1A    -15.633206     2A    -15.581030     3A    -15.567400
       4A    -15.560726     5A    -15.552404     6A    -11.334548
       7A    -11.322555     8A    -11.313042     9A    -11.311607
      10A    -11.289097    11A    -11.251911    12A     -1.367791
      13A     -1.296193    14A     -1.242285    15A     -1.196807
      16A     -1.151915    17A     -1.031401    18A     -0.986333
      19A     -0.890796    20A     -0.872145    21A     -0.802925
      22A     -0.753630    23A     -0.724570    24A     -0.680655
      25A     -0.674402    26A     -0.666019    27A     -0.624298
      28A     -0.608609    29A     -0.600204    30A     -0.586973
      31A     -0.570846    32A     -0.535626    33A     -0.495637
      34A     -0.492581    35A     -0.450547    36A     -0.413986
      37A     -0.408681    38A     -0.368340    39A     -0.307807

  @DF-RHF Final Energy:  -503.72211913257672

   => Energetics <=

    Nuclear Repulsion Energy =            594.3168852861311962
    One-Electron Energy =               -1863.0389444875402205
    Two-Electron Energy =                 764.9999400688324158
    Total Energy =                       -503.7221191325767222
  Basis Set: (AUG-CC-PVTZ AUX)
    Blend: AUG-CC-PVTZ-RI
    Molecular point group: c1

    Geometry (in Angstrom), charge = 0, multiplicity = 1:

       Center              X                  Y                   Z               Mass
    ------------   -----------------  -----------------  -----------------  -----------------
         N           -1.822900225643    -0.162585820457     0.000879097248    14.003074004430
         N           -0.304920225643    -1.850468820457    -0.007231902752    14.003074004430
         N           -0.300889225643     1.748978179543     0.002044097248    14.003074004430
         N            2.019637774357     1.035371179543    -0.006883902752    14.003074004430
         N            2.693220774357    -1.197527820457     0.079610097248    14.003074004430
         C           -0.582372225643     0.435093179543     0.005791097248    12.000000000000
         C            0.333031774357    -0.626566820457     0.009201097248    12.000000000000
         C           -1.590527225643    -1.516554820457    -0.005316902752    12.000000000000
         C            1.692168774357    -0.266126820457     0.002478097248    12.000000000000
         C           -3.099015825643     0.532300779543    -0.046143202752    12.000000000000
         C            1.024286774357     1.949815179543    -0.008151902752    12.000000000000
         H           -2.412231225643    -2.224392820457    -0.011666902752     1.007825032230
         H           -3.179093225643     1.168531179543    -0.879111902752     1.007825032230
         H           -3.896212225643    -0.212589820457    -0.005708902752     1.007825032230
         H           -3.184793225643     1.151518179543     0.898386097248     1.007825032230
         H            1.348879774357     2.988385179543    -0.011908902752     1.007825032230
         H            3.602864774357    -0.863863820457    -0.218560902752     1.007825032230
         H            2.445889774357    -2.133556820457    -0.220270902752     1.007825032230

  Basis Set: AUG-CC-PVTZ
    Blend: AUG-CC-PVTZ
  Basis Set: (AUG-CC-PVTZ AUX)
    Blend: AUG-CC-PVTZ-JKFIT
	 Reference Energy          =    -503.7221191325767222 [Eh]
	 Singles Energy            =      -0.0000000000000000 [Eh]
	 Same-Spin Energy          =      -0.5493074834765854 [Eh]
	 Opposite-Spin Energy      =      -1.6332380236097641 [Eh]
	 Correlation Energy        =      -2.1825455070863495 [Eh]
	 Total Energy              =    -505.9046646396630535 [Eh]

	 ================> DF-SCS-MP2 Energies <==================
	-----------------------------------------------------------
	 SCS Same-Spin Scale       =       0.3333333333333333 [-]
	 SCS Opposite-Spin Scale   =       1.2000000000000000 [-]
	 SCS Same-Spin Energy      =      -0.1831024944921951 [Eh]
	 SCS Opposite-Spin Energy  =      -1.9598856283317168 [Eh]
	 SCS Correlation Energy    =      -2.1429881228239118 [Eh]
	 SCS Total Energy          =    -505.8651072554006305 [Eh]
	-----------------------------------------------------------

  Dipole Moment: [D]
     X:    -2.7299      Y:    -1.1610      Z:    -0.8378     Total:     3.0825

*** Psi4 exiting successfully. Buy a developer a beer!
