                               Psi4 1.3.2 release

  ==> Input File <==

--------------------------------------------------------------------------
#psi4
#
memory 32 gb

molecule  {
0 1
  N       -1.7893040    -0.1617730    -0.0001110
  N       -0.2713240    -1.8496560    -0.0082220
  N       -0.2672930     1.7497910     0.0010540
  N        2.0532340     1.0361840    -0.0078740
  N        2.7268170    -1.1967150     0.0786200
  C       -0.5487760     0.4359060     0.0048010
  C        0.3666280    -0.6257540     0.0082110
  C       -1.5569310    -1.5157420    -0.0063070
  C        1.7257650    -0.2653140     0.0014880
  C       -3.0653227     0.5336327    -0.1471319
  C        1.0578830     1.9506280    -0.0091420
  H       -2.3786350    -2.2235800    -0.0126570
  H       -3.1454970     1.1693440    -0.8801020
  H       -3.8626160    -0.2117770    -0.0066990
  H       -3.1511970     1.1523310     0.8973960
  H        1.3824760     2.9891980    -0.0128990
  H        3.6364610    -0.8630510    -0.2195510
  H        2.4794860    -2.1327440    -0.2212610
units angstrom
no_reorient  #important for SAPT in psi4, default
symmetry c1  #important for SAPT in psi4, default
}

set PROPERTIES_ORIGIN ["COM"]
properties('MP2/aug-cc-pvtz', properties = ['dipole'])
--------------------------------------------------------------------------

    Molecular point group: c1
  Charge       = 0
  Multiplicity = 1
  Basis Set: AUG-CC-PVTZ
    Blend: AUG-CC-PVTZ
  Basis Set: (AUG-CC-PVTZ AUX)
    Blend: AUG-CC-PVTZ-JKFIT

    Orbital Energies [Eh]
    ---------------------

    Doubly Occupied:

       1A    -15.634176     2A    -15.581194     3A    -15.567849
       4A    -15.560868     5A    -15.552579     6A    -11.334723
       7A    -11.322791     8A    -11.313184     9A    -11.311751
      10A    -11.292027    11A    -11.252154    12A     -1.367806
      13A     -1.296299    14A     -1.242442    15A     -1.196498
      16A     -1.152007    17A     -1.031594    18A     -0.988639
      19A     -0.891187    20A     -0.872510    21A     -0.803968
      22A     -0.755053    23A     -0.728416    24A     -0.682532
      25A     -0.677484    26A     -0.665326    27A     -0.627385
      28A     -0.618105    29A     -0.600097    30A     -0.580943
      31A     -0.564366    32A     -0.526928    33A     -0.495863
      34A     -0.491642    35A     -0.450766    36A     -0.412923
      37A     -0.408800    38A     -0.368039    39A     -0.308033

  @DF-RHF Final Energy:  -503.69990144023927

   => Energetics <=

    Nuclear Repulsion Energy =            594.2222494745344648
    One-Electron Energy =               -1862.7864136784360198
    Two-Electron Energy =                 764.8642627636622819
    Total Energy =                       -503.6999014402392731
  Basis Set: (AUG-CC-PVTZ AUX)
    Blend: AUG-CC-PVTZ-RI
    Molecular point group: c1

    Geometry (in Angstrom), charge = 0, multiplicity = 1:

       Center              X                  Y                   Z               Mass
    ------------   -----------------  -----------------  -----------------  -----------------
         N           -1.822908025998    -0.162627607496     0.008928886144    14.003074004430
         N           -0.304928025998    -1.850510607496     0.000817886144    14.003074004430
         N           -0.300897025998     1.748936392504     0.010093886144    14.003074004430
         N            2.019629974002     1.035329392504     0.001165886144    14.003074004430
         N            2.693212974002    -1.197569607496     0.087659886144    14.003074004430
         C           -0.582380025998     0.435051392504     0.013840886144    12.000000000000
         C            0.333023974002    -0.626608607496     0.017250886144    12.000000000000
         C           -1.590535025998    -1.516596607496     0.002732886144    12.000000000000
         C            1.692160974002    -0.266168607496     0.010527886144    12.000000000000
         C           -3.098926725998     0.532778092504    -0.138092013856    12.000000000000
         C            1.024278974002     1.949773392504    -0.000102113856    12.000000000000
         H           -2.412239025998    -2.224434607496    -0.003617113856     1.007825032230
         H           -3.179101025998     1.168489392504    -0.871062113856     1.007825032230
         H           -3.896220025998    -0.212631607496     0.002340886144     1.007825032230
         H           -3.184801025998     1.151476392504     0.906435886144     1.007825032230
         H            1.348871974002     2.988343392504    -0.003859113856     1.007825032230
         H            3.602856974002    -0.863905607496    -0.210511113856     1.007825032230
         H            2.445881974002    -2.133598607496    -0.212221113856     1.007825032230

  Basis Set: AUG-CC-PVTZ
    Blend: AUG-CC-PVTZ
  Basis Set: (AUG-CC-PVTZ AUX)
    Blend: AUG-CC-PVTZ-JKFIT
	 Reference Energy          =    -503.6999014402392731 [Eh]
	 Singles Energy            =      -0.0000000000000000 [Eh]
	 Same-Spin Energy          =      -0.5495959661971448 [Eh]
	 Opposite-Spin Energy      =      -1.6341772745454208 [Eh]
	 Correlation Energy        =      -2.1837732407425658 [Eh]
	 Total Energy              =    -505.8836746809818123 [Eh]

	 ================> DF-SCS-MP2 Energies <==================
	-----------------------------------------------------------
	 SCS Same-Spin Scale       =       0.3333333333333333 [-]
	 SCS Opposite-Spin Scale   =       1.2000000000000000 [-]
	 SCS Same-Spin Energy      =      -0.1831986553990483 [Eh]
	 SCS Opposite-Spin Energy  =      -1.9610127294545050 [Eh]
	 SCS Correlation Energy    =      -2.1442113848535533 [Eh]
	 SCS Total Energy          =    -505.8441128250928500 [Eh]
	-----------------------------------------------------------

  Dipole Moment: [D]
     X:    -2.6983      Y:    -1.1846      Z:    -0.9307     Total:     3.0903

*** Psi4 exiting successfully. Buy a developer a beer!
