                               Psi4 1.3.2 release

  ==> Input File <==

--------------------------------------------------------------------------
#psi4
#
memory 32 gb

molecule  {
0 1
  N       -1.7893040    -0.1617730    -0.0001110
  N       -0.2713240    -1.8496560    -0.0082220
  N       -0.2672930     1.7497910     0.0010540
  N        2.0532340     1.0361840    -0.0078740
  N        2.7268170    -1.1967150     0.0786200
  C       -0.5487760     0.4359060     0.0048010
  C        0.3666280    -0.6257540     0.0082110
  C       -1.5569310    -1.5157420    -0.0063070
  C        1.7257650    -0.2653140     0.0014880
  C       -3.0654680     0.5328540     0.0028660
  C        1.0578830     1.9506280    -0.0091420
  H       -2.3786350    -2.2235800    -0.0126570
  H       -3.1454970     1.1693440    -0.8801020
  H       -3.8626160    -0.2117770    -0.0066990
  H       -3.1511970     1.1523310     0.8973960
  H        1.3835133     2.9900688     0.1870964
  H        3.6364610    -0.8630510    -0.2195510
  H        2.4794860    -2.1327440    -0.2212610
units angstrom
no_reorient  #important for SAPT in psi4, default
symmetry c1  #important for SAPT in psi4, default
}

set PROPERTIES_ORIGIN ["COM"]
properties('MP2/aug-cc-pvtz', properties = ['dipole'])
--------------------------------------------------------------------------

    Molecular point group: c1
  Charge       = 0
  Multiplicity = 1
  Basis Set: AUG-CC-PVTZ
    Blend: AUG-CC-PVTZ
  Basis Set: (AUG-CC-PVTZ AUX)
    Blend: AUG-CC-PVTZ-JKFIT

    Orbital Energies [Eh]
    ---------------------

    Doubly Occupied:

       1A    -15.633217     2A    -15.581045     3A    -15.567511
       4A    -15.560954     5A    -15.552593     6A    -11.334694
       7A    -11.322717     8A    -11.313371     9A    -11.313198
      10A    -11.288821    11A    -11.252149    12A     -1.367951
      13A     -1.296288    14A     -1.242365    15A     -1.196984
      16A     -1.152057    17A     -1.031205    18A     -0.986162
      19A     -0.890397    20A     -0.871091    21A     -0.802764
      22A     -0.753566    23A     -0.723061    24A     -0.680460
      25A     -0.673259    26A     -0.666289    27A     -0.623918
      28A     -0.606668    29A     -0.594382    30A     -0.592705
      31A     -0.571182    32A     -0.537143    33A     -0.498246
      34A     -0.488516    35A     -0.450228    36A     -0.414441
      37A     -0.408580    38A     -0.368411    39A     -0.307769

  @DF-RHF Final Energy:  -503.72183922589244

   => Energetics <=

    Nuclear Repulsion Energy =            594.2534021822524437
    One-Electron Energy =               -1862.9177635969290350
    Two-Electron Energy =                 764.9425221887840962
    Total Energy =                       -503.7218392258923814
  Basis Set: (AUG-CC-PVTZ AUX)
    Blend: AUG-CC-PVTZ-RI
    Molecular point group: c1

    Geometry (in Angstrom), charge = 0, multiplicity = 1:

       Center              X                  Y                   Z               Mass
    ------------   -----------------  -----------------  -----------------  -----------------
         N           -1.822903342410    -0.162570810168    -0.004497914823    14.003074004430
         N           -0.304923342410    -1.850453810168    -0.012608914823    14.003074004430
         N           -0.300892342410     1.748993189832    -0.003332914823    14.003074004430
         N            2.019634657590     1.035386189832    -0.012260914823    14.003074004430
         N            2.693217657590    -1.197512810168     0.074233085177    14.003074004430
         C           -0.582375342410     0.435108189832     0.000414085177    12.000000000000
         C            0.333028657590    -0.626551810168     0.003824085177    12.000000000000
         C           -1.590530342410    -1.516539810168    -0.010693914823    12.000000000000
         C            1.692165657590    -0.266111810168    -0.002898914823    12.000000000000
         C           -3.099067342410     0.532056189832    -0.001520914823    12.000000000000
         C            1.024283657590     1.949830189832    -0.013528914823    12.000000000000
         H           -2.412234342410    -2.224377810168    -0.017043914823     1.007825032230
         H           -3.179096342410     1.168546189832    -0.884488914823     1.007825032230
         H           -3.896215342410    -0.212574810168    -0.011085914823     1.007825032230
         H           -3.184796342410     1.151533189832     0.893009085177     1.007825032230
         H            1.349913957590     2.989270989832     0.182709485177     1.007825032230
         H            3.602861657590    -0.863848810168    -0.223937914823     1.007825032230
         H            2.445886657590    -2.133541810168    -0.225647914823     1.007825032230

  Basis Set: AUG-CC-PVTZ
    Blend: AUG-CC-PVTZ
  Basis Set: (AUG-CC-PVTZ AUX)
    Blend: AUG-CC-PVTZ-JKFIT
	 Reference Energy          =    -503.7218392258924382 [Eh]
	 Singles Energy            =      -0.0000000000000000 [Eh]
	 Same-Spin Energy          =      -0.5494788050876406 [Eh]
	 Opposite-Spin Energy      =      -1.6334880767415241 [Eh]
	 Correlation Energy        =      -2.1829668818291648 [Eh]
	 Total Energy              =    -505.9048061077215834 [Eh]

	 ================> DF-SCS-MP2 Energies <==================
	-----------------------------------------------------------
	 SCS Same-Spin Scale       =       0.3333333333333333 [-]
	 SCS Opposite-Spin Scale   =       1.2000000000000000 [-]
	 SCS Same-Spin Energy      =      -0.1831596016958802 [Eh]
	 SCS Opposite-Spin Energy  =      -1.9601856920898288 [Eh]
	 SCS Correlation Energy    =      -2.1433452937857091 [Eh]
	 SCS Total Energy          =    -505.8651845196781665 [Eh]
	-----------------------------------------------------------

  Dipole Moment: [D]
     X:    -2.7480      Y:    -1.1918      Z:    -0.6940     Total:     3.0746

*** Psi4 exiting successfully. Buy a developer a beer!
