                               Psi4 1.3.2 release

  ==> Input File <==

--------------------------------------------------------------------------
#psi4
#
memory 32 gb

molecule  {
0 1
  N       -1.7893040    -0.1617730    -0.0001110
  N       -0.2713240    -1.8496560    -0.0082220
  N       -0.2672930     1.7497910     0.0010540
  N        2.0532340     1.0361840    -0.0078740
  N        2.7268170    -1.1967150     0.0786200
  C       -0.5487760     0.4359060     0.0048010
  C        0.3666280    -0.6257540     0.0082110
  C       -1.5569310    -1.5157420    -0.0063070
  C        1.7257650    -0.2653140     0.0014880
  C       -3.0654680     0.5328540     0.0028660
  C        1.0578830     1.9506280    -0.0091420
  H       -2.3783651    -2.2221359    -0.2626527
  H       -3.1454970     1.1693440    -0.8801020
  H       -3.8626160    -0.2117770    -0.0066990
  H       -3.1511970     1.1523310     0.8973960
  H        1.3824760     2.9891980    -0.0128990
  H        3.6364610    -0.8630510    -0.2195510
  H        2.4794860    -2.1327440    -0.2212610
units angstrom
no_reorient  #important for SAPT in psi4, default
symmetry c1  #important for SAPT in psi4, default
}

set PROPERTIES_ORIGIN ["COM"]
properties('MP2/aug-cc-pvtz', properties = ['dipole'])
--------------------------------------------------------------------------

    Molecular point group: c1
  Charge       = 0
  Multiplicity = 1
  Basis Set: AUG-CC-PVTZ
    Blend: AUG-CC-PVTZ
  Basis Set: (AUG-CC-PVTZ AUX)
    Blend: AUG-CC-PVTZ-JKFIT

    Orbital Energies [Eh]
    ---------------------

    Doubly Occupied:

       1A    -15.632944     2A    -15.581407     3A    -15.568204
       4A    -15.560933     5A    -15.552713     6A    -11.335036
       7A    -11.324466     8A    -11.313478     9A    -11.312055
      10A    -11.288465    11A    -11.252400    12A     -1.367916
      13A     -1.296498    14A     -1.242634    15A     -1.197126
      16A     -1.152228    17A     -1.031063    18A     -0.985922
      19A     -0.888713    20A     -0.872390    21A     -0.801644
      22A     -0.752854    23A     -0.723520    24A     -0.680304
      25A     -0.672932    26A     -0.666451    27A     -0.622660
      28A     -0.605728    29A     -0.594169    30A     -0.592229
      31A     -0.571497    32A     -0.535803    33A     -0.495818
      34A     -0.492947    35A     -0.450781    36A     -0.414376
      37A     -0.408934    38A     -0.368532    39A     -0.308078

  @DF-RHF Final Energy:  -503.72077721281551

   => Energetics <=

    Nuclear Repulsion Energy =            594.2125559274624038
    One-Electron Energy =               -1862.8349705859877758
    Two-Electron Energy =                 764.9016374457099801
    Total Energy =                       -503.7207772128155057
  Basis Set: (AUG-CC-PVTZ AUX)
    Blend: AUG-CC-PVTZ-RI
    Molecular point group: c1

    Geometry (in Angstrom), charge = 0, multiplicity = 1:

       Center              X                  Y                   Z               Mass
    ------------   -----------------  -----------------  -----------------  -----------------
         N           -1.822898154216    -0.162574686102    -0.001455640368    14.003074004430
         N           -0.304918154216    -1.850457686102    -0.009566640368    14.003074004430
         N           -0.300887154216     1.748989313898    -0.000290640368    14.003074004430
         N            2.019639845784     1.035382313898    -0.009218640368    14.003074004430
         N            2.693222845784    -1.197516686102     0.077275359632    14.003074004430
         C           -0.582370154216     0.435104313898     0.003456359632    12.000000000000
         C            0.333033845784    -0.626555686102     0.006866359632    12.000000000000
         C           -1.590525154216    -1.516543686102    -0.007651640368    12.000000000000
         C            1.692170845784    -0.266115686102     0.000143359632    12.000000000000
         C           -3.099062154216     0.532052313898     0.001521359632    12.000000000000
         C            1.024288845784     1.949826313898    -0.010486640368    12.000000000000
         H           -2.411959254216    -2.222937586102    -0.263997340368     1.007825032230
         H           -3.179091154216     1.168542313898    -0.881446640368     1.007825032230
         H           -3.896210154216    -0.212578686102    -0.008043640368     1.007825032230
         H           -3.184791154216     1.151529313898     0.896051359632     1.007825032230
         H            1.348881845784     2.988396313898    -0.014243640368     1.007825032230
         H            3.602866845784    -0.863852686102    -0.220895640368     1.007825032230
         H            2.445891845784    -2.133545686102    -0.222605640368     1.007825032230

  Basis Set: AUG-CC-PVTZ
    Blend: AUG-CC-PVTZ
  Basis Set: (AUG-CC-PVTZ AUX)
    Blend: AUG-CC-PVTZ-JKFIT
	 Reference Energy          =    -503.7207772128155057 [Eh]
	 Singles Energy            =      -0.0000000000000000 [Eh]
	 Same-Spin Energy          =      -0.5495756526264588 [Eh]
	 Opposite-Spin Energy      =      -1.6337335116118248 [Eh]
	 Correlation Energy        =      -2.1833091642382838 [Eh]
	 Total Energy              =    -505.9040863770537726 [Eh]

	 ================> DF-SCS-MP2 Energies <==================
	-----------------------------------------------------------
	 SCS Same-Spin Scale       =       0.3333333333333333 [-]
	 SCS Opposite-Spin Scale   =       1.2000000000000000 [-]
	 SCS Same-Spin Energy      =      -0.1831918842088196 [Eh]
	 SCS Opposite-Spin Energy  =      -1.9604802139341897 [Eh]
	 SCS Correlation Energy    =      -2.1436720981430093 [Eh]
	 SCS Total Energy          =    -505.8644493109584914 [Eh]
	-----------------------------------------------------------

  Dipole Moment: [D]
     X:    -2.6745      Y:    -1.1216      Z:    -0.9528     Total:     3.0526

*** Psi4 exiting successfully. Buy a developer a beer!
