                               Psi4 1.3.2 release

  ==> Input File <==

--------------------------------------------------------------------------
#psi4
#
memory 32 gb

molecule  {
0 1
  N       -1.7893040    -0.1617730    -0.0001110
  N       -0.2713240    -1.8496560    -0.0082220
  N       -0.2672930     1.7497910     0.0010540
  N        2.0532340     1.0361840    -0.0078740
  N        2.7268170    -1.1967150     0.0786200
  C       -0.5487760     0.4359060     0.0048010
  C        0.3648075    -0.6288328     0.3081897
  C       -1.5569310    -1.5157420    -0.0063070
  C        1.7257650    -0.2653140     0.0014880
  C       -3.0654680     0.5328540     0.0028660
  C        1.0578830     1.9506280    -0.0091420
  H       -2.3786350    -2.2235800    -0.0126570
  H       -3.1454970     1.1693440    -0.8801020
  H       -3.8626160    -0.2117770    -0.0066990
  H       -3.1511970     1.1523310     0.8973960
  H        1.3824760     2.9891980    -0.0128990
  H        3.6364610    -0.8630510    -0.2195510
  H        2.4794860    -2.1327440    -0.2212610
units angstrom
no_reorient  #important for SAPT in psi4, default
symmetry c1  #important for SAPT in psi4, default
}

set PROPERTIES_ORIGIN ["COM"]
properties('MP2/aug-cc-pvtz', properties = ['dipole'])
--------------------------------------------------------------------------

    Molecular point group: c1
  Charge       = 0
  Multiplicity = 1
  Basis Set: AUG-CC-PVTZ
    Blend: AUG-CC-PVTZ
  Basis Set: (AUG-CC-PVTZ AUX)
    Blend: AUG-CC-PVTZ-JKFIT

    Orbital Energies [Eh]
    ---------------------

    Doubly Occupied:

       1A    -15.632635     2A    -15.583058     3A    -15.566647
       4A    -15.560505     5A    -15.552278     6A    -11.339057
       7A    -11.321152     8A    -11.319372     9A    -11.316059
      10A    -11.288547    11A    -11.256360    12A     -1.363900
      13A     -1.295861    14A     -1.241753    15A     -1.191363
      16A     -1.152838    17A     -1.025299    18A     -0.983433
      19A     -0.887326    20A     -0.870084    21A     -0.796775
      22A     -0.749420    23A     -0.721855    24A     -0.679799
      25A     -0.673160    26A     -0.663718    27A     -0.622235
      28A     -0.601143    29A     -0.592217    30A     -0.589506
      31A     -0.570516    32A     -0.532902    33A     -0.498037
      34A     -0.489591    35A     -0.446872    36A     -0.416003
      37A     -0.399685    38A     -0.368489    39A     -0.306789

  @DF-RHF Final Energy:  -503.69479013301435

   => Energetics <=

    Nuclear Repulsion Energy =            592.7971166637340730
    One-Electron Energy =               -1860.0513412663608506
    Two-Electron Energy =                 763.5594344696125972
    Total Energy =                       -503.6947901330142940
  Basis Set: (AUG-CC-PVTZ AUX)
    Blend: AUG-CC-PVTZ-RI
    Molecular point group: c1

    Geometry (in Angstrom), charge = 0, multiplicity = 1:

       Center              X                  Y                   Z               Mass
    ------------   -----------------  -----------------  -----------------  -----------------
         N           -1.822749781032    -0.162317082542    -0.027293787356    14.003074004430
         N           -0.304769781032    -1.850200082542    -0.035404787356    14.003074004430
         N           -0.300738781032     1.749246917458    -0.026128787356    14.003074004430
         N            2.019788218968     1.035639917458    -0.035056787356    14.003074004430
         N            2.693371218968    -1.197259082542     0.051437212644    14.003074004430
         C           -0.582221781032     0.435361917458    -0.022381787356    12.000000000000
         C            0.331361718968    -0.629376882542     0.281006912644    12.000000000000
         C           -1.590376781032    -1.516286082542    -0.033489787356    12.000000000000
         C            1.692319218968    -0.265858082542    -0.025694787356    12.000000000000
         C           -3.098913781032     0.532309917458    -0.024316787356    12.000000000000
         C            1.024437218968     1.950083917458    -0.036324787356    12.000000000000
         H           -2.412080781032    -2.224124082542    -0.039839787356     1.007825032230
         H           -3.178942781032     1.168799917458    -0.907284787356     1.007825032230
         H           -3.896061781032    -0.212321082542    -0.033881787356     1.007825032230
         H           -3.184642781032     1.151786917458     0.870213212644     1.007825032230
         H            1.349030218968     2.988653917458    -0.040081787356     1.007825032230
         H            3.603015218968    -0.863595082542    -0.246733787356     1.007825032230
         H            2.446040218968    -2.133288082542    -0.248443787356     1.007825032230

  Basis Set: AUG-CC-PVTZ
    Blend: AUG-CC-PVTZ
  Basis Set: (AUG-CC-PVTZ AUX)
    Blend: AUG-CC-PVTZ-JKFIT
	 Reference Energy          =    -503.6947901330143509 [Eh]
	 Singles Energy            =      -0.0000000000000000 [Eh]
	 Same-Spin Energy          =      -0.5497706452367237 [Eh]
	 Opposite-Spin Energy      =      -1.6354236008999257 [Eh]
	 Correlation Energy        =      -2.1851942461366494 [Eh]
	 Total Energy              =    -505.8799843791509829 [Eh]

	 ================> DF-SCS-MP2 Energies <==================
	-----------------------------------------------------------
	 SCS Same-Spin Scale       =       0.3333333333333333 [-]
	 SCS Opposite-Spin Scale   =       1.2000000000000000 [-]
	 SCS Same-Spin Energy      =      -0.1832568817455746 [Eh]
	 SCS Opposite-Spin Energy  =      -1.9625083210799108 [Eh]
	 SCS Correlation Energy    =      -2.1457652028254852 [Eh]
	 SCS Total Energy          =    -505.8405553358398379 [Eh]
	-----------------------------------------------------------

  Dipole Moment: [D]
     X:    -2.6503      Y:    -1.0981      Z:    -0.6898     Total:     2.9506

*** Psi4 exiting successfully. Buy a developer a beer!
