                               Psi4 1.3.2 release

  ==> Input File <==

--------------------------------------------------------------------------
#psi4
#
memory 32 gb

molecule  {
0 1
  N       -1.7893040    -0.1617730    -0.0001110
  N       -0.2713240    -1.8496560    -0.0082220
  N       -0.2672930     1.7497910     0.0010540
  N        2.0532340     1.0361840    -0.0078740
  N        2.7268170    -1.1967150     0.0786200
  C       -0.5487760     0.4359060     0.0048010
  C        0.3666280    -0.6257540     0.0082110
  C       -1.5569310    -1.5157420    -0.0063070
  C        1.7258429    -0.2638801    -0.2485079
  C       -3.0654680     0.5328540     0.0028660
  C        1.0578830     1.9506280    -0.0091420
  H       -2.3786350    -2.2235800    -0.0126570
  H       -3.1454970     1.1693440    -0.8801020
  H       -3.8626160    -0.2117770    -0.0066990
  H       -3.1511970     1.1523310     0.8973960
  H        1.3824760     2.9891980    -0.0128990
  H        3.6364610    -0.8630510    -0.2195510
  H        2.4794860    -2.1327440    -0.2212610
units angstrom
no_reorient  #important for SAPT in psi4, default
symmetry c1  #important for SAPT in psi4, default
}

set PROPERTIES_ORIGIN ["COM"]
properties('MP2/aug-cc-pvtz', properties = ['dipole'])
--------------------------------------------------------------------------

    Molecular point group: c1
  Charge       = 0
  Multiplicity = 1
  Basis Set: AUG-CC-PVTZ
    Blend: AUG-CC-PVTZ
  Basis Set: (AUG-CC-PVTZ AUX)
    Blend: AUG-CC-PVTZ-JKFIT

    Orbital Energies [Eh]
    ---------------------

    Doubly Occupied:

       1A    -15.634222     2A    -15.580608     3A    -15.567482
       4A    -15.564811     5A    -15.557560     6A    -11.337949
       7A    -11.324987     8A    -11.313854     9A    -11.310602
      10A    -11.289674    11A    -11.257530    12A     -1.368961
      13A     -1.292027    14A     -1.238131    15A     -1.196111
      16A     -1.148114    17A     -1.030231    18A     -0.986166
      19A     -0.889521    20A     -0.867941    21A     -0.800341
      22A     -0.749671    23A     -0.718816    24A     -0.677478
      25A     -0.669521    26A     -0.664797    27A     -0.619668
      28A     -0.604845    29A     -0.598995    30A     -0.580949
      31A     -0.572254    32A     -0.535537    33A     -0.497493
      34A     -0.492033    35A     -0.450924    36A     -0.413524
      37A     -0.410955    38A     -0.365333    39A     -0.308538

  @DF-RHF Final Energy:  -503.69503133596226

   => Energetics <=

    Nuclear Repulsion Energy =            593.2566967682633958
    One-Electron Energy =               -1860.9271509429850084
    Two-Electron Energy =                 763.9754228387594139
    Total Energy =                       -503.6950313359623124
  Basis Set: (AUG-CC-PVTZ AUX)
    Blend: AUG-CC-PVTZ-RI
    Molecular point group: c1

    Geometry (in Angstrom), charge = 0, multiplicity = 1:

       Center              X                  Y                   Z               Mass
    ------------   -----------------  -----------------  -----------------  -----------------
         N           -1.822902600364    -0.162680350451     0.016978626741    14.003074004430
         N           -0.304922600364    -1.850563350451     0.008867626741    14.003074004430
         N           -0.300891600364     1.748883649549     0.018143626741    14.003074004430
         N            2.019635399636     1.035276649549     0.009215626741    14.003074004430
         N            2.693218399636    -1.197622350451     0.095709626741    14.003074004430
         C           -0.582374600364     0.434998649549     0.021890626741    12.000000000000
         C            0.333029399636    -0.626661350451     0.025300626741    12.000000000000
         C           -1.590529600364    -1.516649350451     0.010782626741    12.000000000000
         C            1.692244299636    -0.264787450451    -0.231418273259    12.000000000000
         C           -3.099066600364     0.531946649549     0.019955626741    12.000000000000
         C            1.024284399636     1.949720649549     0.007947626741    12.000000000000
         H           -2.412233600364    -2.224487350451     0.004432626741     1.007825032230
         H           -3.179095600364     1.168436649549    -0.863012373259     1.007825032230
         H           -3.896214600364    -0.212684350451     0.010390626741     1.007825032230
         H           -3.184795600364     1.151423649549     0.914485626741     1.007825032230
         H            1.348877399636     2.988290649549     0.004190626741     1.007825032230
         H            3.602862399636    -0.863958350451    -0.202461373259     1.007825032230
         H            2.445887399636    -2.133651350451    -0.204171373259     1.007825032230

  Basis Set: AUG-CC-PVTZ
    Blend: AUG-CC-PVTZ
  Basis Set: (AUG-CC-PVTZ AUX)
    Blend: AUG-CC-PVTZ-JKFIT
	 Reference Energy          =    -503.6950313359622555 [Eh]
	 Singles Energy            =      -0.0000000000000000 [Eh]
	 Same-Spin Energy          =      -0.5512759755389212 [Eh]
	 Opposite-Spin Energy      =      -1.6376185183315286 [Eh]
	 Correlation Energy        =      -2.1888944938704498 [Eh]
	 Total Energy              =    -505.8839258298327195 [Eh]

	 ================> DF-SCS-MP2 Energies <==================
	-----------------------------------------------------------
	 SCS Same-Spin Scale       =       0.3333333333333333 [-]
	 SCS Opposite-Spin Scale   =       1.2000000000000000 [-]
	 SCS Same-Spin Energy      =      -0.1837586585129737 [Eh]
	 SCS Opposite-Spin Energy  =      -1.9651422219978343 [Eh]
	 SCS Correlation Energy    =      -2.1489008805108081 [Eh]
	 SCS Total Energy          =    -505.8439322164730356 [Eh]
	-----------------------------------------------------------

  Dipole Moment: [D]
     X:    -2.9977      Y:    -1.0037      Z:    -0.9234     Total:     3.2934

*** Psi4 exiting successfully. Buy a developer a beer!
