                               Psi4 1.3.2 release

  ==> Input File <==

--------------------------------------------------------------------------
#psi4
#
memory 32 gb

molecule  {
0 1
  N       -1.7893040    -0.1617730    -0.0001110
  N       -0.2713240    -1.8496560    -0.0082220
  N       -0.2672930     1.7497910     0.0010540
  N        2.0532340     1.0361840    -0.0078740
  N        2.7268170    -1.1967150     0.0786200
  C       -0.5487760     0.4359060     0.0048010
  C        0.3654143    -0.6278065     0.2081968
  C       -1.5569310    -1.5157420    -0.0063070
  C        1.7257650    -0.2653140     0.0014880
  C       -3.0654680     0.5328540     0.0028660
  C        1.0578830     1.9506280    -0.0091420
  H       -2.3786350    -2.2235800    -0.0126570
  H       -3.1454970     1.1693440    -0.8801020
  H       -3.8626160    -0.2117770    -0.0066990
  H       -3.1511970     1.1523310     0.8973960
  H        1.3824760     2.9891980    -0.0128990
  H        3.6364610    -0.8630510    -0.2195510
  H        2.4794860    -2.1327440    -0.2212610
units angstrom
no_reorient  #important for SAPT in psi4, default
symmetry c1  #important for SAPT in psi4, default
}

set PROPERTIES_ORIGIN ["COM"]
properties('MP2/aug-cc-pvtz', properties = ['dipole'])
--------------------------------------------------------------------------

    Molecular point group: c1
  Charge       = 0
  Multiplicity = 1
  Basis Set: AUG-CC-PVTZ
    Blend: AUG-CC-PVTZ
  Basis Set: (AUG-CC-PVTZ AUX)
    Blend: AUG-CC-PVTZ-JKFIT

    Orbital Energies [Eh]
    ---------------------

    Doubly Occupied:

       1A    -15.632795     2A    -15.582034     3A    -15.567090
       4A    -15.560567     5A    -15.552350     6A    -11.336639
       7A    -11.321800     8A    -11.315832     9A    -11.313571
      10A    -11.288592    11A    -11.254023    12A     -1.365912
      13A     -1.295965    14A     -1.241976    15A     -1.194412
      16A     -1.152326    17A     -1.028465    18A     -0.984791
      19A     -0.888972    20A     -0.871219    21A     -0.799797
      22A     -0.751545    23A     -0.723088    24A     -0.679712
      25A     -0.673922    26A     -0.664812    27A     -0.623286
      28A     -0.603379    29A     -0.594399    30A     -0.590813
      31A     -0.571213    32A     -0.535412    33A     -0.497164
      34A     -0.490813    35A     -0.448956    36A     -0.416000
      37A     -0.403589    38A     -0.368378    39A     -0.307037

  @DF-RHF Final Energy:  -503.71110809102038

   => Energetics <=

    Nuclear Repulsion Energy =            593.6172441719008930
    One-Electron Energy =               -1861.6714162348262107
    Two-Electron Energy =                 764.3430639719049395
    Total Energy =                       -503.7111080910203782
  Basis Set: (AUG-CC-PVTZ AUX)
    Blend: AUG-CC-PVTZ-RI
    Molecular point group: c1

    Geometry (in Angstrom), charge = 0, multiplicity = 1:

       Center              X                  Y                   Z               Mass
    ------------   -----------------  -----------------  -----------------  -----------------
         N           -1.822798627835    -0.162399698682    -0.019244457304    14.003074004430
         N           -0.304818627835    -1.850282698682    -0.027355457304    14.003074004430
         N           -0.300787627835     1.749164301318    -0.018079457304    14.003074004430
         N            2.019739372165     1.035557301318    -0.027007457304    14.003074004430
         N            2.693322372165    -1.197341698682     0.059486542696    14.003074004430
         C           -0.582270627835     0.435279301318    -0.014332457304    12.000000000000
         C            0.331919672165    -0.628433198682     0.189063342696    12.000000000000
         C           -1.590425627835    -1.516368698682    -0.025440457304    12.000000000000
         C            1.692270372165    -0.265940698682    -0.017645457304    12.000000000000
         C           -3.098962627835     0.532227301318    -0.016267457304    12.000000000000
         C            1.024388372165     1.950001301318    -0.028275457304    12.000000000000
         H           -2.412129627835    -2.224206698682    -0.031790457304     1.007825032230
         H           -3.178991627835     1.168717301318    -0.899235457304     1.007825032230
         H           -3.896110627835    -0.212403698682    -0.025832457304     1.007825032230
         H           -3.184691627835     1.151704301318     0.878262542696     1.007825032230
         H            1.348981372165     2.988571301318    -0.032032457304     1.007825032230
         H            3.602966372165    -0.863677698682    -0.238684457304     1.007825032230
         H            2.445991372165    -2.133370698682    -0.240394457304     1.007825032230

  Basis Set: AUG-CC-PVTZ
    Blend: AUG-CC-PVTZ
  Basis Set: (AUG-CC-PVTZ AUX)
    Blend: AUG-CC-PVTZ-JKFIT
	 Reference Energy          =    -503.7111080910203782 [Eh]
	 Singles Energy            =      -0.0000000000000000 [Eh]
	 Same-Spin Energy          =      -0.5495380986820526 [Eh]
	 Opposite-Spin Energy      =      -1.6339598408442564 [Eh]
	 Correlation Energy        =      -2.1834979395263092 [Eh]
	 Total Energy              =    -505.8946060305466972 [Eh]

	 ================> DF-SCS-MP2 Energies <==================
	-----------------------------------------------------------
	 SCS Same-Spin Scale       =       0.3333333333333333 [-]
	 SCS Opposite-Spin Scale   =       1.2000000000000000 [-]
	 SCS Same-Spin Energy      =      -0.1831793662273509 [Eh]
	 SCS Opposite-Spin Energy  =      -1.9607518090131075 [Eh]
	 SCS Correlation Energy    =      -2.1439311752404584 [Eh]
	 SCS Total Energy          =    -505.8550392662608601 [Eh]
	-----------------------------------------------------------

  Dipole Moment: [D]
     X:    -2.6909      Y:    -1.1331      Z:    -0.7157     Total:     3.0062

*** Psi4 exiting successfully. Buy a developer a beer!
