                               Psi4 1.3.2 release

  ==> Input File <==

--------------------------------------------------------------------------
#psi4
#
memory 32 gb

molecule  {
0 1
  N       -1.7893040    -0.1617730    -0.0001110
  N       -0.2713240    -1.8496560    -0.0082220
  N       -0.2672930     1.7497910     0.0010540
  N        2.0532340     1.0361840    -0.0078740
  N        2.7268170    -1.1967150     0.0786200
  C       -0.5487760     0.4359060     0.0048010
  C        0.3666280    -0.6257540     0.0082110
  C       -1.5569310    -1.5157420    -0.0063070
  C        1.7258585    -0.2635933    -0.2985071
  C       -3.0654680     0.5328540     0.0028660
  C        1.0578830     1.9506280    -0.0091420
  H       -2.3786350    -2.2235800    -0.0126570
  H       -3.1454970     1.1693440    -0.8801020
  H       -3.8626160    -0.2117770    -0.0066990
  H       -3.1511970     1.1523310     0.8973960
  H        1.3824760     2.9891980    -0.0128990
  H        3.6364610    -0.8630510    -0.2195510
  H        2.4794860    -2.1327440    -0.2212610
units angstrom
no_reorient  #important for SAPT in psi4, default
symmetry c1  #important for SAPT in psi4, default
}

set PROPERTIES_ORIGIN ["COM"]
properties('MP2/aug-cc-pvtz', properties = ['dipole'])
--------------------------------------------------------------------------

    Molecular point group: c1
  Charge       = 0
  Multiplicity = 1
  Basis Set: AUG-CC-PVTZ
    Blend: AUG-CC-PVTZ
  Basis Set: (AUG-CC-PVTZ AUX)
    Blend: AUG-CC-PVTZ-JKFIT

    Orbital Energies [Eh]
    ---------------------

    Doubly Occupied:

       1A    -15.634651     2A    -15.580072     3A    -15.567544
       4A    -15.566261     5A    -15.559462     6A    -11.339498
       7A    -11.325969     8A    -11.314153     9A    -11.310095
      10A    -11.290023    11A    -11.259729    12A     -1.369401
      13A     -1.290352    14A     -1.236412    15A     -1.195691
      16A     -1.146226    17A     -1.029724    18A     -0.986176
      19A     -0.888983    20A     -0.866226    21A     -0.799888
      22A     -0.747977    23A     -0.717797    24A     -0.676561
      25A     -0.669159    26A     -0.663352    27A     -0.617869
      28A     -0.604059    29A     -0.599054    30A     -0.577939
      31A     -0.572008    32A     -0.535008    33A     -0.497624
      34A     -0.491728    35A     -0.450956    36A     -0.413421
      37A     -0.411219    38A     -0.363938    39A     -0.308507

  @DF-RHF Final Energy:  -503.68262367409409

   => Energetics <=

    Nuclear Repulsion Energy =            592.8232877645440340
    One-Electron Energy =               -1860.0624058619678181
    Two-Electron Energy =                 763.5564944233295819
    Total Energy =                       -503.6826236740940885
  Basis Set: (AUG-CC-PVTZ AUX)
    Blend: AUG-CC-PVTZ-RI
    Molecular point group: c1

    Geometry (in Angstrom), charge = 0, multiplicity = 1:

       Center              X                  Y                   Z               Mass
    ------------   -----------------  -----------------  -----------------  -----------------
         N           -1.822903856149    -0.162703437569     0.021003513140    14.003074004430
         N           -0.304923856149    -1.850586437569     0.012892513140    14.003074004430
         N           -0.300892856149     1.748860562431     0.022168513140    14.003074004430
         N            2.019634143851     1.035253562431     0.013240513140    14.003074004430
         N            2.693217143851    -1.197645437569     0.099734513140    14.003074004430
         C           -0.582375856149     0.434975562431     0.025915513140    12.000000000000
         C            0.333028143851    -0.626684437569     0.029325513140    12.000000000000
         C           -1.590530856149    -1.516672437569     0.014807513140    12.000000000000
         C            1.692258643851    -0.264523737569    -0.277392586860    12.000000000000
         C           -3.099067856149     0.531923562431     0.023980513140    12.000000000000
         C            1.024283143851     1.949697562431     0.011972513140    12.000000000000
         H           -2.412234856149    -2.224510437569     0.008457513140     1.007825032230
         H           -3.179096856149     1.168413562431    -0.858987486860     1.007825032230
         H           -3.896215856149    -0.212707437569     0.014415513140     1.007825032230
         H           -3.184796856149     1.151400562431     0.918510513140     1.007825032230
         H            1.348876143851     2.988267562431     0.008215513140     1.007825032230
         H            3.602861143851    -0.863981437569    -0.198436486860     1.007825032230
         H            2.445886143851    -2.133674437569    -0.200146486860     1.007825032230

  Basis Set: AUG-CC-PVTZ
    Blend: AUG-CC-PVTZ
  Basis Set: (AUG-CC-PVTZ AUX)
    Blend: AUG-CC-PVTZ-JKFIT
	 Reference Energy          =    -503.6826236740940885 [Eh]
	 Singles Energy            =      -0.0000000000000000 [Eh]
	 Same-Spin Energy          =      -0.5520781522928987 [Eh]
	 Opposite-Spin Energy      =      -1.6396119523880652 [Eh]
	 Correlation Energy        =      -2.1916901046809638 [Eh]
	 Total Energy              =    -505.8743137787750470 [Eh]

	 ================> DF-SCS-MP2 Energies <==================
	-----------------------------------------------------------
	 SCS Same-Spin Scale       =       0.3333333333333333 [-]
	 SCS Opposite-Spin Scale   =       1.2000000000000000 [-]
	 SCS Same-Spin Energy      =      -0.1840260507642996 [Eh]
	 SCS Opposite-Spin Energy  =      -1.9675343428656782 [Eh]
	 SCS Correlation Energy    =      -2.1515603936299779 [Eh]
	 SCS Total Energy          =    -505.8341840677240384 [Eh]
	-----------------------------------------------------------

  Dipole Moment: [D]
     X:    -3.0940      Y:    -0.9515      Z:    -0.9362     Total:     3.3697

*** Psi4 exiting successfully. Buy a developer a beer!
