                               Psi4 1.3.2 release

  ==> Input File <==

--------------------------------------------------------------------------
#psi4
#
memory 32 gb

molecule  {
0 1
  N       -1.7893040    -0.1617730    -0.0001110
  N       -0.2713240    -1.8496560    -0.0082220
  N       -0.2672930     1.7497910     0.0010540
  N        2.0532340     1.0361840    -0.0078740
  N        2.7268170    -1.1967150     0.0786200
  C       -0.5487760     0.4359060     0.0048010
  C        0.3699363    -0.6305620    -0.1416754
  C       -1.5569310    -1.5157420    -0.0063070
  C        1.7257650    -0.2653140     0.0014880
  C       -3.0654680     0.5328540     0.0028660
  C        1.0578830     1.9506280    -0.0091420
  H       -2.3786350    -2.2235800    -0.0126570
  H       -3.1454970     1.1693440    -0.8801020
  H       -3.8626160    -0.2117770    -0.0066990
  H       -3.1511970     1.1523310     0.8973960
  H        1.3824760     2.9891980    -0.0128990
  H        3.6364610    -0.8630510    -0.2195510
  H        2.4794860    -2.1327440    -0.2212610
units angstrom
no_reorient  #important for SAPT in psi4, default
symmetry c1  #important for SAPT in psi4, default
}

set PROPERTIES_ORIGIN ["COM"]
properties('MP2/aug-cc-pvtz', properties = ['dipole'])
--------------------------------------------------------------------------

    Molecular point group: c1
  Charge       = 0
  Multiplicity = 1
  Basis Set: AUG-CC-PVTZ
    Blend: AUG-CC-PVTZ
  Basis Set: (AUG-CC-PVTZ AUX)
    Blend: AUG-CC-PVTZ-JKFIT

    Orbital Energies [Eh]
    ---------------------

    Doubly Occupied:

       1A    -15.633572     2A    -15.580607     3A    -15.567431
       4A    -15.560783     5A    -15.552237     6A    -11.335451
       7A    -11.322440     8A    -11.315549     9A    -11.312610
      10A    -11.288990    11A    -11.253397    12A     -1.367076
      13A     -1.296060    14A     -1.242189    15A     -1.196328
      16A     -1.152011    17A     -1.029616    18A     -0.986007
      19A     -0.889976    20A     -0.872139    21A     -0.800770
      22A     -0.752593    23A     -0.724035    24A     -0.680821
      25A     -0.673256    26A     -0.666069    27A     -0.624860
      28A     -0.605627    29A     -0.597337    30A     -0.590443
      31A     -0.571842    32A     -0.534910    33A     -0.496351
      34A     -0.491948    35A     -0.449757    36A     -0.412831
      37A     -0.408363    38A     -0.368408    39A     -0.307339

  @DF-RHF Final Energy:  -503.71842028947242

   => Energetics <=

    Nuclear Repulsion Energy =            593.9468446607015721
    One-Electron Energy =               -1862.3064718794043984
    Two-Electron Energy =                 764.6412069292304068
    Total Energy =                       -503.7184202894724194
  Basis Set: (AUG-CC-PVTZ AUX)
    Blend: AUG-CC-PVTZ-RI
    Molecular point group: c1

    Geometry (in Angstrom), charge = 0, multiplicity = 1:

       Center              X                  Y                   Z               Mass
    ------------   -----------------  -----------------  -----------------  -----------------
         N           -1.823162644385    -0.162177883644     0.008919910504    14.003074004430
         N           -0.305182644385    -1.850060883644     0.000808910504    14.003074004430
         N           -0.301151644385     1.749386116356     0.010084910504    14.003074004430
         N            2.019375355615     1.035779116356     0.001156910504    14.003074004430
         N            2.692958355615    -1.197119883644     0.087650910504    14.003074004430
         C           -0.582634644385     0.435501116356     0.013831910504    12.000000000000
         C            0.336077655615    -0.630966883644    -0.132644489496    12.000000000000
         C           -1.590789644385    -1.516146883644     0.002723910504    12.000000000000
         C            1.691906355615    -0.265718883644     0.010518910504    12.000000000000
         C           -3.099326644385     0.532449116356     0.011896910504    12.000000000000
         C            1.024024355615     1.950223116356    -0.000111089496    12.000000000000
         H           -2.412493644385    -2.223984883644    -0.003626089496     1.007825032230
         H           -3.179355644385     1.168939116356    -0.871071089496     1.007825032230
         H           -3.896474644385    -0.212181883644     0.002331910504     1.007825032230
         H           -3.185055644385     1.151926116356     0.906426910504     1.007825032230
         H            1.348617355615     2.988793116356    -0.003868089496     1.007825032230
         H            3.602602355615    -0.863455883644    -0.210520089496     1.007825032230
         H            2.445627355615    -2.133148883644    -0.212230089496     1.007825032230

  Basis Set: AUG-CC-PVTZ
    Blend: AUG-CC-PVTZ
  Basis Set: (AUG-CC-PVTZ AUX)
    Blend: AUG-CC-PVTZ-JKFIT
	 Reference Energy          =    -503.7184202894724194 [Eh]
	 Singles Energy            =      -0.0000000000000000 [Eh]
	 Same-Spin Energy          =      -0.5494064989570507 [Eh]
	 Opposite-Spin Energy      =      -1.6331950582810841 [Eh]
	 Correlation Energy        =      -2.1826015572381348 [Eh]
	 Total Energy              =    -505.9010218467105346 [Eh]

	 ================> DF-SCS-MP2 Energies <==================
	-----------------------------------------------------------
	 SCS Same-Spin Scale       =       0.3333333333333333 [-]
	 SCS Opposite-Spin Scale   =       1.2000000000000000 [-]
	 SCS Same-Spin Energy      =      -0.1831354996523502 [Eh]
	 SCS Opposite-Spin Energy  =      -1.9598340699373009 [Eh]
	 SCS Correlation Energy    =      -2.1429695695896513 [Eh]
	 SCS Total Energy          =    -505.8613898590620579 [Eh]
	-----------------------------------------------------------

  Dipole Moment: [D]
     X:    -2.7501      Y:    -1.1395      Z:    -0.8438     Total:     3.0941

*** Psi4 exiting successfully. Buy a developer a beer!
