                               Psi4 1.3.2 release

  ==> Input File <==

--------------------------------------------------------------------------
#psi4
#
memory 32 gb

molecule  {
0 1
  N       -1.7893040    -0.1617730    -0.0001110
  N       -0.2713240    -1.8496560    -0.0082220
  N       -0.2672930     1.7497910     0.0010540
  N        2.0532340     1.0361840    -0.0078740
  N        2.7268170    -1.1967150     0.0786200
  C       -0.5487760     0.4359060     0.0048010
  C        0.3666280    -0.6257540     0.0082110
  C       -1.5569310    -1.5157420    -0.0063070
  C        1.7257962    -0.2647404    -0.0985104
  C       -3.0654680     0.5328540     0.0028660
  C        1.0578830     1.9506280    -0.0091420
  H       -2.3786350    -2.2235800    -0.0126570
  H       -3.1454970     1.1693440    -0.8801020
  H       -3.8626160    -0.2117770    -0.0066990
  H       -3.1511970     1.1523310     0.8973960
  H        1.3824760     2.9891980    -0.0128990
  H        3.6364610    -0.8630510    -0.2195510
  H        2.4794860    -2.1327440    -0.2212610
units angstrom
no_reorient  #important for SAPT in psi4, default
symmetry c1  #important for SAPT in psi4, default
}

set PROPERTIES_ORIGIN ["COM"]
properties('MP2/aug-cc-pvtz', properties = ['dipole'])
--------------------------------------------------------------------------

    Molecular point group: c1
  Charge       = 0
  Multiplicity = 1
  Basis Set: AUG-CC-PVTZ
    Blend: AUG-CC-PVTZ
  Basis Set: (AUG-CC-PVTZ AUX)
    Blend: AUG-CC-PVTZ-JKFIT

    Orbital Energies [Eh]
    ---------------------

    Doubly Occupied:

       1A    -15.633372     2A    -15.581190     3A    -15.567409
       4A    -15.561806     5A    -15.553518     6A    -11.334709
       7A    -11.323080     8A    -11.313270     9A    -11.311522
      10A    -11.288973    11A    -11.253028    12A     -1.368105
      13A     -1.295553    14A     -1.241516    15A     -1.196786
      16A     -1.151564    17A     -1.031268    18A     -0.986144
      19A     -0.890510    20A     -0.871510    21A     -0.801881
      22A     -0.752888    23A     -0.722202    24A     -0.679718
      25A     -0.672217    26A     -0.666309    27A     -0.623376
      28A     -0.606290    29A     -0.597991    30A     -0.588256
      31A     -0.572032    32A     -0.536648    33A     -0.496463
      34A     -0.492712    35A     -0.450732    36A     -0.414056
      37A     -0.409616    38A     -0.368044    39A     -0.308305

  @DF-RHF Final Energy:  -503.71942018020650

   => Energetics <=

    Nuclear Repulsion Energy =            594.1293119404484742
    One-Electron Energy =               -1862.6683282854000936
    Two-Electron Energy =                 764.8195961647450076
    Total Energy =                       -503.7194201802064981
  Basis Set: (AUG-CC-PVTZ AUX)
    Blend: AUG-CC-PVTZ-RI
    Molecular point group: c1

    Geometry (in Angstrom), charge = 0, multiplicity = 1:

       Center              X                  Y                   Z               Mass
    ------------   -----------------  -----------------  -----------------  -----------------
         N           -1.822898841060    -0.162611097148     0.004903975596    14.003074004430
         N           -0.304918841060    -1.850494097148    -0.003207024404    14.003074004430
         N           -0.300887841060     1.748952902852     0.006068975596    14.003074004430
         N            2.019639158940     1.035345902852    -0.002859024404    14.003074004430
         N            2.693222158940    -1.197553097148     0.083634975596    14.003074004430
         C           -0.582370841060     0.435067902852     0.009815975596    12.000000000000
         C            0.333033158940    -0.626592097148     0.013225975596    12.000000000000
         C           -1.590525841060    -1.516580097148    -0.001292024404    12.000000000000
         C            1.692201358940    -0.265578497148    -0.093495424404    12.000000000000
         C           -3.099062841060     0.532015902852     0.007880975596    12.000000000000
         C            1.024288158940     1.949789902852    -0.004127024404    12.000000000000
         H           -2.412229841060    -2.224418097148    -0.007642024404     1.007825032230
         H           -3.179091841060     1.168505902852    -0.875087024404     1.007825032230
         H           -3.896210841060    -0.212615097148    -0.001684024404     1.007825032230
         H           -3.184791841060     1.151492902852     0.902410975596     1.007825032230
         H            1.348881158940     2.988359902852    -0.007884024404     1.007825032230
         H            3.602866158940    -0.863889097148    -0.214536024404     1.007825032230
         H            2.445891158940    -2.133582097148    -0.216246024404     1.007825032230

  Basis Set: AUG-CC-PVTZ
    Blend: AUG-CC-PVTZ
  Basis Set: (AUG-CC-PVTZ AUX)
    Blend: AUG-CC-PVTZ-JKFIT
	 Reference Energy          =    -503.7194201802064981 [Eh]
	 Singles Energy            =      -0.0000000000000000 [Eh]
	 Same-Spin Energy          =      -0.5496692177385603 [Eh]
	 Opposite-Spin Energy      =      -1.6339393279809673 [Eh]
	 Correlation Energy        =      -2.1836085457195278 [Eh]
	 Total Energy              =    -505.9030287259260490 [Eh]

	 ================> DF-SCS-MP2 Energies <==================
	-----------------------------------------------------------
	 SCS Same-Spin Scale       =       0.3333333333333333 [-]
	 SCS Opposite-Spin Scale   =       1.2000000000000000 [-]
	 SCS Same-Spin Energy      =      -0.1832230725795201 [Eh]
	 SCS Opposite-Spin Energy  =      -1.9607271935771606 [Eh]
	 SCS Correlation Energy    =      -2.1439502661566809 [Eh]
	 SCS Total Energy          =    -505.8633704463632057 [Eh]
	-----------------------------------------------------------

  Dipole Moment: [D]
     X:    -2.7987      Y:    -1.1164      Z:    -0.8538     Total:     3.1317

*** Psi4 exiting successfully. Buy a developer a beer!
