                               Psi4 1.3.2 release

  ==> Input File <==

--------------------------------------------------------------------------
#psi4
#
memory 32 gb

molecule  {
0 1
  N       -1.7893040    -0.1617730    -0.0001110
  N       -0.2713240    -1.8496560    -0.0082220
  N       -0.2672930     1.7497910     0.0010540
  N        2.0532340     1.0361840    -0.0078740
  N        2.7268170    -1.1967150     0.0786200
  C       -0.5487760     0.4359060     0.0048010
  C        0.3663246    -0.6262671     0.0582074
  C       -1.5569310    -1.5157420    -0.0063070
  C        1.7257650    -0.2653140     0.0014880
  C       -3.0654680     0.5328540     0.0028660
  C        1.0578830     1.9506280    -0.0091420
  H       -2.3786350    -2.2235800    -0.0126570
  H       -3.1454970     1.1693440    -0.8801020
  H       -3.8626160    -0.2117770    -0.0066990
  H       -3.1511970     1.1523310     0.8973960
  H        1.3824760     2.9891980    -0.0128990
  H        3.6364610    -0.8630510    -0.2195510
  H        2.4794860    -2.1327440    -0.2212610
units angstrom
no_reorient  #important for SAPT in psi4, default
symmetry c1  #important for SAPT in psi4, default
}

set PROPERTIES_ORIGIN ["COM"]
properties('MP2/aug-cc-pvtz', properties = ['dipole'])
--------------------------------------------------------------------------

    Molecular point group: c1
  Charge       = 0
  Multiplicity = 1
  Basis Set: AUG-CC-PVTZ
    Blend: AUG-CC-PVTZ
  Basis Set: (AUG-CC-PVTZ AUX)
    Blend: AUG-CC-PVTZ-JKFIT

    Orbital Energies [Eh]
    ---------------------

    Doubly Occupied:

       1A    -15.633022     2A    -15.581145     3A    -15.567308
       4A    -15.560689     5A    -15.552404     6A    -11.334664
       7A    -11.322433     8A    -11.313149     9A    -11.311723
      10A    -11.288691    11A    -11.252042    12A     -1.367622
      13A     -1.296144    14A     -1.242246    15A     -1.196679
      16A     -1.151936    17A     -1.031103    18A     -0.985930
      19A     -0.890595    20A     -0.872006    21A     -0.802546
      22A     -0.753307    23A     -0.724053    24A     -0.680420
      25A     -0.673517    26A     -0.666158    27A     -0.624393
      28A     -0.605970    29A     -0.596391    30A     -0.591471
      31A     -0.571737    32A     -0.536888    33A     -0.495823
      34A     -0.492404    35A     -0.450439    36A     -0.414873
      37A     -0.407705    38A     -0.368378    39A     -0.307606

  @DF-RHF Final Energy:  -503.72379043364930

   => Energetics <=

    Nuclear Repulsion Energy =            594.2717504762250655
    One-Electron Energy =               -1862.9598580197593947
    Two-Electron Energy =                 764.9643171098850871
    Total Energy =                       -503.7237904336493557
  Basis Set: (AUG-CC-PVTZ AUX)
    Blend: AUG-CC-PVTZ-RI
    Molecular point group: c1

    Geometry (in Angstrom), charge = 0, multiplicity = 1:

       Center              X                  Y                   Z               Mass
    ------------   -----------------  -----------------  -----------------  -----------------
         N           -1.822871906089    -0.162523618867    -0.007170458201    14.003074004430
         N           -0.304891906089    -1.850406618867    -0.015281458201    14.003074004430
         N           -0.300860906089     1.749040381133    -0.006005458201    14.003074004430
         N            2.019666093911     1.035433381133    -0.014933458201    14.003074004430
         N            2.693249093911    -1.197465618867     0.071560541799    14.003074004430
         C           -0.582343906089     0.435155381133    -0.002258458201    12.000000000000
         C            0.332756693911    -0.627017718867     0.051147941799    12.000000000000
         C           -1.590498906089    -1.516492618867    -0.013366458201    12.000000000000
         C            1.692197093911    -0.266064618867    -0.005571458201    12.000000000000
         C           -3.099035906089     0.532103381133    -0.004193458201    12.000000000000
         C            1.024315093911     1.949877381133    -0.016201458201    12.000000000000
         H           -2.412202906089    -2.224330618867    -0.019716458201     1.007825032230
         H           -3.179064906089     1.168593381133    -0.887161458201     1.007825032230
         H           -3.896183906089    -0.212527618867    -0.013758458201     1.007825032230
         H           -3.184764906089     1.151580381133     0.890336541799     1.007825032230
         H            1.348908093911     2.988447381133    -0.019958458201     1.007825032230
         H            3.602893093911    -0.863801618867    -0.226610458201     1.007825032230
         H            2.445918093911    -2.133494618867    -0.228320458201     1.007825032230

  Basis Set: AUG-CC-PVTZ
    Blend: AUG-CC-PVTZ
  Basis Set: (AUG-CC-PVTZ AUX)
    Blend: AUG-CC-PVTZ-JKFIT
	 Reference Energy          =    -503.7237904336492988 [Eh]
	 Singles Energy            =      -0.0000000000000000 [Eh]
	 Same-Spin Energy          =      -0.5493060849235352 [Eh]
	 Opposite-Spin Energy      =      -1.6331364735183267 [Eh]
	 Correlation Energy        =      -2.1824425584418616 [Eh]
	 Total Energy              =    -505.9062329920911338 [Eh]

	 ================> DF-SCS-MP2 Energies <==================
	-----------------------------------------------------------
	 SCS Same-Spin Scale       =       0.3333333333333333 [-]
	 SCS Opposite-Spin Scale   =       1.2000000000000000 [-]
	 SCS Same-Spin Energy      =      -0.1831020283078451 [Eh]
	 SCS Opposite-Spin Energy  =      -1.9597637682219919 [Eh]
	 SCS Correlation Energy    =      -2.1428657965298372 [Eh]
	 SCS Total Energy          =    -505.8666562301791600 [Eh]
	-----------------------------------------------------------

  Dipole Moment: [D]
     X:    -2.7277      Y:    -1.1571      Z:    -0.7694     Total:     3.0612

*** Psi4 exiting successfully. Buy a developer a beer!
