                               Psi4 1.3.2 release

  ==> Input File <==

--------------------------------------------------------------------------
#psi4
#
memory 32 gb

molecule  {
0 1
  N       -1.7893040    -0.1617730    -0.0001110
  N       -0.2713240    -1.8496560    -0.0082220
  N       -0.2672930     1.7497910     0.0010540
  N        2.0532340     1.0361840    -0.0078740
  N        2.7268170    -1.1967150     0.0786200
  C       -0.5487760     0.4359060     0.0048010
  C        0.3666280    -0.6257540     0.0082110
  C       -1.5569310    -1.5157420    -0.0063070
  C        1.7257650    -0.2653140     0.0014880
  C       -3.0654680     0.5328540     0.0028660
  C        1.0578830     1.9506280    -0.0091420
  H       -2.3786350    -2.2235800    -0.0126570
  H       -3.1454970     1.1693440    -0.8801020
  H       -3.8626160    -0.2117770    -0.0066990
  H       -3.1511970     1.1523310     0.8973960
  H        1.3840319     2.9905042     0.2870941
  H        3.6364610    -0.8630510    -0.2195510
  H        2.4794860    -2.1327440    -0.2212610
units angstrom
no_reorient  #important for SAPT in psi4, default
symmetry c1  #important for SAPT in psi4, default
}

set PROPERTIES_ORIGIN ["COM"]
properties('MP2/aug-cc-pvtz', properties = ['dipole'])
--------------------------------------------------------------------------

    Molecular point group: c1
  Charge       = 0
  Multiplicity = 1
  Basis Set: AUG-CC-PVTZ
    Blend: AUG-CC-PVTZ
  Basis Set: (AUG-CC-PVTZ AUX)
    Blend: AUG-CC-PVTZ-JKFIT

    Orbital Energies [Eh]
    ---------------------

    Doubly Occupied:

       1A    -15.633390     2A    -15.581122     3A    -15.567709
       4A    -15.561275     5A    -15.552854     6A    -11.334898
       7A    -11.322950     8A    -11.315531     9A    -11.313439
      10A    -11.288938    11A    -11.252464    12A     -1.368154
      13A     -1.296428    14A     -1.242503    15A     -1.197158
      16A     -1.152254    17A     -1.031036    18A     -0.986301
      19A     -0.890100    20A     -0.869927    21A     -0.802738
      22A     -0.753682    23A     -0.721847    24A     -0.680361
      25A     -0.673050    26A     -0.666311    27A     -0.623462
      28A     -0.606835    29A     -0.595451    30A     -0.590234
      31A     -0.570321    32A     -0.537297    33A     -0.499764
      34A     -0.485673    35A     -0.449705    36A     -0.414608
      37A     -0.408688    38A     -0.368468    39A     -0.307745

  @DF-RHF Final Energy:  -503.71780252613826

   => Energetics <=

    Nuclear Repulsion Energy =            594.1647390726100184
    One-Electron Energy =               -1862.7357410275521943
    Two-Electron Energy =                 764.8531994288039186
    Total Energy =                       -503.7178025261382572
  Basis Set: (AUG-CC-PVTZ AUX)
    Blend: AUG-CC-PVTZ-RI
    Molecular point group: c1

    Geometry (in Angstrom), charge = 0, multiplicity = 1:

       Center              X                  Y                   Z               Mass
    ------------   -----------------  -----------------  -----------------  -----------------
         N           -1.822906848532    -0.162573753796    -0.005173973635    14.003074004430
         N           -0.304926848532    -1.850456753796    -0.013284973635    14.003074004430
         N           -0.300895848532     1.748990246204    -0.004008973635    14.003074004430
         N            2.019631151468     1.035383246204    -0.012936973635    14.003074004430
         N            2.693214151468    -1.197515753796     0.073557026365    14.003074004430
         C           -0.582378848532     0.435105246204    -0.000261973635    12.000000000000
         C            0.333025151468    -0.626554753796     0.003148026365    12.000000000000
         C           -1.590533848532    -1.516542753796    -0.011369973635    12.000000000000
         C            1.692162151468    -0.266114753796    -0.003574973635    12.000000000000
         C           -3.099070848532     0.532053246204    -0.002196973635    12.000000000000
         C            1.024280151468     1.949827246204    -0.014204973635    12.000000000000
         H           -2.412237848532    -2.224380753796    -0.017719973635     1.007825032230
         H           -3.179099848532     1.168543246204    -0.885164973635     1.007825032230
         H           -3.896218848532    -0.212577753796    -0.011761973635     1.007825032230
         H           -3.184799848532     1.151530246204     0.892333026365     1.007825032230
         H            1.350429051468     2.989703446204     0.282031126365     1.007825032230
         H            3.602858151468    -0.863851753796    -0.224613973635     1.007825032230
         H            2.445883151468    -2.133544753796    -0.226323973635     1.007825032230

  Basis Set: AUG-CC-PVTZ
    Blend: AUG-CC-PVTZ
  Basis Set: (AUG-CC-PVTZ AUX)
    Blend: AUG-CC-PVTZ-JKFIT
	 Reference Energy          =    -503.7178025261382572 [Eh]
	 Singles Energy            =      -0.0000000000000000 [Eh]
	 Same-Spin Energy          =      -0.5497332138242040 [Eh]
	 Opposite-Spin Energy      =      -1.6339995466273158 [Eh]
	 Correlation Energy        =      -2.1837327604515200 [Eh]
	 Total Energy              =    -505.9015352865897626 [Eh]

	 ================> DF-SCS-MP2 Energies <==================
	-----------------------------------------------------------
	 SCS Same-Spin Scale       =       0.3333333333333333 [-]
	 SCS Opposite-Spin Scale   =       1.2000000000000000 [-]
	 SCS Same-Spin Energy      =      -0.1832444046080680 [Eh]
	 SCS Opposite-Spin Energy  =      -1.9607994559527788 [Eh]
	 SCS Correlation Energy    =      -2.1440438605608469 [Eh]
	 SCS Total Energy          =    -505.8618463866990851 [Eh]
	-----------------------------------------------------------

  Dipole Moment: [D]
     X:    -2.7651      Y:    -1.2327      Z:    -0.6481     Total:     3.0960

*** Psi4 exiting successfully. Buy a developer a beer!
