                               Psi4 1.3.2 release

  ==> Input File <==

--------------------------------------------------------------------------
#psi4
#
memory 32 gb

molecule  {
0 1
  N       -1.7893040    -0.1617730    -0.0001110
  N       -0.2713240    -1.8496560    -0.0082220
  N       -0.2672930     1.7497910     0.0010540
  N        2.0532340     1.0361840    -0.0078740
  N        2.7268170    -1.1967150     0.0786200
  C       -0.5487760     0.4359060     0.0048010
  C        0.3666280    -0.6257540     0.0082110
  C       -1.5569310    -1.5157420    -0.0063070
  C        1.7257650    -0.2653140     0.0014880
  C       -3.0654680     0.5328540     0.0028660
  C        1.0578830     1.9506280    -0.0091420
  H       -2.3786350    -2.2235800    -0.0126570
  H       -3.1454970     1.1693440    -0.8801020
  H       -3.8626160    -0.2117770    -0.0066990
  H       -3.1511970     1.1523310     0.8973960
  H        1.3824760     2.9891980    -0.0128990
  H        3.6364610    -0.8630510    -0.2195510
  H        2.4794860    -2.1327440    -0.2212610
units angstrom
no_reorient  #important for SAPT in psi4, default
symmetry c1  #important for SAPT in psi4, default
}

set PROPERTIES_ORIGIN ["COM"]
properties('MP2/aug-cc-pvtz', properties = ['dipole'])
--------------------------------------------------------------------------

    Molecular point group: c1
  Charge       = 0
  Multiplicity = 1
  Basis Set: AUG-CC-PVTZ
    Blend: AUG-CC-PVTZ
  Basis Set: (AUG-CC-PVTZ AUX)
    Blend: AUG-CC-PVTZ-JKFIT

    Orbital Energies [Eh]
    ---------------------

    Doubly Occupied:

       1A    -15.633078     2A    -15.581004     3A    -15.567345
       4A    -15.560705     5A    -15.552381     6A    -11.334525
       7A    -11.322523     8A    -11.313022     9A    -11.311586
      10A    -11.288728    11A    -11.251882    12A     -1.367787
      13A     -1.296178    14A     -1.242262    15A     -1.196843
      16A     -1.151901    17A     -1.031375    18A     -0.986051
      19A     -0.890745    20A     -0.872096    21A     -0.802802
      22A     -0.753482    23A     -0.724106    24A     -0.680633
      25A     -0.673299    26A     -0.666394    27A     -0.624610
      28A     -0.606416    29A     -0.596747    30A     -0.591418
      31A     -0.571816    32A     -0.536796    33A     -0.495583
      34A     -0.492650    35A     -0.450518    36A     -0.414214
      37A     -0.408569    38A     -0.368394    39A     -0.307779

  @DF-RHF Final Energy:  -503.72487305681392

   => Energetics <=

    Nuclear Repulsion Energy =            594.3281474350125109
    One-Electron Energy =               -1863.0695472920810971
    Two-Electron Energy =                 765.0165268002547236
    Total Energy =                       -503.7248730568139763
  Basis Set: (AUG-CC-PVTZ AUX)
    Blend: AUG-CC-PVTZ-RI
    Molecular point group: c1

    Geometry (in Angstrom), charge = 0, multiplicity = 1:

       Center              X                  Y                   Z               Mass
    ------------   -----------------  -----------------  -----------------  -----------------
         N           -1.822896329491    -0.162564922912    -0.003145797200    14.003074004430
         N           -0.304916329491    -1.850447922912    -0.011256797200    14.003074004430
         N           -0.300885329491     1.748999077088    -0.001980797200    14.003074004430
         N            2.019641670509     1.035392077088    -0.010908797200    14.003074004430
         N            2.693224670509    -1.197506922912     0.075585202800    14.003074004430
         C           -0.582368329491     0.435114077088     0.001766202800    12.000000000000
         C            0.333035670509    -0.626545922912     0.005176202800    12.000000000000
         C           -1.590523329491    -1.516533922912    -0.009341797200    12.000000000000
         C            1.692172670509    -0.266105922912    -0.001546797200    12.000000000000
         C           -3.099060329491     0.532062077088    -0.000168797200    12.000000000000
         C            1.024290670509     1.949836077088    -0.012176797200    12.000000000000
         H           -2.412227329491    -2.224371922912    -0.015691797200     1.007825032230
         H           -3.179089329491     1.168552077088    -0.883136797200     1.007825032230
         H           -3.896208329491    -0.212568922912    -0.009733797200     1.007825032230
         H           -3.184789329491     1.151539077088     0.894361202800     1.007825032230
         H            1.348883670509     2.988406077088    -0.015933797200     1.007825032230
         H            3.602868670509    -0.863842922912    -0.222585797200     1.007825032230
         H            2.445893670509    -2.133535922912    -0.224295797200     1.007825032230

  Basis Set: AUG-CC-PVTZ
    Blend: AUG-CC-PVTZ
  Basis Set: (AUG-CC-PVTZ AUX)
    Blend: AUG-CC-PVTZ-JKFIT
	 Reference Energy          =    -503.7248730568139194 [Eh]
	 Singles Energy            =      -0.0000000000000000 [Eh]
	 Same-Spin Energy          =      -0.5492712997423927 [Eh]
	 Opposite-Spin Energy      =      -1.6331246636971581 [Eh]
	 Correlation Energy        =      -2.1823959634395509 [Eh]
	 Total Energy              =    -505.9072690202534659 [Eh]

	 ================> DF-SCS-MP2 Energies <==================
	-----------------------------------------------------------
	 SCS Same-Spin Scale       =       0.3333333333333333 [-]
	 SCS Opposite-Spin Scale   =       1.2000000000000000 [-]
	 SCS Same-Spin Energy      =      -0.1830904332474642 [Eh]
	 SCS Opposite-Spin Energy  =      -1.9597495964365896 [Eh]
	 SCS Correlation Energy    =      -2.1428400296840540 [Eh]
	 SCS Total Energy          =    -505.8677130864979858 [Eh]
	-----------------------------------------------------------

  Dipole Moment: [D]
     X:    -2.7339      Y:    -1.1579      Z:    -0.7890     Total:     3.0721

*** Psi4 exiting successfully. Buy a developer a beer!
