                               Psi4 1.3.2 release

  ==> Input File <==

--------------------------------------------------------------------------
#psi4
#
memory 32 gb

molecule  {
0 1
  N       -1.7893040    -0.1617730    -0.0001110
  N       -0.2713240    -1.8496560    -0.0082220
  N       -0.2672930     1.7497910     0.0010540
  N        2.0532340     1.0361840    -0.0078740
  N        2.7268170    -1.1967150     0.0786200
  C       -0.5487760     0.4359060     0.0048010
  C        0.3666280    -0.6257540     0.0082110
  C       -1.5569310    -1.5157420    -0.0063070
  C        1.7257650    -0.2653140     0.0014880
  C       -3.0654680     0.5328540     0.0028660
  C        1.0578830     1.9506280    -0.0091420
  H       -2.3786350    -2.2235800    -0.0126570
  H       -3.1454970     1.1693440    -0.8801020
  H       -3.8626160    -0.2117770    -0.0066990
  H       -3.1511970     1.1523310     0.8973960
  H        1.3824760     2.9891980    -0.0128990
  H        3.6364610    -0.8630510    -0.2195510
  H        2.4661312    -2.1203743    -0.3701524
units angstrom
no_reorient  #important for SAPT in psi4, default
symmetry c1  #important for SAPT in psi4, default
}

set PROPERTIES_ORIGIN ["COM"]
properties('MP2/aug-cc-pvtz', properties = ['dipole'])
--------------------------------------------------------------------------

    Molecular point group: c1
  Charge       = 0
  Multiplicity = 1
  Basis Set: AUG-CC-PVTZ
    Blend: AUG-CC-PVTZ
  Basis Set: (AUG-CC-PVTZ AUX)
    Blend: AUG-CC-PVTZ-JKFIT

    Orbital Energies [Eh]
    ---------------------

    Doubly Occupied:

       1A    -15.633507     2A    -15.584383     3A    -15.567515
       4A    -15.561835     5A    -15.553218     6A    -11.333954
       7A    -11.323041     8A    -11.313634     9A    -11.311895
      10A    -11.289084    11A    -11.252634    12A     -1.368283
      13A     -1.296306    14A     -1.241318    15A     -1.196502
      16A     -1.150685    17A     -1.031443    18A     -0.986344
      19A     -0.889995    20A     -0.872193    21A     -0.801737
      22A     -0.750412    23A     -0.723914    24A     -0.680191
      25A     -0.667527    26A     -0.663070    27A     -0.624217
      28A     -0.603565    29A     -0.597348    30A     -0.590899
      31A     -0.571641    32A     -0.536896    33A     -0.496574
      34A     -0.492939    35A     -0.450943    36A     -0.415625
      37A     -0.409086    38A     -0.369092    39A     -0.309034

  @DF-RHF Final Energy:  -503.72105875836814

   => Energetics <=

    Nuclear Repulsion Energy =            594.1716621557570761
    One-Electron Energy =               -1862.7604819747086822
    Two-Electron Energy =                 764.8677610605834616
    Total Energy =                       -503.7210587583681445
  Basis Set: (AUG-CC-PVTZ AUX)
    Blend: AUG-CC-PVTZ-RI
    Molecular point group: c1

    Geometry (in Angstrom), charge = 0, multiplicity = 1:

       Center              X                  Y                   Z               Mass
    ------------   -----------------  -----------------  -----------------  -----------------
         N           -1.822806041112    -0.162648551283    -0.002139180619    14.003074004430
         N           -0.304826041112    -1.850531551283    -0.010250180619    14.003074004430
         N           -0.300795041112     1.748915448717    -0.000974180619    14.003074004430
         N            2.019731958888     1.035308448717    -0.009902180619    14.003074004430
         N            2.693314958888    -1.197590551283     0.076591819381    14.003074004430
         C           -0.582278041112     0.435030448717     0.002772819381    12.000000000000
         C            0.333125958888    -0.626629551283     0.006182819381    12.000000000000
         C           -1.590433041112    -1.516617551283    -0.008335180619    12.000000000000
         C            1.692262958888    -0.266189551283    -0.000540180619    12.000000000000
         C           -3.098970041112     0.531978448717     0.000837819381    12.000000000000
         C            1.024380958888     1.949752448717    -0.011170180619    12.000000000000
         H           -2.412137041112    -2.224455551283    -0.014685180619     1.007825032230
         H           -3.178999041112     1.168468448717    -0.882130180619     1.007825032230
         H           -3.896118041112    -0.212652551283    -0.008727180619     1.007825032230
         H           -3.184699041112     1.151455448717     0.895367819381     1.007825032230
         H            1.348973958888     2.988322448717    -0.014927180619     1.007825032230
         H            3.602958958888    -0.863926551283    -0.221579180619     1.007825032230
         H            2.432629158888    -2.121249851283    -0.372180580619     1.007825032230

  Basis Set: AUG-CC-PVTZ
    Blend: AUG-CC-PVTZ
  Basis Set: (AUG-CC-PVTZ AUX)
    Blend: AUG-CC-PVTZ-JKFIT
	 Reference Energy          =    -503.7210587583681445 [Eh]
	 Singles Energy            =      -0.0000000000000000 [Eh]
	 Same-Spin Energy          =      -0.5495641886583869 [Eh]
	 Opposite-Spin Energy      =      -1.6339946274575166 [Eh]
	 Correlation Energy        =      -2.1835588161159034 [Eh]
	 Total Energy              =    -505.9046175744840639 [Eh]

	 ================> DF-SCS-MP2 Energies <==================
	-----------------------------------------------------------
	 SCS Same-Spin Scale       =       0.3333333333333333 [-]
	 SCS Opposite-Spin Scale   =       1.2000000000000000 [-]
	 SCS Same-Spin Energy      =      -0.1831880628861289 [Eh]
	 SCS Opposite-Spin Energy  =      -1.9607935529490197 [Eh]
	 SCS Correlation Energy    =      -2.1439816158351488 [Eh]
	 SCS Total Energy          =    -505.8650403742033177 [Eh]
	-----------------------------------------------------------

  Dipole Moment: [D]
     X:    -2.8250      Y:    -1.0454      Z:    -0.9601     Total:     3.1615

*** Psi4 exiting successfully. Buy a developer a beer!
