                               Psi4 1.3.2 release

  ==> Input File <==

--------------------------------------------------------------------------
#psi4
#
memory 32 gb

molecule  {
0 1
  N       -1.7893040    -0.1617730    -0.0001110
  N       -0.2713240    -1.8496560    -0.0082220
  N       -0.2672930     1.7497910     0.0010540
  N        2.0532340     1.0361840    -0.0078740
  N        2.7268170    -1.1967150     0.0786200
  C       -0.5487760     0.4359060     0.0048010
  C        0.3666280    -0.6257540     0.0082110
  C       -1.5569310    -1.5157420    -0.0063070
  C        1.7257650    -0.2653140     0.0014880
  C       -3.0652258     0.5341518    -0.2471305
  C        1.0578830     1.9506280    -0.0091420
  H       -2.3786350    -2.2235800    -0.0126570
  H       -3.1454970     1.1693440    -0.8801020
  H       -3.8626160    -0.2117770    -0.0066990
  H       -3.1511970     1.1523310     0.8973960
  H        1.3824760     2.9891980    -0.0128990
  H        3.6364610    -0.8630510    -0.2195510
  H        2.4794860    -2.1327440    -0.2212610
units angstrom
no_reorient  #important for SAPT in psi4, default
symmetry c1  #important for SAPT in psi4, default
}

set PROPERTIES_ORIGIN ["COM"]
properties('MP2/aug-cc-pvtz', properties = ['dipole'])
--------------------------------------------------------------------------

    Molecular point group: c1
  Charge       = 0
  Multiplicity = 1
  Basis Set: AUG-CC-PVTZ
    Blend: AUG-CC-PVTZ
  Basis Set: (AUG-CC-PVTZ AUX)
    Blend: AUG-CC-PVTZ-JKFIT

    Orbital Energies [Eh]
    ---------------------

    Doubly Occupied:

       1A    -15.635993     2A    -15.581496     3A    -15.568722
       4A    -15.561144     5A    -15.552918     6A    -11.335057
       7A    -11.323240     8A    -11.313453     9A    -11.312026
      10A    -11.297821    11A    -11.252630    12A     -1.367820
      13A     -1.296500    14A     -1.242740    15A     -1.195881
      16A     -1.152176    17A     -1.031983    18A     -0.993689
      19A     -0.891945    20A     -0.873211    21A     -0.806483
      22A     -0.759084    23A     -0.734625    24A     -0.688157
      25A     -0.676980    26A     -0.664628    27A     -0.634328
      28A     -0.619837    29A     -0.599453    30A     -0.578537
      31A     -0.558770    32A     -0.513583    33A     -0.496213
      34A     -0.488452    35A     -0.451183    36A     -0.411390
      37A     -0.408251    38A     -0.367356    39A     -0.308469

  @DF-RHF Final Energy:  -503.65452707723045

   => Energetics <=

    Nuclear Repulsion Energy =            594.0340462047142864
    One-Electron Energy =               -1862.2847001397162785
    Two-Electron Energy =                 764.5961268577715373
    Total Energy =                       -503.6545270772304548
  Basis Set: (AUG-CC-PVTZ AUX)
    Blend: AUG-CC-PVTZ-RI
    Molecular point group: c1

    Geometry (in Angstrom), charge = 0, multiplicity = 1:

       Center              X                  Y                   Z               Mass
    ------------   -----------------  -----------------  -----------------  -----------------
         N           -1.822915826352    -0.162669394535     0.016978675041    14.003074004430
         N           -0.304935826352    -1.850552394535     0.008867675041    14.003074004430
         N           -0.300904826352     1.748894605465     0.018143675041    14.003074004430
         N            2.019622173648     1.035287605465     0.009215675041    14.003074004430
         N            2.693205173648    -1.197611394535     0.095709675041    14.003074004430
         C           -0.582387826352     0.435009605465     0.021890675041    12.000000000000
         C            0.333016173648    -0.626650394535     0.025300675041    12.000000000000
         C           -1.590542826352    -1.516638394535     0.010782675041    12.000000000000
         C            1.692153173648    -0.266210394535     0.018577675041    12.000000000000
         C           -3.098837626352     0.533255405465    -0.230040824959    12.000000000000
         C            1.024271173648     1.949731605465     0.007947675041    12.000000000000
         H           -2.412246826352    -2.224476394535     0.004432675041     1.007825032230
         H           -3.179108826352     1.168447605465    -0.863012324959     1.007825032230
         H           -3.896227826352    -0.212673394535     0.010390675041     1.007825032230
         H           -3.184808826352     1.151434605465     0.914485675041     1.007825032230
         H            1.348864173648     2.988301605465     0.004190675041     1.007825032230
         H            3.602849173648    -0.863947394535    -0.202461324959     1.007825032230
         H            2.445874173648    -2.133640394535    -0.204171324959     1.007825032230

  Basis Set: AUG-CC-PVTZ
    Blend: AUG-CC-PVTZ
  Basis Set: (AUG-CC-PVTZ AUX)
    Blend: AUG-CC-PVTZ-JKFIT
	 Reference Energy          =    -503.6545270772304548 [Eh]
	 Singles Energy            =      -0.0000000000000000 [Eh]
	 Same-Spin Energy          =      -0.5501836804887549 [Eh]
	 Opposite-Spin Energy      =      -1.6361925549130396 [Eh]
	 Correlation Energy        =      -2.1863762354017946 [Eh]
	 Total Energy              =    -505.8409033126322356 [Eh]

	 ================> DF-SCS-MP2 Energies <==================
	-----------------------------------------------------------
	 SCS Same-Spin Scale       =       0.3333333333333333 [-]
	 SCS Opposite-Spin Scale   =       1.2000000000000000 [-]
	 SCS Same-Spin Energy      =      -0.1833945601629183 [Eh]
	 SCS Opposite-Spin Energy  =      -1.9634310658956475 [Eh]
	 SCS Correlation Energy    =      -2.1468256260585656 [Eh]
	 SCS Total Energy          =    -505.8013527032890124 [Eh]
	-----------------------------------------------------------

  Dipole Moment: [D]
     X:    -2.6373      Y:    -1.2266      Z:    -1.0083     Total:     3.0784

*** Psi4 exiting successfully. Buy a developer a beer!
