                               Psi4 1.3.2 release

  ==> Input File <==

--------------------------------------------------------------------------
#psi4
#
memory 32 gb

molecule  {
0 1
  N       -1.7893040    -0.1617730    -0.0001110
  N       -0.2713240    -1.8496560    -0.0082220
  N       -0.2672930     1.7497910     0.0010540
  N        2.0532340     1.0361840    -0.0078740
  N        2.7268170    -1.1967150     0.0786200
  C       -0.5487760     0.4359060     0.0048010
  C        0.3666280    -0.6257540     0.0082110
  C       -1.5569310    -1.5157420    -0.0063070
  C        1.7257650    -0.2653140     0.0014880
  C       -3.0654680     0.5328540     0.0028660
  C        1.0578830     1.9506280    -0.0091420
  H       -2.3786350    -2.2235800    -0.0126570
  H       -3.1454970     1.1693440    -0.8801020
  H       -3.8626160    -0.2117770    -0.0066990
  H       -3.1511970     1.1523310     0.8973960
  H        1.3827353     2.9894157     0.0370999
  H        3.6364610    -0.8630510    -0.2195510
  H        2.4794860    -2.1327440    -0.2212610
units angstrom
no_reorient  #important for SAPT in psi4, default
symmetry c1  #important for SAPT in psi4, default
}

set PROPERTIES_ORIGIN ["COM"]
properties('MP2/aug-cc-pvtz', properties = ['dipole'])
--------------------------------------------------------------------------

    Molecular point group: c1
  Charge       = 0
  Multiplicity = 1
  Basis Set: AUG-CC-PVTZ
    Blend: AUG-CC-PVTZ
  Basis Set: (AUG-CC-PVTZ AUX)
    Blend: AUG-CC-PVTZ-JKFIT

    Orbital Energies [Eh]
    ---------------------

    Doubly Occupied:

       1A    -15.633087     2A    -15.581001     3A    -15.567358
       4A    -15.560720     5A    -15.552397     6A    -11.334538
       7A    -11.322537     8A    -11.313028     9A    -11.311699
      10A    -11.288734    11A    -11.251903    12A     -1.367798
      13A     -1.296186    14A     -1.242268    15A     -1.196853
      16A     -1.151912    17A     -1.031363    18A     -0.986058
      19A     -0.890717    20A     -0.872027    21A     -0.802799
      22A     -0.753487    23A     -0.724052    24A     -0.680603
      25A     -0.673338    26A     -0.666349    27A     -0.624487
      28A     -0.606468    29A     -0.595878    30A     -0.592259
      31A     -0.571764    32A     -0.536890    33A     -0.495935
      34A     -0.492089    35A     -0.450523    36A     -0.414256
      37A     -0.408547    38A     -0.368387    39A     -0.307783

  @DF-RHF Final Energy:  -503.72466667409020

   => Energetics <=

    Nuclear Repulsion Energy =            594.3231135346585461
    One-Electron Energy =               -1863.0594011861417130
    Two-Electron Energy =                 765.0116209773929086
    Total Energy =                       -503.7246666740901446
  Basis Set: (AUG-CC-PVTZ AUX)
    Blend: AUG-CC-PVTZ-RI
    Molecular point group: c1

    Geometry (in Angstrom), charge = 0, multiplicity = 1:

       Center              X                  Y                   Z               Mass
    ------------   -----------------  -----------------  -----------------  -----------------
         N           -1.822898082552    -0.162566394726    -0.003483826944    14.003074004430
         N           -0.304918082552    -1.850449394726    -0.011594826944    14.003074004430
         N           -0.300887082552     1.748997605274    -0.002318826944    14.003074004430
         N            2.019639917448     1.035390605274    -0.011246826944    14.003074004430
         N            2.693222917448    -1.197508394726     0.075247173056    14.003074004430
         C           -0.582370082552     0.435112605274     0.001428173056    12.000000000000
         C            0.333033917448    -0.626547394726     0.004838173056    12.000000000000
         C           -1.590525082552    -1.516535394726    -0.009679826944    12.000000000000
         C            1.692170917448    -0.266107394726    -0.001884826944    12.000000000000
         C           -3.099062082552     0.532060605274    -0.000506826944    12.000000000000
         C            1.024288917448     1.949834605274    -0.012514826944    12.000000000000
         H           -2.412229082552    -2.224373394726    -0.016029826944     1.007825032230
         H           -3.179091082552     1.168550605274    -0.883474826944     1.007825032230
         H           -3.896210082552    -0.212570394726    -0.010071826944     1.007825032230
         H           -3.184791082552     1.151537605274     0.894023173056     1.007825032230
         H            1.349141217448     2.988622305274     0.033727073056     1.007825032230
         H            3.602866917448    -0.863844394726    -0.222923826944     1.007825032230
         H            2.445891917448    -2.133537394726    -0.224633826944     1.007825032230

  Basis Set: AUG-CC-PVTZ
    Blend: AUG-CC-PVTZ
  Basis Set: (AUG-CC-PVTZ AUX)
    Blend: AUG-CC-PVTZ-JKFIT
	 Reference Energy          =    -503.7246666740902015 [Eh]
	 Singles Energy            =      -0.0000000000000000 [Eh]
	 Same-Spin Energy          =      -0.5492846795481352 [Eh]
	 Opposite-Spin Energy      =      -1.6331445161112541 [Eh]
	 Correlation Energy        =      -2.1824291956593891 [Eh]
	 Total Energy              =    -505.9070958697495826 [Eh]

	 ================> DF-SCS-MP2 Energies <==================
	-----------------------------------------------------------
	 SCS Same-Spin Scale       =       0.3333333333333333 [-]
	 SCS Opposite-Spin Scale   =       1.2000000000000000 [-]
	 SCS Same-Spin Energy      =      -0.1830948931827117 [Eh]
	 SCS Opposite-Spin Energy  =      -1.9597734193335048 [Eh]
	 SCS Correlation Energy    =      -2.1428683125162165 [Eh]
	 SCS Total Energy          =    -505.8675349866064153 [Eh]
	-----------------------------------------------------------

  Dipole Moment: [D]
     X:    -2.7348      Y:    -1.1603      Z:    -0.7651     Total:     3.0677

*** Psi4 exiting successfully. Buy a developer a beer!
