                               Psi4 1.3.2 release

  ==> Input File <==

--------------------------------------------------------------------------
#psi4
#
memory 32 gb

molecule  {
0 1
  N       -1.7893040    -0.1617730    -0.0001110
  N       -0.2713240    -1.8496560    -0.0082220
  N       -0.2672930     1.7497910     0.0010540
  N        2.0532340     1.0361840    -0.0078740
  N        2.7268170    -1.1967150     0.0786200
  C       -0.5487760     0.4359060     0.0048010
  C        0.3666280    -0.6257540     0.0082110
  C       -1.5569310    -1.5157420    -0.0063070
  C        1.7257650    -0.2653140     0.0014880
  C       -3.0651774     0.5344113    -0.2971298
  C        1.0578830     1.9506280    -0.0091420
  H       -2.3786350    -2.2235800    -0.0126570
  H       -3.1454970     1.1693440    -0.8801020
  H       -3.8626160    -0.2117770    -0.0066990
  H       -3.1511970     1.1523310     0.8973960
  H        1.3824760     2.9891980    -0.0128990
  H        3.6364610    -0.8630510    -0.2195510
  H        2.4794860    -2.1327440    -0.2212610
units angstrom
no_reorient  #important for SAPT in psi4, default
symmetry c1  #important for SAPT in psi4, default
}

set PROPERTIES_ORIGIN ["COM"]
properties('MP2/aug-cc-pvtz', properties = ['dipole'])
--------------------------------------------------------------------------

    Molecular point group: c1
  Charge       = 0
  Multiplicity = 1
  Basis Set: AUG-CC-PVTZ
    Blend: AUG-CC-PVTZ
  Basis Set: (AUG-CC-PVTZ AUX)
    Blend: AUG-CC-PVTZ-JKFIT

    Orbital Energies [Eh]
    ---------------------

    Doubly Occupied:

       1A    -15.637153     2A    -15.581693     3A    -15.569299
       4A    -15.561331     5A    -15.553143     6A    -11.335277
       7A    -11.323535     8A    -11.313629     9A    -11.312211
      10A    -11.301745    11A    -11.252943    12A     -1.367821
      13A     -1.296633    14A     -1.242937    15A     -1.195462
      16A     -1.152284    17A     -1.032259    18A     -0.997446
      19A     -0.892440    20A     -0.873666    21A     -0.808464
      22A     -0.762301    23A     -0.737249    24A     -0.690527
      25A     -0.676248    26A     -0.664083    27A     -0.637080
      28A     -0.619872    29A     -0.599080    30A     -0.577503
      31A     -0.556826    32A     -0.508207    33A     -0.496425
      34A     -0.485147    35A     -0.451454    36A     -0.410971
      37A     -0.407126    38A     -0.366782    39A     -0.308756

  @DF-RHF Final Energy:  -503.62277416354380

   => Energetics <=

    Nuclear Repulsion Energy =            593.9061675816878960
    One-Electron Energy =               -1861.9438666101398212
    Two-Electron Energy =                 764.4149248649081301
    Total Energy =                       -503.6227741635437951
  Basis Set: (AUG-CC-PVTZ AUX)
    Blend: AUG-CC-PVTZ-RI
    Molecular point group: c1

    Geometry (in Angstrom), charge = 0, multiplicity = 1:

       Center              X                  Y                   Z               Mass
    ------------   -----------------  -----------------  -----------------  -----------------
         N           -1.822919722505    -0.162690284030     0.021003569489    14.003074004430
         N           -0.304939722505    -1.850573284030     0.012892569489    14.003074004430
         N           -0.300908722505     1.748873715970     0.022168569489    14.003074004430
         N            2.019618277495     1.035266715970     0.013240569489    14.003074004430
         N            2.693201277495    -1.197632284030     0.099734569489    14.003074004430
         C           -0.582391722505     0.434988715970     0.025915569489    12.000000000000
         C            0.333012277495    -0.626671284030     0.029325569489    12.000000000000
         C           -1.590546722505    -1.516659284030     0.014807569489    12.000000000000
         C            1.692149277495    -0.266231284030     0.022602569489    12.000000000000
         C           -3.098793122505     0.533494015970    -0.276015230511    12.000000000000
         C            1.024267277495     1.949710715970     0.011972569489    12.000000000000
         H           -2.412250722505    -2.224497284030     0.008457569489     1.007825032230
         H           -3.179112722505     1.168426715970    -0.858987430511     1.007825032230
         H           -3.896231722505    -0.212694284030     0.014415569489     1.007825032230
         H           -3.184812722505     1.151413715970     0.918510569489     1.007825032230
         H            1.348860277495     2.988280715970     0.008215569489     1.007825032230
         H            3.602845277495    -0.863968284030    -0.198436430511     1.007825032230
         H            2.445870277495    -2.133661284030    -0.200146430511     1.007825032230

  Basis Set: AUG-CC-PVTZ
    Blend: AUG-CC-PVTZ
  Basis Set: (AUG-CC-PVTZ AUX)
    Blend: AUG-CC-PVTZ-JKFIT
	 Reference Energy          =    -503.6227741635437951 [Eh]
	 Singles Energy            =      -0.0000000000000000 [Eh]
	 Same-Spin Energy          =      -0.5505974592723477 [Eh]
	 Opposite-Spin Energy      =      -1.6376483131354145 [Eh]
	 Correlation Energy        =      -2.1882457724077620 [Eh]
	 Total Energy              =    -505.8110199359515491 [Eh]

	 ================> DF-SCS-MP2 Energies <==================
	-----------------------------------------------------------
	 SCS Same-Spin Scale       =       0.3333333333333333 [-]
	 SCS Opposite-Spin Scale   =       1.2000000000000000 [-]
	 SCS Same-Spin Energy      =      -0.1835324864241159 [Eh]
	 SCS Opposite-Spin Energy  =      -1.9651779757624972 [Eh]
	 SCS Correlation Energy    =      -2.1487104621866129 [Eh]
	 SCS Total Energy          =    -505.7714846257304089 [Eh]
	-----------------------------------------------------------

  Dipole Moment: [D]
     X:    -2.5972      Y:    -1.2510      Z:    -1.0373     Total:     3.0638

*** Psi4 exiting successfully. Buy a developer a beer!
