                               Psi4 1.3.2 release

  ==> Input File <==

--------------------------------------------------------------------------
#psi4
#
memory 32 gb

molecule  {
0 1
  N       -0.4877902    -0.4647597    -0.0000193
  C        1.8933030    -0.0828010    -0.0000140
  C        0.4635850     0.3576260     0.0000390
  C       -1.8470910     0.0589940    -0.0000070
  H        2.4160690     0.3042180    -0.8811360
  H        2.4155930     0.3023240     0.8822020
  H        1.9396870    -1.1727100    -0.0011150
  H        0.2802710     1.4452080    -0.0000290
  H       -1.8762720     1.1592310    -0.0004570
  H       -2.3769420    -0.3108180     0.8823140
  H       -2.3772210    -0.3115500    -0.8818350
units angstrom
no_reorient  #important for SAPT in psi4, default
symmetry c1  #important for SAPT in psi4, default
}

set PROPERTIES_ORIGIN ["COM"]
properties('MP2/aug-cc-pvtz', properties = ['dipole'])
--------------------------------------------------------------------------

    Molecular point group: c1
  Charge       = 0
  Multiplicity = 1
  Basis Set: AUG-CC-PVTZ
    Blend: AUG-CC-PVTZ
  Basis Set: (AUG-CC-PVTZ AUX)
    Blend: AUG-CC-PVTZ-JKFIT

    Orbital Energies [Eh]
    ---------------------

    Doubly Occupied:

       1A    -15.551765     2A    -11.272853     3A    -11.244403
       4A    -11.224287     5A     -1.227953     6A     -1.009928
       7A     -0.913799     8A     -0.759329     9A     -0.648870
      10A     -0.612126    11A     -0.594706    12A     -0.565102
      13A     -0.538284    14A     -0.515011    15A     -0.403794
      16A     -0.399422

  @DF-RHF Final Energy:  -172.17052729175990

   => Energetics <=

    Nuclear Repulsion Energy =            118.2917760005364727
    One-Electron Energy =                -465.9613449763923541
    Two-Electron Energy =                 175.4990416840959995
    Total Energy =                       -172.1705272917598961
  Basis Set: (AUG-CC-PVTZ AUX)
    Blend: AUG-CC-PVTZ-RI
    Molecular point group: c1

    Geometry (in Angstrom), charge = 0, multiplicity = 1:

       Center              X                  Y                   Z               Mass
    ------------   -----------------  -----------------  -----------------  -----------------
         N           -0.482733621686    -0.445914720715    -0.000017359907    14.003074004430
         C            1.898359578314    -0.063956020715    -0.000012059907    12.000000000000
         C            0.468641578314     0.376470979285     0.000040940093    12.000000000000
         C           -1.842034421686     0.077838979285    -0.000005059907    12.000000000000
         H            2.421125578314     0.323062979285    -0.881134059907     1.007825032230
         H            2.420649578314     0.321168979285     0.882203940093     1.007825032230
         H            1.944743578314    -1.153865020715    -0.001113059907     1.007825032230
         H            0.285327578314     1.464052979285    -0.000027059907     1.007825032230
         H           -1.871215421686     1.178075979285    -0.000455059907     1.007825032230
         H           -2.371885421686    -0.291973020715     0.882315940093     1.007825032230
         H           -2.372164421686    -0.292705020715    -0.881833059907     1.007825032230

  Basis Set: AUG-CC-PVTZ
    Blend: AUG-CC-PVTZ
  Basis Set: (AUG-CC-PVTZ AUX)
    Blend: AUG-CC-PVTZ-JKFIT
	 Reference Energy          =    -172.1705272917598961 [Eh]
	 Singles Energy            =      -0.0000000000000000 [Eh]
	 Same-Spin Energy          =      -0.1756648134145417 [Eh]
	 Opposite-Spin Energy      =      -0.6257232973057300 [Eh]
	 Correlation Energy        =      -0.8013881107202716 [Eh]
	 Total Energy              =    -172.9719154024801639 [Eh]

	 ================> DF-SCS-MP2 Energies <==================
	-----------------------------------------------------------
	 SCS Same-Spin Scale       =       0.3333333333333333 [-]
	 SCS Opposite-Spin Scale   =       1.2000000000000000 [-]
	 SCS Same-Spin Energy      =      -0.0585549378048472 [Eh]
	 SCS Opposite-Spin Energy  =      -0.7508679567668759 [Eh]
	 SCS Correlation Energy    =      -0.8094228945717231 [Eh]
	 SCS Total Energy          =    -172.9799501863316209 [Eh]
	-----------------------------------------------------------

  Dipole Moment: [D]
     X:     0.2752      Y:     1.4890      Z:     0.0002     Total:     1.5142

*** Psi4 exiting successfully. Buy a developer a beer!
