                               Psi4 1.3.2 release

  ==> Input File <==

--------------------------------------------------------------------------
#psi4
#
memory 32 gb

molecule  {
0 1
  N       -0.4971380    -0.4884030    -0.0000080
  C        1.8933030    -0.0828010    -0.0000140
  C        0.4635850     0.3576260     0.0000390
  C       -1.6617488    -0.0161610    -0.0000071
  H        2.4160690     0.3042180    -0.8811360
  H        2.4155930     0.3023240     0.8822020
  H        1.9396870    -1.1727100    -0.0011150
  H        0.2802710     1.4452080    -0.0000290
  H       -1.8762720     1.1592310    -0.0004570
  H       -2.3769420    -0.3108180     0.8823140
  H       -2.3772210    -0.3115500    -0.8818350
units angstrom
no_reorient  #important for SAPT in psi4, default
symmetry c1  #important for SAPT in psi4, default
}

set PROPERTIES_ORIGIN ["COM"]
properties('MP2/aug-cc-pvtz', properties = ['dipole'])
--------------------------------------------------------------------------

    Molecular point group: c1
  Charge       = 0
  Multiplicity = 1
  Basis Set: AUG-CC-PVTZ
    Blend: AUG-CC-PVTZ
  Basis Set: (AUG-CC-PVTZ AUX)
    Blend: AUG-CC-PVTZ-JKFIT

    Orbital Energies [Eh]
    ---------------------

    Doubly Occupied:

       1A    -15.553575     2A    -11.288305     3A    -11.253909
       4A    -11.230205     5A     -1.281844     6A     -1.030177
       7A     -0.900803     8A     -0.773411     9A     -0.682718
      10A     -0.622035    11A     -0.600830    12A     -0.559782
      13A     -0.548047    14A     -0.494888    15A     -0.399157
      16A     -0.378958

  @DF-RHF Final Energy:  -172.12088468384528

   => Energetics <=

    Nuclear Repulsion Energy =            120.7823388512851750
    One-Electron Energy =                -470.6091624065160204
    Two-Electron Energy =                 177.7059388713855412
    Total Energy =                       -172.1208846838452757
  Basis Set: (AUG-CC-PVTZ AUX)
    Blend: AUG-CC-PVTZ-RI
    Molecular point group: c1

    Geometry (in Angstrom), charge = 0, multiplicity = 1:

       Center              X                  Y                   Z               Mass
    ------------   -----------------  -----------------  -----------------  -----------------
         N           -0.528767144914    -0.447949444573    -0.000008812109    14.003074004430
         C            1.861673855086    -0.042347444573    -0.000014812109    12.000000000000
         C            0.431955855086     0.398079555427     0.000038187891    12.000000000000
         C           -1.693377944914     0.024292555427    -0.000007912109    12.000000000000
         H            2.384439855086     0.344671555427    -0.881136812109     1.007825032230
         H            2.383963855086     0.342777555427     0.882201187891     1.007825032230
         H            1.908057855086    -1.132256444573    -0.001115812109     1.007825032230
         H            0.248641855086     1.485661555427    -0.000029812109     1.007825032230
         H           -1.907901144914     1.199684555427    -0.000457812109     1.007825032230
         H           -2.408571144914    -0.270364444573     0.882313187891     1.007825032230
         H           -2.408850144914    -0.271096444573    -0.881835812109     1.007825032230

  Basis Set: AUG-CC-PVTZ
    Blend: AUG-CC-PVTZ
  Basis Set: (AUG-CC-PVTZ AUX)
    Blend: AUG-CC-PVTZ-JKFIT
	 Reference Energy          =    -172.1208846838452757 [Eh]
	 Singles Energy            =      -0.0000000000000000 [Eh]
	 Same-Spin Energy          =      -0.1787858682813581 [Eh]
	 Opposite-Spin Energy      =      -0.6286056049194184 [Eh]
	 Correlation Energy        =      -0.8073914732007765 [Eh]
	 Total Energy              =    -172.9282761570460423 [Eh]

	 ================> DF-SCS-MP2 Energies <==================
	-----------------------------------------------------------
	 SCS Same-Spin Scale       =       0.3333333333333333 [-]
	 SCS Opposite-Spin Scale   =       1.2000000000000000 [-]
	 SCS Same-Spin Energy      =      -0.0595952894271193 [Eh]
	 SCS Opposite-Spin Energy  =      -0.7543267259033021 [Eh]
	 SCS Correlation Energy    =      -0.8139220153304214 [Eh]
	 SCS Total Energy          =    -172.9348066991757094 [Eh]
	-----------------------------------------------------------

  Dipole Moment: [D]
     X:     0.7392      Y:     1.3137      Z:     0.0002     Total:     1.5074

*** Psi4 exiting successfully. Buy a developer a beer!
