                               Psi4 1.4a3.dev225

  ==> Input File <==

--------------------------------------------------------------------------
#psi4
#
memory 32 gb

molecule  {
0 1
  N        0.4972020    -0.4883560    -0.0000030
  C       -1.8933690    -0.0828130     0.0000000
  C       -0.4636380     0.3576020     0.0000030
  C        1.8656565     0.0664879     0.0000011
  H       -2.4159140     0.3032330     0.8816800
  H       -2.4159290     0.3032900    -0.8816460
  H       -1.9397520    -1.1727070    -0.0000330
  H       -0.2803450     1.4451730    -0.0000110
  H        1.8763800     1.1592220     0.0000020
  H        2.3772280    -0.3111450    -0.8820540
  H        2.3772250    -0.3111470     0.8820570
units angstrom
no_reorient  #important for SAPT in psi4, default
symmetry c1  #important for SAPT in psi4, default
}

set PROPERTIES_ORIGIN ["COM"]
properties('MP2/aug-cc-pvtz', properties = ['dipole'])
--------------------------------------------------------------------------

    Molecular point group: c1
  Charge       = 0
  Multiplicity = 1
  Basis Set: AUG-CC-PVTZ
    Blend: AUG-CC-PVTZ
  Basis Set: (AUG-CC-PVTZ AUX)
    Blend: AUG-CC-PVTZ-JKFIT

    Orbital Energies [Eh]
    ---------------------

    Doubly Occupied:

       1A    -15.556057     2A    -11.276240     3A    -11.242864
       4A    -11.224846     5A     -1.216307     6A     -1.009031
       7A     -0.911447     8A     -0.760889     9A     -0.642658
      10A     -0.611069    11A     -0.593799    12A     -0.566342
      13A     -0.536351    14A     -0.514861    15A     -0.403466
      16A     -0.398610

  @DF-RHF Final Energy:  -172.16840076719836

   => Energetics <=

    Nuclear Repulsion Energy =            117.6415513057589664
    One-Electron Energy =                -464.6902319296361270
    Two-Electron Energy =                 174.8802798566787828
    Total Energy =                       -172.1684007671983636
  Basis Set: (AUG-CC-PVTZ AUX)
    Blend: AUG-CC-PVTZ-RI
    Molecular point group: c1

    Geometry (in Angstrom), charge = 0, multiplicity = 1:

       Center              X                  Y                   Z               Mass
    ------------   -----------------  -----------------  -----------------  -----------------
         N            0.485954674102    -0.465288817930    -0.000003037710    14.003074004430
         C           -1.904616325898    -0.059745817930    -0.000000037710    12.000000000000
         C           -0.474885325898     0.380669182070     0.000002962290    12.000000000000
         C            1.854409174102     0.089555082070     0.000001062290    12.000000000000
         H           -2.427161325898     0.326300182070     0.881679962290     1.007825032230
         H           -2.427176325898     0.326357182070    -0.881646037710     1.007825032230
         H           -1.950999325898    -1.149639817930    -0.000033037710     1.007825032230
         H           -0.291592325898     1.468240182070    -0.000011037710     1.007825032230
         H            1.865132674102     1.182289182070     0.000001962290     1.007825032230
         H            2.365980674102    -0.288077817930    -0.882054037710     1.007825032230
         H            2.365977674102    -0.288079817930     0.882056962290     1.007825032230

  Basis Set: AUG-CC-PVTZ
    Blend: AUG-CC-PVTZ
  Basis Set: (AUG-CC-PVTZ AUX)
    Blend: AUG-CC-PVTZ-JKFIT
	 Reference Energy          =    -172.1684007671983636 [Eh]
	 Singles Energy            =      -0.0000000000000000 [Eh]
	 Same-Spin Energy          =      -0.1760102134882429 [Eh]
	 Opposite-Spin Energy      =      -0.6271300333126131 [Eh]
	 Correlation Energy        =      -0.8031402468008559 [Eh]
	 Total Energy              =    -172.9715410139992287 [Eh]

	 ================> DF-SCS-MP2 Energies <==================
	-----------------------------------------------------------
	 SCS Same-Spin Scale       =       0.3333333333333333 [-]
	 SCS Opposite-Spin Scale   =       1.2000000000000000 [-]
	 SCS Same-Spin Energy      =      -0.0586700711627476 [Eh]
	 SCS Opposite-Spin Energy  =      -0.7525560399751356 [Eh]
	 SCS Correlation Energy    =      -0.8112261111378832 [Eh]
	 SCS Total Energy          =    -172.9796268783362336 [Eh]
	-----------------------------------------------------------

  Dipole Moment: [D]
     X:    -0.2932      Y:     1.5662      Z:     0.0000     Total:     1.5934

*** Psi4 exiting successfully. Buy a developer a beer!
