                               Psi4 1.3.2 release

  ==> Input File <==

--------------------------------------------------------------------------
#psi4
#
memory 32 gb

molecule  {
0 1
  N       -0.4971380    -0.4884030    -0.0000080
  C        1.8933030    -0.0828010    -0.0000140
  C        0.4635850     0.3576260     0.0000390
  C       -1.9397621     0.0965715    -0.0000069
  H        2.4160690     0.3042180    -0.8811360
  H        2.4155930     0.3023240     0.8822020
  H        1.9396870    -1.1727100    -0.0011150
  H        0.2802710     1.4452080    -0.0000290
  H       -1.8762720     1.1592310    -0.0004570
  H       -2.3769420    -0.3108180     0.8823140
  H       -2.3772210    -0.3115500    -0.8818350
units angstrom
no_reorient  #important for SAPT in psi4, default
symmetry c1  #important for SAPT in psi4, default
}

set PROPERTIES_ORIGIN ["COM"]
properties('MP2/aug-cc-pvtz', properties = ['dipole'])
--------------------------------------------------------------------------

    Molecular point group: c1
  Charge       = 0
  Multiplicity = 1
  Basis Set: AUG-CC-PVTZ
    Blend: AUG-CC-PVTZ
  Basis Set: (AUG-CC-PVTZ AUX)
    Blend: AUG-CC-PVTZ-JKFIT

    Orbital Energies [Eh]
    ---------------------

    Doubly Occupied:

       1A    -15.556062     2A    -11.273267     3A    -11.242402
       4A    -11.223501     5A     -1.202017     6A     -1.003731
       7A     -0.916937     8A     -0.756695     9A     -0.629314
      10A     -0.613547    11A     -0.597268    12A     -0.569526
      13A     -0.532324    14A     -0.521503    15A     -0.400641
      16A     -0.395497

  @DF-RHF Final Energy:  -172.16058055392944

   => Energetics <=

    Nuclear Repulsion Energy =            116.6696428098489520
    One-Electron Energy =                -462.7919798827710451
    Two-Electron Energy =                 173.9617565189926722
    Total Energy =                       -172.1605805539294352
  Basis Set: (AUG-CC-PVTZ AUX)
    Blend: AUG-CC-PVTZ-RI
    Molecular point group: c1

    Geometry (in Angstrom), charge = 0, multiplicity = 1:

       Center              X                  Y                   Z               Mass
    ------------   -----------------  -----------------  -----------------  -----------------
         N           -0.470297370027    -0.471658540136    -0.000008854172    14.003074004430
         C            1.920143629973    -0.066056540136    -0.000014854172    12.000000000000
         C            0.490425629973     0.374370459864     0.000038145828    12.000000000000
         C           -1.912921470027     0.113315959864    -0.000007754172    12.000000000000
         H            2.442909629973     0.320962459864    -0.881136854172     1.007825032230
         H            2.442433629973     0.319068459864     0.882201145828     1.007825032230
         H            1.966527629973    -1.155965540136    -0.001115854172     1.007825032230
         H            0.307111629973     1.461952459864    -0.000029854172     1.007825032230
         H           -1.849431370027     1.175975459864    -0.000457854172     1.007825032230
         H           -2.350101370027    -0.294073540136     0.882313145828     1.007825032230
         H           -2.350380370027    -0.294805540136    -0.881835854172     1.007825032230

  Basis Set: AUG-CC-PVTZ
    Blend: AUG-CC-PVTZ
  Basis Set: (AUG-CC-PVTZ AUX)
    Blend: AUG-CC-PVTZ-JKFIT
	 Reference Energy          =    -172.1605805539294352 [Eh]
	 Singles Energy            =      -0.0000000000000000 [Eh]
	 Same-Spin Energy          =      -0.1759722885624397 [Eh]
	 Opposite-Spin Energy      =      -0.6280677887908364 [Eh]
	 Correlation Energy        =      -0.8040400773532761 [Eh]
	 Total Energy              =    -172.9646206312827132 [Eh]

	 ================> DF-SCS-MP2 Energies <==================
	-----------------------------------------------------------
	 SCS Same-Spin Scale       =       0.3333333333333333 [-]
	 SCS Opposite-Spin Scale   =       1.2000000000000000 [-]
	 SCS Same-Spin Energy      =      -0.0586574295208132 [Eh]
	 SCS Opposite-Spin Energy  =      -0.7536813465490037 [Eh]
	 SCS Correlation Energy    =      -0.8123387760698169 [Eh]
	 SCS Total Energy          =    -172.9729193299992573 [Eh]
	-----------------------------------------------------------

  Dipole Moment: [D]
     X:     0.2048      Y:     1.6133      Z:     0.0001     Total:     1.6263

*** Psi4 exiting successfully. Buy a developer a beer!
