                               Psi4 1.4a3.dev225

  ==> Input File <==

--------------------------------------------------------------------------
#psi4
#
memory 32 gb

molecule  {
0 1
  N        0.4972020    -0.4883560    -0.0000030
  C       -1.8933690    -0.0828130     0.0000000
  C       -0.4158537     0.3723215     0.0000031
  C        1.8471220     0.0589730     0.0000010
  H       -2.4159140     0.3032330     0.8816800
  H       -2.4159290     0.3032900    -0.8816460
  H       -1.9397520    -1.1727070    -0.0000330
  H       -0.2803450     1.4451730    -0.0000110
  H        1.8763800     1.1592220     0.0000020
  H        2.3772280    -0.3111450    -0.8820540
  H        2.3772250    -0.3111470     0.8820570
units angstrom
no_reorient  #important for SAPT in psi4, default
symmetry c1  #important for SAPT in psi4, default
}

set PROPERTIES_ORIGIN ["COM"]
properties('MP2/aug-cc-pvtz', properties = ['dipole'])
--------------------------------------------------------------------------

    Molecular point group: c1
  Charge       = 0
  Multiplicity = 1
  Basis Set: AUG-CC-PVTZ
    Blend: AUG-CC-PVTZ
  Basis Set: (AUG-CC-PVTZ AUX)
    Blend: AUG-CC-PVTZ-JKFIT

    Orbital Energies [Eh]
    ---------------------

    Doubly Occupied:

       1A    -15.555093     2A    -11.273900     3A    -11.243614
       4A    -11.224303     5A     -1.232243     6A     -0.999549
       7A     -0.910807     8A     -0.768110     9A     -0.647290
      10A     -0.609754    11A     -0.593404    12A     -0.561560
      13A     -0.538513    14A     -0.503832    15A     -0.407001
      16A     -0.406733

  @DF-RHF Final Energy:  -172.16788467094264

   => Energetics <=

    Nuclear Repulsion Energy =            118.0203740402864838
    One-Electron Energy =                -465.4251034369731883
    Two-Electron Energy =                 175.2368447257440778
    Total Energy =                       -172.1678846709426409
  Basis Set: (AUG-CC-PVTZ AUX)
    Blend: AUG-CC-PVTZ-RI
    Molecular point group: c1

    Geometry (in Angstrom), charge = 0, multiplicity = 1:

       Center              X                  Y                   Z               Mass
    ------------   -----------------  -----------------  -----------------  -----------------
         N            0.479803064732    -0.466804038030    -0.000003037710    14.003074004430
         C           -1.910767935268    -0.061261038030    -0.000000037710    12.000000000000
         C           -0.433252635268     0.393873461970     0.000003062290    12.000000000000
         C            1.829723064732     0.080524961970     0.000000962290    12.000000000000
         H           -2.433312935268     0.324784961970     0.881679962290     1.007825032230
         H           -2.433327935268     0.324841961970    -0.881646037710     1.007825032230
         H           -1.957150935268    -1.151155038030    -0.000033037710     1.007825032230
         H           -0.297743935268     1.466724961970    -0.000011037710     1.007825032230
         H            1.858981064732     1.180773961970     0.000001962290     1.007825032230
         H            2.359829064732    -0.289593038030    -0.882054037710     1.007825032230
         H            2.359826064732    -0.289595038030     0.882056962290     1.007825032230

  Basis Set: AUG-CC-PVTZ
    Blend: AUG-CC-PVTZ
  Basis Set: (AUG-CC-PVTZ AUX)
    Blend: AUG-CC-PVTZ-JKFIT
	 Reference Energy          =    -172.1678846709426409 [Eh]
	 Singles Energy            =      -0.0000000000000000 [Eh]
	 Same-Spin Energy          =      -0.1753823871665556 [Eh]
	 Opposite-Spin Energy      =      -0.6259609152016724 [Eh]
	 Correlation Energy        =      -0.8013433023682280 [Eh]
	 Total Energy              =    -172.9692279733108649 [Eh]

	 ================> DF-SCS-MP2 Energies <==================
	-----------------------------------------------------------
	 SCS Same-Spin Scale       =       0.3333333333333333 [-]
	 SCS Opposite-Spin Scale   =       1.2000000000000000 [-]
	 SCS Same-Spin Energy      =      -0.0584607957221852 [Eh]
	 SCS Opposite-Spin Energy  =      -0.7511530982420068 [Eh]
	 SCS Correlation Energy    =      -0.8096138939641920 [Eh]
	 SCS Total Energy          =    -172.9774985649068242 [Eh]
	-----------------------------------------------------------

  Dipole Moment: [D]
     X:    -0.1685      Y:     1.5829      Z:     0.0000     Total:     1.5919

*** Psi4 exiting successfully. Buy a developer a beer!
