                               Psi4 1.3.2 release

  ==> Input File <==

--------------------------------------------------------------------------
#psi4
#
memory 32 gb

molecule  {
0 1
  N       -0.5260787    -0.4543589    -0.0000122
  C        1.8933030    -0.0828010    -0.0000140
  C        0.4635850     0.3576260     0.0000390
  C       -1.8470910     0.0589940    -0.0000070
  H        2.4160690     0.3042180    -0.8811360
  H        2.4155930     0.3023240     0.8822020
  H        1.9396870    -1.1727100    -0.0011150
  H        0.2802710     1.4452080    -0.0000290
  H       -1.8762720     1.1592310    -0.0004570
  H       -2.3769420    -0.3108180     0.8823140
  H       -2.3772210    -0.3115500    -0.8818350
units angstrom
no_reorient  #important for SAPT in psi4, default
symmetry c1  #important for SAPT in psi4, default
}

set PROPERTIES_ORIGIN ["COM"]
properties('MP2/aug-cc-pvtz', properties = ['dipole'])
--------------------------------------------------------------------------

    Molecular point group: c1
  Charge       = 0
  Multiplicity = 1
  Basis Set: AUG-CC-PVTZ
    Blend: AUG-CC-PVTZ
  Basis Set: (AUG-CC-PVTZ AUX)
    Blend: AUG-CC-PVTZ-JKFIT

    Orbital Energies [Eh]
    ---------------------

    Doubly Occupied:

       1A    -15.552383     2A    -11.277598     3A    -11.241021
       4A    -11.227086     5A     -1.226272     6A     -1.015260
       7A     -0.912371     8A     -0.760889     9A     -0.650561
      10A     -0.615376    11A     -0.596703    12A     -0.567026
      13A     -0.540689    14A     -0.515773    15A     -0.398544
      16A     -0.395494

  @DF-RHF Final Energy:  -172.16857541959567

   => Energetics <=

    Nuclear Repulsion Energy =            118.3044327898275583
    One-Electron Energy =                -465.9599262862208207
    Two-Electron Energy =                 175.4869180767975934
    Total Energy =                       -172.1685754195956690
  Basis Set: (AUG-CC-PVTZ AUX)
    Blend: AUG-CC-PVTZ-RI
    Molecular point group: c1

    Geometry (in Angstrom), charge = 0, multiplicity = 1:

       Center              X                  Y                   Z               Mass
    ------------   -----------------  -----------------  -----------------  -----------------
         N           -0.511625400530    -0.438066473503    -0.000012002381    14.003074004430
         C            1.907756299470    -0.066508573503    -0.000013802381    12.000000000000
         C            0.478038299470     0.373918426497     0.000039197619    12.000000000000
         C           -1.832637700530     0.075286426497    -0.000006802381    12.000000000000
         H            2.430522299470     0.320510426497    -0.881135802381     1.007825032230
         H            2.430046299470     0.318616426497     0.882202197619     1.007825032230
         H            1.954140299470    -1.156417573503    -0.001114802381     1.007825032230
         H            0.294724299470     1.461500426497    -0.000028802381     1.007825032230
         H           -1.861818700530     1.175523426497    -0.000456802381     1.007825032230
         H           -2.362488700530    -0.294525573503     0.882314197619     1.007825032230
         H           -2.362767700530    -0.295257573503    -0.881834802381     1.007825032230

  Basis Set: AUG-CC-PVTZ
    Blend: AUG-CC-PVTZ
  Basis Set: (AUG-CC-PVTZ AUX)
    Blend: AUG-CC-PVTZ-JKFIT
	 Reference Energy          =    -172.1685754195956690 [Eh]
	 Singles Energy            =      -0.0000000000000000 [Eh]
	 Same-Spin Energy          =      -0.1762066402835873 [Eh]
	 Opposite-Spin Energy      =      -0.6264507530515140 [Eh]
	 Correlation Energy        =      -0.8026573933351013 [Eh]
	 Total Energy              =    -172.9712328129307650 [Eh]

	 ================> DF-SCS-MP2 Energies <==================
	-----------------------------------------------------------
	 SCS Same-Spin Scale       =       0.3333333333333333 [-]
	 SCS Opposite-Spin Scale   =       1.2000000000000000 [-]
	 SCS Same-Spin Energy      =      -0.0587355467611958 [Eh]
	 SCS Opposite-Spin Energy  =      -0.7517409036618168 [Eh]
	 SCS Correlation Energy    =      -0.8104764504230125 [Eh]
	 SCS Total Energy          =    -172.9790518700186794 [Eh]
	-----------------------------------------------------------

  Dipole Moment: [D]
     X:     0.3815      Y:     1.4488      Z:     0.0002     Total:     1.4982

*** Psi4 exiting successfully. Buy a developer a beer!
