                               Psi4 1.3.2 release

  ==> Input File <==

--------------------------------------------------------------------------
#psi4
#
memory 32 gb

molecule  {
0 1
  N       -0.4971380    -0.4884030    -0.0000080
  C        1.8933030    -0.0828010    -0.0000140
  C        0.4635850     0.3576260     0.0000390
  C       -1.8470910     0.0589940    -0.0000070
  H        2.4160690     0.3042180    -0.8811360
  H        2.4155930     0.3023240     0.8822020
  H        1.9396870    -1.1727100    -0.0011150
  H        0.2968917     1.3465989    -0.0000228
  H       -1.8762720     1.1592310    -0.0004570
  H       -2.3769420    -0.3108180     0.8823140
  H       -2.3772210    -0.3115500    -0.8818350
units angstrom
no_reorient  #important for SAPT in psi4, default
symmetry c1  #important for SAPT in psi4, default
}

set PROPERTIES_ORIGIN ["COM"]
properties('MP2/aug-cc-pvtz', properties = ['dipole'])
--------------------------------------------------------------------------

    Molecular point group: c1
  Charge       = 0
  Multiplicity = 1
  Basis Set: AUG-CC-PVTZ
    Blend: AUG-CC-PVTZ
  Basis Set: (AUG-CC-PVTZ AUX)
    Blend: AUG-CC-PVTZ-JKFIT

    Orbital Energies [Eh]
    ---------------------

    Doubly Occupied:

       1A    -15.554527     2A    -11.264838     3A    -11.242947
       4A    -11.223575     5A     -1.221072     6A     -1.011476
       7A     -0.909533     8A     -0.784791     9A     -0.651070
      10A     -0.610558    11A     -0.592857    12A     -0.564734
      13A     -0.539142    14A     -0.515062    15A     -0.405597
      16A     -0.396814

  @DF-RHF Final Energy:  -172.16387446415612

   => Energetics <=

    Nuclear Repulsion Energy =            118.3488649393447645
    One-Electron Energy =                -466.0482915728733246
    Two-Electron Energy =                 175.5355521693724370
    Total Energy =                       -172.1638744641561232
  Basis Set: (AUG-CC-PVTZ AUX)
    Blend: AUG-CC-PVTZ-RI
    Molecular point group: c1

    Geometry (in Angstrom), charge = 0, multiplicity = 1:

       Center              X                  Y                   Z               Mass
    ------------   -----------------  -----------------  -----------------  -----------------
         N           -0.490080869980    -0.462013754592    -0.000008942652    14.003074004430
         C            1.900360130020    -0.056411754592    -0.000014942652    12.000000000000
         C            0.470642130020     0.384015245408     0.000038057348    12.000000000000
         C           -1.840033869980     0.085383245408    -0.000007942652    12.000000000000
         H            2.423126130020     0.330607245408    -0.881136942652     1.007825032230
         H            2.422650130020     0.328713245408     0.882201057348     1.007825032230
         H            1.946744130020    -1.146320754592    -0.001115942652     1.007825032230
         H            0.303948830020     1.372988145408    -0.000023742652     1.007825032230
         H           -1.869214869980     1.185620245408    -0.000457942652     1.007825032230
         H           -2.369884869980    -0.284428754592     0.882313057348     1.007825032230
         H           -2.370163869980    -0.285160754592    -0.881835942652     1.007825032230

  Basis Set: AUG-CC-PVTZ
    Blend: AUG-CC-PVTZ
  Basis Set: (AUG-CC-PVTZ AUX)
    Blend: AUG-CC-PVTZ-JKFIT
	 Reference Energy          =    -172.1638744641561232 [Eh]
	 Singles Energy            =      -0.0000000000000000 [Eh]
	 Same-Spin Energy          =      -0.1757905448675455 [Eh]
	 Opposite-Spin Energy      =      -0.6265112869556904 [Eh]
	 Correlation Energy        =      -0.8023018318232359 [Eh]
	 Total Energy              =    -172.9661762959793521 [Eh]

	 ================> DF-SCS-MP2 Energies <==================
	-----------------------------------------------------------
	 SCS Same-Spin Scale       =       0.3333333333333333 [-]
	 SCS Opposite-Spin Scale   =       1.2000000000000000 [-]
	 SCS Same-Spin Energy      =      -0.0585968482891818 [Eh]
	 SCS Opposite-Spin Energy  =      -0.7518135443468285 [Eh]
	 SCS Correlation Energy    =      -0.8104103926360103 [Eh]
	 SCS Total Energy          =    -172.9742848567921385 [Eh]
	-----------------------------------------------------------

  Dipole Moment: [D]
     X:     0.3135      Y:     1.6447      Z:     0.0001     Total:     1.6743

*** Psi4 exiting successfully. Buy a developer a beer!
