                               Psi4 1.4a3.dev225

  ==> Input File <==

--------------------------------------------------------------------------
#psi4
#
memory 32 gb

molecule  {
0 1
  N        0.4972020    -0.4883560    -0.0000030
  C       -1.8933690    -0.0828130     0.0000000
  C       -0.5114223     0.3428825     0.0000029
  C        1.8471220     0.0589730     0.0000010
  H       -2.4159140     0.3032330     0.8816800
  H       -2.4159290     0.3032900    -0.8816460
  H       -1.9397520    -1.1727070    -0.0000330
  H       -0.2803450     1.4451730    -0.0000110
  H        1.8763800     1.1592220     0.0000020
  H        2.3772280    -0.3111450    -0.8820540
  H        2.3772250    -0.3111470     0.8820570
units angstrom
no_reorient  #important for SAPT in psi4, default
symmetry c1  #important for SAPT in psi4, default
}

set PROPERTIES_ORIGIN ["COM"]
properties('MP2/aug-cc-pvtz', properties = ['dipole'])
--------------------------------------------------------------------------

    Molecular point group: c1
  Charge       = 0
  Multiplicity = 1
  Basis Set: AUG-CC-PVTZ
    Blend: AUG-CC-PVTZ
  Basis Set: (AUG-CC-PVTZ AUX)
    Blend: AUG-CC-PVTZ-JKFIT

    Orbital Energies [Eh]
    ---------------------

    Doubly Occupied:

       1A    -15.556932     2A    -11.280839     3A    -11.243144
       4A    -11.225594     5A     -1.209561     6A     -1.023143
       7A     -0.908628     8A     -0.756734     9A     -0.646305
      10A     -0.613302    11A     -0.595219    12A     -0.568187
      13A     -0.535642    14A     -0.520515    15A     -0.400845
      16A     -0.388612

  @DF-RHF Final Energy:  -172.16307497816712

   => Energetics <=

    Nuclear Repulsion Energy =            117.8026859322228006
    One-Electron Energy =                -464.9851177713845232
    Two-Electron Energy =                 175.0193568609946055
    Total Energy =                       -172.1630749781671170
  Basis Set: (AUG-CC-PVTZ AUX)
    Blend: AUG-CC-PVTZ-RI
    Molecular point group: c1

    Geometry (in Angstrom), charge = 0, multiplicity = 1:

       Center              X                  Y                   Z               Mass
    ------------   -----------------  -----------------  -----------------  -----------------
         N            0.499902371233    -0.460612637464    -0.000002995647    14.003074004430
         C           -1.890668628767    -0.055069637464     0.000000004353    12.000000000000
         C           -0.508721928767     0.370625862536     0.000002904353    12.000000000000
         C            1.849822371233     0.086716362536     0.000001004353    12.000000000000
         H           -2.413213628767     0.330976362536     0.881680004353     1.007825032230
         H           -2.413228628767     0.331033362536    -0.881645995647     1.007825032230
         H           -1.937051628767    -1.144963637464    -0.000032995647     1.007825032230
         H           -0.277644628767     1.472916362536    -0.000010995647     1.007825032230
         H            1.879080371233     1.186965362536     0.000002004353     1.007825032230
         H            2.379928371233    -0.283401637464    -0.882053995647     1.007825032230
         H            2.379925371233    -0.283403637464     0.882057004353     1.007825032230

  Basis Set: AUG-CC-PVTZ
    Blend: AUG-CC-PVTZ
  Basis Set: (AUG-CC-PVTZ AUX)
    Blend: AUG-CC-PVTZ-JKFIT
	 Reference Energy          =    -172.1630749781671170 [Eh]
	 Singles Energy            =      -0.0000000000000000 [Eh]
	 Same-Spin Energy          =      -0.1770751505001177 [Eh]
	 Opposite-Spin Energy      =      -0.6285330275428518 [Eh]
	 Correlation Energy        =      -0.8056081780429695 [Eh]
	 Total Energy              =    -172.9686831562100906 [Eh]

	 ================> DF-SCS-MP2 Energies <==================
	-----------------------------------------------------------
	 SCS Same-Spin Scale       =       0.3333333333333333 [-]
	 SCS Opposite-Spin Scale   =       1.2000000000000000 [-]
	 SCS Same-Spin Energy      =      -0.0590250501667059 [Eh]
	 SCS Opposite-Spin Energy  =      -0.7542396330514222 [Eh]
	 SCS Correlation Energy    =      -0.8132646832181281 [Eh]
	 SCS Total Energy          =    -172.9763396613852535 [Eh]
	-----------------------------------------------------------

  Dipole Moment: [D]
     X:    -0.4683      Y:     1.5195      Z:     0.0000     Total:     1.5900

*** Psi4 exiting successfully. Buy a developer a beer!
