                               Psi4 1.3.2 release

  ==> Input File <==

--------------------------------------------------------------------------
#psi4
#
memory 32 gb

molecule  {
0 1
  N       -0.4971380    -0.4884030    -0.0000080
  C        1.8933030    -0.0828010    -0.0000140
  C        0.4635850     0.3576260     0.0000390
  C       -1.8470910     0.0589940    -0.0000070
  H        2.4160690     0.3042180    -0.8811360
  H        2.4155930     0.3023240     0.8822020
  H        1.9396870    -1.1727100    -0.0011150
  H        0.2470295     1.6424262    -0.0000413
  H       -1.8762720     1.1592310    -0.0004570
  H       -2.3769420    -0.3108180     0.8823140
  H       -2.3772210    -0.3115500    -0.8818350
units angstrom
no_reorient  #important for SAPT in psi4, default
symmetry c1  #important for SAPT in psi4, default
}

set PROPERTIES_ORIGIN ["COM"]
properties('MP2/aug-cc-pvtz', properties = ['dipole'])
--------------------------------------------------------------------------

    Molecular point group: c1
  Charge       = 0
  Multiplicity = 1
  Basis Set: AUG-CC-PVTZ
    Blend: AUG-CC-PVTZ
  Basis Set: (AUG-CC-PVTZ AUX)
    Blend: AUG-CC-PVTZ-JKFIT

    Orbital Energies [Eh]
    ---------------------

    Doubly Occupied:

       1A    -15.560581     2A    -11.299147     3A    -11.244534
       4A    -11.229489     5A     -1.221960     6A     -1.011147
       7A     -0.912119     8A     -0.732920     9A     -0.634800
      10A     -0.612475    11A     -0.595389    12A     -0.567082
      13A     -0.535943    14A     -0.503878    15A     -0.402090
      16A     -0.400898

  @DF-RHF Final Energy:  -172.14825802948039

   => Energetics <=

    Nuclear Repulsion Energy =            117.1446343497289178
    One-Electron Energy =                -463.6568819451526906
    Two-Electron Energy =                 174.3639895659433989
    Total Energy =                       -172.1482580294803881
  Basis Set: (AUG-CC-PVTZ AUX)
    Blend: AUG-CC-PVTZ-RI
    Molecular point group: c1

    Geometry (in Angstrom), charge = 0, multiplicity = 1:

       Center              X                  Y                   Z               Mass
    ------------   -----------------  -----------------  -----------------  -----------------
         N           -0.489200143243    -0.467239015660    -0.000008615883    14.003074004430
         C            1.901240856757    -0.061637015660    -0.000014615883    12.000000000000
         C            0.471522856757     0.378789984340     0.000038384117    12.000000000000
         C           -1.839153143243     0.080157984340    -0.000007615883    12.000000000000
         H            2.424006856757     0.325381984340    -0.881136615883     1.007825032230
         H            2.423530856757     0.323487984340     0.882201384117     1.007825032230
         H            1.947624856757    -1.151546015660    -0.001115615883     1.007825032230
         H            0.254967356757     1.663590184340    -0.000041915883     1.007825032230
         H           -1.868334143243     1.180394984340    -0.000457615883     1.007825032230
         H           -2.369004143243    -0.289654015660     0.882313384117     1.007825032230
         H           -2.369283143243    -0.290386015660    -0.881835615883     1.007825032230

  Basis Set: AUG-CC-PVTZ
    Blend: AUG-CC-PVTZ
  Basis Set: (AUG-CC-PVTZ AUX)
    Blend: AUG-CC-PVTZ-JKFIT
	 Reference Energy          =    -172.1482580294803881 [Eh]
	 Singles Energy            =      -0.0000000000000000 [Eh]
	 Same-Spin Energy          =      -0.1769964090857021 [Eh]
	 Opposite-Spin Energy      =      -0.6292987538467723 [Eh]
	 Correlation Energy        =      -0.8062951629324744 [Eh]
	 Total Energy              =    -172.9545531924128738 [Eh]

	 ================> DF-SCS-MP2 Energies <==================
	-----------------------------------------------------------
	 SCS Same-Spin Scale       =       0.3333333333333333 [-]
	 SCS Opposite-Spin Scale   =       1.2000000000000000 [-]
	 SCS Same-Spin Energy      =      -0.0589988030285674 [Eh]
	 SCS Opposite-Spin Energy  =      -0.7551585046161267 [Eh]
	 SCS Correlation Energy    =      -0.8141573076446941 [Eh]
	 SCS Total Energy          =    -172.9624153371250941 [Eh]
	-----------------------------------------------------------

  Dipole Moment: [D]
     X:     0.3314      Y:     1.2733      Z:     0.0001     Total:     1.3157

*** Psi4 exiting successfully. Buy a developer a beer!
