                               Psi4 1.3.2 release

  ==> Input File <==

--------------------------------------------------------------------------
#psi4
#
memory 32 gb

molecule  {
0 1
  N       -0.4822264    -0.5050411    -0.0000094
  C        1.8933030    -0.0828010    -0.0000140
  C        0.4635850     0.3576260     0.0000390
  C       -1.8470910     0.0589940    -0.0000070
  H        2.4160690     0.3042180    -0.8811360
  H        2.4155930     0.3023240     0.8822020
  H        1.9396870    -1.1727100    -0.0011150
  H        0.2802710     1.4452080    -0.0000290
  H       -1.8762720     1.1592310    -0.0004570
  H       -2.3769420    -0.3108180     0.8823140
  H       -2.3772210    -0.3115500    -0.8818350
units angstrom
no_reorient  #important for SAPT in psi4, default
symmetry c1  #important for SAPT in psi4, default
}

set PROPERTIES_ORIGIN ["COM"]
properties('MP2/aug-cc-pvtz', properties = ['dipole'])
--------------------------------------------------------------------------

    Molecular point group: c1
  Charge       = 0
  Multiplicity = 1
  Basis Set: AUG-CC-PVTZ
    Blend: AUG-CC-PVTZ
  Basis Set: (AUG-CC-PVTZ AUX)
    Blend: AUG-CC-PVTZ-JKFIT

    Orbital Energies [Eh]
    ---------------------

    Doubly Occupied:

       1A    -15.557750     2A    -11.276869     3A    -11.244439
       4A    -11.224284     5A     -1.217989     6A     -1.008199
       7A     -0.909116     8A     -0.762619     9A     -0.644177
      10A     -0.608890    11A     -0.591992    12A     -0.564512
      13A     -0.536174    14A     -0.510898    15A     -0.407506
      16A     -0.398906

  @DF-RHF Final Energy:  -172.16783622342024

   => Energetics <=

    Nuclear Repulsion Energy =            117.7013494028835510
    One-Electron Energy =                -464.8097351450996371
    Two-Electron Energy =                 174.9405495187958763
    Total Energy =                       -172.1678362234202382
  Basis Set: (AUG-CC-PVTZ AUX)
    Blend: AUG-CC-PVTZ-RI
    Molecular point group: c1

    Geometry (in Angstrom), charge = 0, multiplicity = 1:

       Center              X                  Y                   Z               Mass
    ------------   -----------------  -----------------  -----------------  -----------------
         N           -0.478535283305    -0.476310304253    -0.000009889554    14.003074004430
         C            1.896994116695    -0.054070204253    -0.000014489554    12.000000000000
         C            0.467276116695     0.386356795747     0.000038510446    12.000000000000
         C           -1.843399883305     0.087724795747    -0.000007489554    12.000000000000
         H            2.419760116695     0.332948795747    -0.881136489554     1.007825032230
         H            2.419284116695     0.331054795747     0.882201510446     1.007825032230
         H            1.943378116695    -1.143979204253    -0.001115489554     1.007825032230
         H            0.283962116695     1.473938795747    -0.000029489554     1.007825032230
         H           -1.872580883305     1.187961795747    -0.000457489554     1.007825032230
         H           -2.373250883305    -0.282087204253     0.882313510446     1.007825032230
         H           -2.373529883305    -0.282819204253    -0.881835489554     1.007825032230

  Basis Set: AUG-CC-PVTZ
    Blend: AUG-CC-PVTZ
  Basis Set: (AUG-CC-PVTZ AUX)
    Blend: AUG-CC-PVTZ-JKFIT
	 Reference Energy          =    -172.1678362234202382 [Eh]
	 Singles Energy            =      -0.0000000000000000 [Eh]
	 Same-Spin Energy          =      -0.1760854556085290 [Eh]
	 Opposite-Spin Energy      =      -0.6273785767315896 [Eh]
	 Correlation Energy        =      -0.8034640323401187 [Eh]
	 Total Energy              =    -172.9713002557603545 [Eh]

	 ================> DF-SCS-MP2 Energies <==================
	-----------------------------------------------------------
	 SCS Same-Spin Scale       =       0.3333333333333333 [-]
	 SCS Opposite-Spin Scale   =       1.2000000000000000 [-]
	 SCS Same-Spin Energy      =      -0.0586951518695097 [Eh]
	 SCS Opposite-Spin Energy  =      -0.7528542920779074 [Eh]
	 SCS Correlation Energy    =      -0.8115494439474171 [Eh]
	 SCS Total Energy          =    -172.9793856673676657 [Eh]
	-----------------------------------------------------------

  Dipole Moment: [D]
     X:     0.2927      Y:     1.5975      Z:     0.0001     Total:     1.6241

*** Psi4 exiting successfully. Buy a developer a beer!
