                               Psi4 1.3.2 release

  ==> Input File <==

--------------------------------------------------------------------------
#psi4
#
memory 32 gb

molecule  {
0 1
  N       -0.4971380    -0.4884030    -0.0000080
  C        1.8933030    -0.0828010    -0.0000140
  C        0.4635850     0.3576260     0.0000390
  C       -2.0324332     0.1341490    -0.0000069
  H        2.4160690     0.3042180    -0.8811360
  H        2.4155930     0.3023240     0.8822020
  H        1.9396870    -1.1727100    -0.0011150
  H        0.2802710     1.4452080    -0.0000290
  H       -1.8762720     1.1592310    -0.0004570
  H       -2.3769420    -0.3108180     0.8823140
  H       -2.3772210    -0.3115500    -0.8818350
units angstrom
no_reorient  #important for SAPT in psi4, default
symmetry c1  #important for SAPT in psi4, default
}

set PROPERTIES_ORIGIN ["COM"]
properties('MP2/aug-cc-pvtz', properties = ['dipole'])
--------------------------------------------------------------------------

    Molecular point group: c1
  Charge       = 0
  Multiplicity = 1
  Basis Set: AUG-CC-PVTZ
    Blend: AUG-CC-PVTZ
  Basis Set: (AUG-CC-PVTZ AUX)
    Blend: AUG-CC-PVTZ-JKFIT

    Orbital Energies [Eh]
    ---------------------

    Doubly Occupied:

       1A    -15.555410     2A    -11.270226     3A    -11.244777
       4A    -11.222121     5A     -1.188721     6A     -0.998574
       7A     -0.923392     8A     -0.752439     9A     -0.621083
      10A     -0.615842    11A     -0.604491    12A     -0.571057
      13A     -0.532779    14A     -0.519575    15A     -0.401177
      16A     -0.381741

  @DF-RHF Final Energy:  -172.14049635592937

   => Energetics <=

    Nuclear Repulsion Energy =            115.5240707018842699
    One-Electron Energy =                -460.5223267536970297
    Two-Electron Energy =                 172.8577596958833738
    Total Energy =                       -172.1404963559293719
  Basis Set: (AUG-CC-PVTZ AUX)
    Blend: AUG-CC-PVTZ-RI
    Molecular point group: c1

    Geometry (in Angstrom), charge = 0, multiplicity = 1:

       Center              X                  Y                   Z               Mass
    ------------   -----------------  -----------------  -----------------  -----------------
         N           -0.450807445065    -0.479561571990    -0.000008854172    14.003074004430
         C            1.939633554935    -0.073959571990    -0.000014854172    12.000000000000
         C            0.509915554935     0.366467428010     0.000038145828    12.000000000000
         C           -1.986102645065     0.142990428010    -0.000007754172    12.000000000000
         H            2.462399554935     0.313059428010    -0.881136854172     1.007825032230
         H            2.461923554935     0.311165428010     0.882201145828     1.007825032230
         H            1.986017554935    -1.163868571990    -0.001115854172     1.007825032230
         H            0.326601554935     1.454049428010    -0.000029854172     1.007825032230
         H           -1.829941445065     1.168072428010    -0.000457854172     1.007825032230
         H           -2.330611445065    -0.301976571990     0.882313145828     1.007825032230
         H           -2.330890445065    -0.302708571990    -0.881835854172     1.007825032230

  Basis Set: AUG-CC-PVTZ
    Blend: AUG-CC-PVTZ
  Basis Set: (AUG-CC-PVTZ AUX)
    Blend: AUG-CC-PVTZ-JKFIT
	 Reference Energy          =    -172.1404963559293719 [Eh]
	 Singles Energy            =      -0.0000000000000000 [Eh]
	 Same-Spin Energy          =      -0.1765060688110621 [Eh]
	 Opposite-Spin Energy      =      -0.6302283955123087 [Eh]
	 Correlation Energy        =      -0.8067344643233707 [Eh]
	 Total Energy              =    -172.9472308202527415 [Eh]

	 ================> DF-SCS-MP2 Energies <==================
	-----------------------------------------------------------
	 SCS Same-Spin Scale       =       0.3333333333333333 [-]
	 SCS Opposite-Spin Scale   =       1.2000000000000000 [-]
	 SCS Same-Spin Energy      =      -0.0588353562703540 [Eh]
	 SCS Opposite-Spin Energy  =      -0.7562740746147704 [Eh]
	 SCS Correlation Energy    =      -0.8151094308851243 [Eh]
	 SCS Total Energy          =    -172.9556057868144876 [Eh]
	-----------------------------------------------------------

  Dipole Moment: [D]
     X:     0.1624      Y:     1.6469      Z:     0.0001     Total:     1.6548

*** Psi4 exiting successfully. Buy a developer a beer!
