                               Psi4 1.3.2 release

  ==> Input File <==

--------------------------------------------------------------------------
#psi4
#
memory 32 gb

molecule  {
0 1
  N       -0.4971380    -0.4884030    -0.0000080
  C        1.8933030    -0.0828010    -0.0000140
  C        0.4635850     0.3576260     0.0000390
  C       -1.8470910     0.0589940    -0.0000070
  H        2.4160690     0.3042180    -0.8811360
  H        2.4155930     0.3023240     0.8822020
  H        1.9396870    -1.1727100    -0.0011150
  H        0.3135125     1.2479898    -0.0000167
  H       -1.8762720     1.1592310    -0.0004570
  H       -2.3769420    -0.3108180     0.8823140
  H       -2.3772210    -0.3115500    -0.8818350
units angstrom
no_reorient  #important for SAPT in psi4, default
symmetry c1  #important for SAPT in psi4, default
}

set PROPERTIES_ORIGIN ["COM"]
properties('MP2/aug-cc-pvtz', properties = ['dipole'])
--------------------------------------------------------------------------

    Molecular point group: c1
  Charge       = 0
  Multiplicity = 1
  Basis Set: AUG-CC-PVTZ
    Blend: AUG-CC-PVTZ
  Basis Set: (AUG-CC-PVTZ AUX)
    Blend: AUG-CC-PVTZ-JKFIT

    Orbital Energies [Eh]
    ---------------------

    Doubly Occupied:

       1A    -15.553696     2A    -11.252534     3A    -11.242739
       4A    -11.222318     5A     -1.222661     6A     -1.013671
       7A     -0.909398     8A     -0.812272     9A     -0.654823
      10A     -0.610308    11A     -0.592472    12A     -0.564300
      13A     -0.541060    14A     -0.516640    15A     -0.406136
      16A     -0.396228

  @DF-RHF Final Energy:  -172.13807749757800

   => Energetics <=

    Nuclear Repulsion Energy =            118.8700970394424985
    One-Electron Energy =                -466.9938326023790864
    Two-Electron Energy =                 175.9856580653585922
    Total Energy =                       -172.1380774975779957
  Basis Set: (AUG-CC-PVTZ AUX)
    Blend: AUG-CC-PVTZ-RI
    Molecular point group: c1

    Geometry (in Angstrom), charge = 0, multiplicity = 1:

       Center              X                  Y                   Z               Mass
    ------------   -----------------  -----------------  -----------------  -----------------
         N           -0.490374446736    -0.460272000903    -0.000009050398    14.003074004430
         C            1.900066553264    -0.054670000903    -0.000015050398    12.000000000000
         C            0.470348553264     0.385756999097     0.000037949602    12.000000000000
         C           -1.840327446736     0.087124999097    -0.000008050398    12.000000000000
         H            2.422832553264     0.332348999097    -0.881137050398     1.007825032230
         H            2.422356553264     0.330454999097     0.882200949602     1.007825032230
         H            1.946450553264    -1.144579000903    -0.001116050398     1.007825032230
         H            0.320276053264     1.276120799097    -0.000017750398     1.007825032230
         H           -1.869508446736     1.187361999097    -0.000458050398     1.007825032230
         H           -2.370178446736    -0.282687000903     0.882312949602     1.007825032230
         H           -2.370457446736    -0.283419000903    -0.881836050398     1.007825032230

  Basis Set: AUG-CC-PVTZ
    Blend: AUG-CC-PVTZ
  Basis Set: (AUG-CC-PVTZ AUX)
    Blend: AUG-CC-PVTZ-JKFIT
	 Reference Energy          =    -172.1380774975779957 [Eh]
	 Singles Energy            =      -0.0000000000000000 [Eh]
	 Same-Spin Energy          =      -0.1756249763722514 [Eh]
	 Opposite-Spin Energy      =      -0.6264668972686078 [Eh]
	 Correlation Energy        =      -0.8020918736408592 [Eh]
	 Total Energy              =    -172.9401693712188433 [Eh]

	 ================> DF-SCS-MP2 Energies <==================
	-----------------------------------------------------------
	 SCS Same-Spin Scale       =       0.3333333333333333 [-]
	 SCS Opposite-Spin Scale   =       1.2000000000000000 [-]
	 SCS Same-Spin Energy      =      -0.0585416587907504 [Eh]
	 SCS Opposite-Spin Energy  =      -0.7517602767223294 [Eh]
	 SCS Correlation Energy    =      -0.8103019355130798 [Eh]
	 SCS Total Energy          =    -172.9483794330910769 [Eh]
	-----------------------------------------------------------

  Dipole Moment: [D]
     X:     0.3040      Y:     1.7095      Z:     0.0001     Total:     1.7363

*** Psi4 exiting successfully. Buy a developer a beer!
