                               Psi4 1.3.2 release

  ==> Input File <==

--------------------------------------------------------------------------
#psi4
#
memory 32 gb

molecule  {
0 1
  N       -0.4971380    -0.4884030    -0.0000080
  C        1.8933030    -0.0828010    -0.0000140
  C        0.3885366     0.2915371     0.0000353
  C       -1.8470910     0.0589940    -0.0000070
  H        2.4160690     0.3042180    -0.8811360
  H        2.4155930     0.3023240     0.8822020
  H        1.9396870    -1.1727100    -0.0011150
  H        0.2802710     1.4452080    -0.0000290
  H       -1.8762720     1.1592310    -0.0004570
  H       -2.3769420    -0.3108180     0.8823140
  H       -2.3772210    -0.3115500    -0.8818350
units angstrom
no_reorient  #important for SAPT in psi4, default
symmetry c1  #important for SAPT in psi4, default
}

set PROPERTIES_ORIGIN ["COM"]
properties('MP2/aug-cc-pvtz', properties = ['dipole'])
--------------------------------------------------------------------------

    Molecular point group: c1
  Charge       = 0
  Multiplicity = 1
  Basis Set: AUG-CC-PVTZ
    Blend: AUG-CC-PVTZ
  Basis Set: (AUG-CC-PVTZ AUX)
    Blend: AUG-CC-PVTZ-JKFIT

    Orbital Energies [Eh]
    ---------------------

    Doubly Occupied:

       1A    -15.546330     2A    -11.269137     3A    -11.247864
       4A    -11.223036     5A     -1.263490     6A     -0.998208
       7A     -0.923302     8A     -0.744767     9A     -0.652629
      10A     -0.616221    11A     -0.601012    12A     -0.561495
      13A     -0.542424    14A     -0.502089    15A     -0.430054
      16A     -0.392413

  @DF-RHF Final Energy:  -172.15832252942286

   => Energetics <=

    Nuclear Repulsion Energy =            119.0689110693554795
    One-Electron Energy =                -467.4255267272262131
    Two-Electron Energy =                 176.1982931284478866
    Total Energy =                       -172.1583225294228612
  Basis Set: (AUG-CC-PVTZ AUX)
    Blend: AUG-CC-PVTZ-RI
    Molecular point group: c1

    Geometry (in Angstrom), charge = 0, multiplicity = 1:

       Center              X                  Y                   Z               Mass
    ------------   -----------------  -----------------  -----------------  -----------------
         N           -0.474003650633    -0.449856162079    -0.000008054983    14.003074004430
         C            1.916437349367    -0.044254162079    -0.000014054983    12.000000000000
         C            0.411670949367     0.330083937921     0.000035245017    12.000000000000
         C           -1.823956650633     0.097540837921    -0.000007054983    12.000000000000
         H            2.439203349367     0.342764837921    -0.881136054983     1.007825032230
         H            2.438727349367     0.340870837921     0.882201945017     1.007825032230
         H            1.962821349367    -1.134163162079    -0.001115054983     1.007825032230
         H            0.303405349367     1.483754837921    -0.000029054983     1.007825032230
         H           -1.853137650633     1.197777837921    -0.000457054983     1.007825032230
         H           -2.353807650633    -0.272271162079     0.882313945017     1.007825032230
         H           -2.354086650633    -0.273003162079    -0.881835054983     1.007825032230

  Basis Set: AUG-CC-PVTZ
    Blend: AUG-CC-PVTZ
  Basis Set: (AUG-CC-PVTZ AUX)
    Blend: AUG-CC-PVTZ-JKFIT
	 Reference Energy          =    -172.1583225294228612 [Eh]
	 Singles Energy            =      -0.0000000000000000 [Eh]
	 Same-Spin Energy          =      -0.1746172766829011 [Eh]
	 Opposite-Spin Energy      =      -0.6231128550073611 [Eh]
	 Correlation Energy        =      -0.7977301316902623 [Eh]
	 Total Energy              =    -172.9560526611131195 [Eh]

	 ================> DF-SCS-MP2 Energies <==================
	-----------------------------------------------------------
	 SCS Same-Spin Scale       =       0.3333333333333333 [-]
	 SCS Opposite-Spin Scale   =       1.2000000000000000 [-]
	 SCS Same-Spin Energy      =      -0.0582057588943004 [Eh]
	 SCS Opposite-Spin Energy  =      -0.7477354260088334 [Eh]
	 SCS Correlation Energy    =      -0.8059411849031337 [Eh]
	 SCS Total Energy          =    -172.9642637143259947 [Eh]
	-----------------------------------------------------------

  Dipole Moment: [D]
     X:     0.0474      Y:     1.3528      Z:     0.0001     Total:     1.3537

*** Psi4 exiting successfully. Buy a developer a beer!
