                               Psi4 1.4a3.dev225

  ==> Input File <==

--------------------------------------------------------------------------
#psi4
#
memory 32 gb

molecule  {
0 1
  N        0.4972020    -0.4883560    -0.0000030
  C       -1.8933690    -0.0828130     0.0000000
  C       -0.4827517     0.3517142     0.0000030
  C        1.8471220     0.0589730     0.0000010
  H       -2.4159140     0.3032330     0.8816800
  H       -2.4159290     0.3032900    -0.8816460
  H       -1.9397520    -1.1727070    -0.0000330
  H       -0.2803450     1.4451730    -0.0000110
  H        1.8763800     1.1592220     0.0000020
  H        2.3772280    -0.3111450    -0.8820540
  H        2.3772250    -0.3111470     0.8820570
units angstrom
no_reorient  #important for SAPT in psi4, default
symmetry c1  #important for SAPT in psi4, default
}

set PROPERTIES_ORIGIN ["COM"]
properties('MP2/aug-cc-pvtz', properties = ['dipole'])
--------------------------------------------------------------------------

    Molecular point group: c1
  Charge       = 0
  Multiplicity = 1
  Basis Set: AUG-CC-PVTZ
    Blend: AUG-CC-PVTZ
  Basis Set: (AUG-CC-PVTZ AUX)
    Blend: AUG-CC-PVTZ-JKFIT

    Orbital Energies [Eh]
    ---------------------

    Doubly Occupied:

       1A    -15.556347     2A    -11.278513     3A    -11.243232
       4A    -11.225423     5A     -1.216034     6A     -1.015391
       7A     -0.909597     8A     -0.759817     9A     -0.646168
      10A     -0.611799    11A     -0.593925    12A     -0.566598
      13A     -0.536803    14A     -0.515985    15A     -0.403466
      16A     -0.394138

  @DF-RHF Final Energy:  -172.16732763688847

   => Energetics <=

    Nuclear Repulsion Energy =            117.8543163587723086
    One-Electron Energy =                -465.0968170410723133
    Two-Electron Energy =                 175.0751730454115602
    Total Energy =                       -172.1673276368884729
  Basis Set: (AUG-CC-PVTZ AUX)
    Blend: AUG-CC-PVTZ-RI
    Molecular point group: c1

    Geometry (in Angstrom), charge = 0, multiplicity = 1:

       Center              X                  Y                   Z               Mass
    ------------   -----------------  -----------------  -----------------  -----------------
         N            0.493872575077    -0.462470057634    -0.000003016679    14.003074004430
         C           -1.896698424923    -0.056927057634    -0.000000016679    12.000000000000
         C           -0.486081124923     0.377600142366     0.000002983321    12.000000000000
         C            1.843792575077     0.084858942366     0.000000983321    12.000000000000
         H           -2.419243424923     0.329118942366     0.881679983321     1.007825032230
         H           -2.419258424923     0.329175942366    -0.881646016679     1.007825032230
         H           -1.943081424923    -1.146821057634    -0.000033016679     1.007825032230
         H           -0.283674424923     1.471058942366    -0.000011016679     1.007825032230
         H            1.873050575077     1.185107942366     0.000001983321     1.007825032230
         H            2.373898575077    -0.285259057634    -0.882054016679     1.007825032230
         H            2.373895575077    -0.285261057634     0.882056983321     1.007825032230

  Basis Set: AUG-CC-PVTZ
    Blend: AUG-CC-PVTZ
  Basis Set: (AUG-CC-PVTZ AUX)
    Blend: AUG-CC-PVTZ-JKFIT
	 Reference Energy          =    -172.1673276368884729 [Eh]
	 Singles Energy            =      -0.0000000000000000 [Eh]
	 Same-Spin Energy          =      -0.1764525639707718 [Eh]
	 Opposite-Spin Energy      =      -0.6275619835363286 [Eh]
	 Correlation Energy        =      -0.8040145475071004 [Eh]
	 Total Energy              =    -172.9713421843955814 [Eh]

	 ================> DF-SCS-MP2 Energies <==================
	-----------------------------------------------------------
	 SCS Same-Spin Scale       =       0.3333333333333333 [-]
	 SCS Opposite-Spin Scale   =       1.2000000000000000 [-]
	 SCS Same-Spin Energy      =      -0.0588175213235906 [Eh]
	 SCS Opposite-Spin Energy  =      -0.7530743802435943 [Eh]
	 SCS Correlation Energy    =      -0.8118919015671849 [Eh]
	 SCS Total Energy          =    -172.9792195384556521 [Eh]
	-----------------------------------------------------------

  Dipole Moment: [D]
     X:    -0.3806      Y:     1.5387      Z:     0.0000     Total:     1.5851

*** Psi4 exiting successfully. Buy a developer a beer!
