                               Psi4 1.3.2 release

  ==> Input File <==

--------------------------------------------------------------------------
#psi4
#
memory 32 gb

molecule  {
0 1
  N       -0.4971380    -0.4884030    -0.0000080
  C        1.8933030    -0.0828010    -0.0000140
  C        0.4635850     0.3576260     0.0000390
  C       -1.7544199     0.0214165    -0.0000071
  H        2.4160690     0.3042180    -0.8811360
  H        2.4155930     0.3023240     0.8822020
  H        1.9396870    -1.1727100    -0.0011150
  H        0.2802710     1.4452080    -0.0000290
  H       -1.8762720     1.1592310    -0.0004570
  H       -2.3769420    -0.3108180     0.8823140
  H       -2.3772210    -0.3115500    -0.8818350
units angstrom
no_reorient  #important for SAPT in psi4, default
symmetry c1  #important for SAPT in psi4, default
}

set PROPERTIES_ORIGIN ["COM"]
properties('MP2/aug-cc-pvtz', properties = ['dipole'])
--------------------------------------------------------------------------

    Molecular point group: c1
  Charge       = 0
  Multiplicity = 1
  Basis Set: AUG-CC-PVTZ
    Blend: AUG-CC-PVTZ
  Basis Set: (AUG-CC-PVTZ AUX)
    Blend: AUG-CC-PVTZ-JKFIT

    Orbital Energies [Eh]
    ---------------------

    Doubly Occupied:

       1A    -15.554970     2A    -11.281863     3A    -11.247348
       4A    -11.227339     5A     -1.246345     6A     -1.019285
       7A     -0.904017     8A     -0.768077     9A     -0.665146
      10A     -0.613904    11A     -0.594714    12A     -0.560621
      13A     -0.542862    14A     -0.501203    15A     -0.407333
      16A     -0.391020

  @DF-RHF Final Energy:  -172.15836322808471

   => Energetics <=

    Nuclear Repulsion Energy =            119.2509526790140342
    One-Electron Energy =                -467.7665381383441741
    Two-Electron Energy =                 176.3572222312454585
    Total Energy =                       -172.1583632280847098
  Basis Set: (AUG-CC-PVTZ AUX)
    Blend: AUG-CC-PVTZ-RI
    Molecular point group: c1

    Geometry (in Angstrom), charge = 0, multiplicity = 1:

       Center              X                  Y                   Z               Mass
    ------------   -----------------  -----------------  -----------------  -----------------
         N           -0.509277219952    -0.455852476427    -0.000008812109    14.003074004430
         C            1.881163780048    -0.050250476427    -0.000014812109    12.000000000000
         C            0.451445780048     0.390176523573     0.000038187891    12.000000000000
         C           -1.766559119952     0.053967023573    -0.000007912109    12.000000000000
         H            2.403929780048     0.336768523573    -0.881136812109     1.007825032230
         H            2.403453780048     0.334874523573     0.882201187891     1.007825032230
         H            1.927547780048    -1.140159476427    -0.001115812109     1.007825032230
         H            0.268131780048     1.477758523573    -0.000029812109     1.007825032230
         H           -1.888411219952     1.191781523573    -0.000457812109     1.007825032230
         H           -2.389081219952    -0.278267476427     0.882313187891     1.007825032230
         H           -2.389360219952    -0.278999476427    -0.881835812109     1.007825032230

  Basis Set: AUG-CC-PVTZ
    Blend: AUG-CC-PVTZ
  Basis Set: (AUG-CC-PVTZ AUX)
    Blend: AUG-CC-PVTZ-JKFIT
	 Reference Energy          =    -172.1583632280847098 [Eh]
	 Singles Energy            =      -0.0000000000000000 [Eh]
	 Same-Spin Energy          =      -0.1769947906531117 [Eh]
	 Opposite-Spin Energy      =      -0.6271521847044057 [Eh]
	 Correlation Energy        =      -0.8041469753575173 [Eh]
	 Total Energy              =    -172.9625102034422355 [Eh]

	 ================> DF-SCS-MP2 Energies <==================
	-----------------------------------------------------------
	 SCS Same-Spin Scale       =       0.3333333333333333 [-]
	 SCS Opposite-Spin Scale   =       1.2000000000000000 [-]
	 SCS Same-Spin Energy      =      -0.0589982635510372 [Eh]
	 SCS Opposite-Spin Energy  =      -0.7525826216452868 [Eh]
	 SCS Correlation Energy    =      -0.8115808851963240 [Eh]
	 SCS Total Energy          =    -172.9699441132810307 [Eh]
	-----------------------------------------------------------

  Dipole Moment: [D]
     X:     0.4983      Y:     1.4559      Z:     0.0002     Total:     1.5388

*** Psi4 exiting successfully. Buy a developer a beer!
