                               Psi4 1.3.2 release

  ==> Input File <==

--------------------------------------------------------------------------
#psi4
#
memory 32 gb

molecule  {
0 1
  N       -0.4971380    -0.4884030    -0.0000080
  C        1.8933030    -0.0828010    -0.0000140
  C        0.4635850     0.3576260     0.0000390
  C       -1.8203919     0.2220176    -0.3552733
  H        2.4160690     0.3042180    -0.8811360
  H        2.4155930     0.3023240     0.8822020
  H        1.9396870    -1.1727100    -0.0011150
  H        0.2802710     1.4452080    -0.0000290
  H       -1.8762720     1.1592310    -0.0004570
  H       -2.3769420    -0.3108180     0.8823140
  H       -2.3772210    -0.3115500    -0.8818350
units angstrom
no_reorient  #important for SAPT in psi4, default
symmetry c1  #important for SAPT in psi4, default
}

set PROPERTIES_ORIGIN ["COM"]
properties('MP2/aug-cc-pvtz', properties = ['dipole'])
--------------------------------------------------------------------------

    Molecular point group: c1
  Charge       = 0
  Multiplicity = 1
  Basis Set: AUG-CC-PVTZ
    Blend: AUG-CC-PVTZ
  Basis Set: (AUG-CC-PVTZ AUX)
    Blend: AUG-CC-PVTZ-JKFIT

    Orbital Energies [Eh]
    ---------------------

    Doubly Occupied:

       1A    -15.568838     2A    -11.276937     3A    -11.263625
       4A    -11.226656     5A     -1.216999     6A     -1.008685
       7A     -0.924230     8A     -0.766813     9A     -0.676680
      10A     -0.641633    11A     -0.581859    12A     -0.559008
      13A     -0.537840    14A     -0.480003    15A     -0.414305
      16A     -0.360100

  @DF-RHF Final Energy:  -172.05335627669683

   => Energetics <=

    Nuclear Repulsion Energy =            117.1818967150379507
    One-Electron Energy =                -463.4620846353739125
    Two-Electron Energy =                 174.2268316436391160
    Total Energy =                       -172.0533562766968316
  Basis Set: (AUG-CC-PVTZ AUX)
    Blend: AUG-CC-PVTZ-RI
    Molecular point group: c1

    Geometry (in Angstrom), charge = 0, multiplicity = 1:

       Center              X                  Y                   Z               Mass
    ------------   -----------------  -----------------  -----------------  -----------------
         N           -0.495402459324    -0.498041469396     0.074708241855    14.003074004430
         C            1.895038540676    -0.092439469396     0.074702241855    12.000000000000
         C            0.465320540676     0.347987530604     0.074755241855    12.000000000000
         C           -1.818656359324     0.212379130604    -0.280557058145    12.000000000000
         H            2.417804540676     0.294579530604    -0.806419758145     1.007825032230
         H            2.417328540676     0.292685530604     0.956918241855     1.007825032230
         H            1.941422540676    -1.182348469396     0.073601241855     1.007825032230
         H            0.282006540676     1.435569530604     0.074687241855     1.007825032230
         H           -1.874536459324     1.149592530604     0.074259241855     1.007825032230
         H           -2.375206459324    -0.320456469396     0.957030241855     1.007825032230
         H           -2.375485459324    -0.321188469396    -0.807118758145     1.007825032230

  Basis Set: AUG-CC-PVTZ
    Blend: AUG-CC-PVTZ
  Basis Set: (AUG-CC-PVTZ AUX)
    Blend: AUG-CC-PVTZ-JKFIT
	 Reference Energy          =    -172.0533562766968316 [Eh]
	 Singles Energy            =      -0.0000000000000000 [Eh]
	 Same-Spin Energy          =      -0.1783688231058551 [Eh]
	 Opposite-Spin Energy      =      -0.6353114470981969 [Eh]
	 Correlation Energy        =      -0.8136802702040520 [Eh]
	 Total Energy              =    -172.8670365469008914 [Eh]

	 ================> DF-SCS-MP2 Energies <==================
	-----------------------------------------------------------
	 SCS Same-Spin Scale       =       0.3333333333333333 [-]
	 SCS Opposite-Spin Scale   =       1.2000000000000000 [-]
	 SCS Same-Spin Energy      =      -0.0594562743686184 [Eh]
	 SCS Opposite-Spin Energy  =      -0.7623737365178362 [Eh]
	 SCS Correlation Energy    =      -0.8218300108864546 [Eh]
	 SCS Total Energy          =    -172.8751862875832899 [Eh]
	-----------------------------------------------------------

  Dipole Moment: [D]
     X:     0.4845      Y:     1.6995      Z:    -0.2642     Total:     1.7868

*** Psi4 exiting successfully. Buy a developer a beer!
