                               Psi4 1.3.2 release

  ==> Input File <==

--------------------------------------------------------------------------
#psi4
#
memory 32 gb

molecule  {
0 1
  N       -0.4473146    -0.3442958    -0.0000760
  C        1.8933030    -0.0828010    -0.0000140
  C        0.4635850     0.3576260     0.0000390
  C       -1.8470910     0.0589940    -0.0000070
  H        2.4160690     0.3042180    -0.8811360
  H        2.4155930     0.3023240     0.8822020
  H        1.9396870    -1.1727100    -0.0011150
  H        0.2802710     1.4452080    -0.0000290
  H       -1.8762720     1.1592310    -0.0004570
  H       -2.3769420    -0.3108180     0.8823140
  H       -2.3772210    -0.3115500    -0.8818350
units angstrom
no_reorient  #important for SAPT in psi4, default
symmetry c1  #important for SAPT in psi4, default
}

set PROPERTIES_ORIGIN ["COM"]
properties('MP2/aug-cc-pvtz', properties = ['dipole'])
--------------------------------------------------------------------------

    Molecular point group: c1
  Charge       = 0
  Multiplicity = 1
  Basis Set: AUG-CC-PVTZ
    Blend: AUG-CC-PVTZ
  Basis Set: (AUG-CC-PVTZ AUX)
    Blend: AUG-CC-PVTZ-JKFIT

    Orbital Energies [Eh]
    ---------------------

    Doubly Occupied:

       1A    -15.530866     2A    -11.252377     3A    -11.251582
       4A    -11.219273     5A     -1.268171     6A     -1.007946
       7A     -0.931352     8A     -0.746096     9A     -0.664112
      10A     -0.617921    11A     -0.603362    12A     -0.564123
      13A     -0.545943    14A     -0.522157    15A     -0.434925
      16A     -0.369041

  @DF-RHF Final Energy:  -172.15185812858269

   => Energetics <=

    Nuclear Repulsion Energy =            120.3350900977458195
    One-Electron Energy =                -469.9154028206415887
    Two-Electron Energy =                 177.4284545943130809
    Total Energy =                       -172.1518581285826883
  Basis Set: (AUG-CC-PVTZ AUX)
    Blend: AUG-CC-PVTZ-RI
    Molecular point group: c1

    Geometry (in Angstrom), charge = 0, multiplicity = 1:

       Center              X                  Y                   Z               Mass
    ------------   -----------------  -----------------  -----------------  -----------------
         N           -0.452191498497    -0.355014937297    -0.000060144656    14.003074004430
         C            1.888426101503    -0.093520137297     0.000001855344    12.000000000000
         C            0.458708101503     0.346906862703     0.000054855344    12.000000000000
         C           -1.851967898497     0.048274862703     0.000008855344    12.000000000000
         H            2.411192101503     0.293498862703    -0.881120144656     1.007825032230
         H            2.410716101503     0.291604862703     0.882217855344     1.007825032230
         H            1.934810101503    -1.183429137297    -0.001099144656     1.007825032230
         H            0.275394101503     1.434488862703    -0.000013144656     1.007825032230
         H           -1.881148898497     1.148511862703    -0.000441144656     1.007825032230
         H           -2.381818898497    -0.321537137297     0.882329855344     1.007825032230
         H           -2.382097898497    -0.322269137297    -0.881819144656     1.007825032230

  Basis Set: AUG-CC-PVTZ
    Blend: AUG-CC-PVTZ
  Basis Set: (AUG-CC-PVTZ AUX)
    Blend: AUG-CC-PVTZ-JKFIT
	 Reference Energy          =    -172.1518581285826883 [Eh]
	 Singles Energy            =      -0.0000000000000000 [Eh]
	 Same-Spin Energy          =      -0.1744063036402330 [Eh]
	 Opposite-Spin Energy      =      -0.6209501002177766 [Eh]
	 Correlation Energy        =      -0.7953564038580097 [Eh]
	 Total Energy              =    -172.9472145324407109 [Eh]

	 ================> DF-SCS-MP2 Energies <==================
	-----------------------------------------------------------
	 SCS Same-Spin Scale       =       0.3333333333333333 [-]
	 SCS Opposite-Spin Scale   =       1.2000000000000000 [-]
	 SCS Same-Spin Energy      =      -0.0581354345467443 [Eh]
	 SCS Opposite-Spin Energy  =      -0.7451401202613319 [Eh]
	 SCS Correlation Energy    =      -0.8032755548080762 [Eh]
	 SCS Total Energy          =    -172.9551336833907556 [Eh]
	-----------------------------------------------------------

  Dipole Moment: [D]
     X:    -0.0224      Y:     1.0828      Z:     0.0003     Total:     1.0830

*** Psi4 exiting successfully. Buy a developer a beer!
