                               Psi4 1.3.2 release

  ==> Input File <==

--------------------------------------------------------------------------
#psi4
#
memory 32 gb

molecule  {
0 1
  N       -0.4971380    -0.4884030    -0.0000080
  C        1.8933030    -0.0828010    -0.0000140
  C        0.4635850     0.3576260     0.0000390
  C       -1.8470910     0.0589940    -0.0000070
  H        2.4160690     0.3042180    -0.8811360
  H        2.4155930     0.3023240     0.8822020
  H        1.9396870    -1.1727100    -0.0011150
  H        0.2636503     1.5438171    -0.0000352
  H       -1.8762720     1.1592310    -0.0004570
  H       -2.3769420    -0.3108180     0.8823140
  H       -2.3772210    -0.3115500    -0.8818350
units angstrom
no_reorient  #important for SAPT in psi4, default
symmetry c1  #important for SAPT in psi4, default
}

set PROPERTIES_ORIGIN ["COM"]
properties('MP2/aug-cc-pvtz', properties = ['dipole'])
--------------------------------------------------------------------------

    Molecular point group: c1
  Charge       = 0
  Multiplicity = 1
  Basis Set: AUG-CC-PVTZ
    Blend: AUG-CC-PVTZ
  Basis Set: (AUG-CC-PVTZ AUX)
    Blend: AUG-CC-PVTZ-JKFIT

    Orbital Energies [Eh]
    ---------------------

    Doubly Occupied:

       1A    -15.557977     2A    -11.288550     3A    -11.243829
       4A    -11.227183     5A     -1.220872     6A     -1.010493
       7A     -0.910964     8A     -0.744827     9A     -0.640656
      10A     -0.611638    11A     -0.594298    12A     -0.566108
      13A     -0.536332    14A     -0.508898    15A     -0.403829
      16A     -0.399151

  @DF-RHF Final Energy:  -172.16180061865745

   => Energetics <=

    Nuclear Repulsion Energy =            117.4996762762356468
    One-Electron Energy =                -464.3917463085156214
    Two-Electron Energy =                 174.7302694136225512
    Total Energy =                       -172.1618006186574519
  Basis Set: (AUG-CC-PVTZ AUX)
    Blend: AUG-CC-PVTZ-RI
    Molecular point group: c1

    Geometry (in Angstrom), charge = 0, multiplicity = 1:

       Center              X                  Y                   Z               Mass
    ------------   -----------------  -----------------  -----------------  -----------------
         N           -0.489493720000    -0.465497261970    -0.000008723629    14.003074004430
         C            1.900947280000    -0.059895261970    -0.000014723629    12.000000000000
         C            0.471229280000     0.380531738030     0.000038276371    12.000000000000
         C           -1.839446720000     0.081899738030    -0.000007723629    12.000000000000
         H            2.423713280000     0.327123738030    -0.881136723629     1.007825032230
         H            2.423237280000     0.325229738030     0.882201276371     1.007825032230
         H            1.947331280000    -1.149804261970    -0.001115723629     1.007825032230
         H            0.271294580000     1.566722838030    -0.000035923629     1.007825032230
         H           -1.868627720000     1.182136738030    -0.000457723629     1.007825032230
         H           -2.369297720000    -0.287912261970     0.882313276371     1.007825032230
         H           -2.369576720000    -0.288644261970    -0.881835723629     1.007825032230

  Basis Set: AUG-CC-PVTZ
    Blend: AUG-CC-PVTZ
  Basis Set: (AUG-CC-PVTZ AUX)
    Blend: AUG-CC-PVTZ-JKFIT
	 Reference Energy          =    -172.1618006186574519 [Eh]
	 Singles Energy            =      -0.0000000000000000 [Eh]
	 Same-Spin Energy          =      -0.1765047129812015 [Eh]
	 Opposite-Spin Energy      =      -0.6279641023439002 [Eh]
	 Correlation Energy        =      -0.8044688153251017 [Eh]
	 Total Energy              =    -172.9662694339825464 [Eh]

	 ================> DF-SCS-MP2 Energies <==================
	-----------------------------------------------------------
	 SCS Same-Spin Scale       =       0.3333333333333333 [-]
	 SCS Opposite-Spin Scale   =       1.2000000000000000 [-]
	 SCS Same-Spin Energy      =      -0.0588349043270672 [Eh]
	 SCS Opposite-Spin Energy  =      -0.7535569228126803 [Eh]
	 SCS Correlation Energy    =      -0.8123918271397474 [Eh]
	 SCS Total Energy          =    -172.9741924457972004 [Eh]
	-----------------------------------------------------------

  Dipole Moment: [D]
     X:     0.3272      Y:     1.4279      Z:     0.0001     Total:     1.4649

*** Psi4 exiting successfully. Buy a developer a beer!
