                               Psi4 1.3.2 release

  ==> Input File <==

--------------------------------------------------------------------------
#psi4
#
memory 32 gb

molecule  {
0 1
  N       -0.4971380    -0.4884030    -0.0000080
  C        1.8933030    -0.0828010    -0.0000140
  C        0.4635850     0.3576260     0.0000390
  C       -1.8338361     0.1679598    -0.2370919
  H        2.4160690     0.3042180    -0.8811360
  H        2.4155930     0.3023240     0.8822020
  H        1.9396870    -1.1727100    -0.0011150
  H        0.2802710     1.4452080    -0.0000290
  H       -1.8762720     1.1592310    -0.0004570
  H       -2.3769420    -0.3108180     0.8823140
  H       -2.3772210    -0.3115500    -0.8818350
units angstrom
no_reorient  #important for SAPT in psi4, default
symmetry c1  #important for SAPT in psi4, default
}

set PROPERTIES_ORIGIN ["COM"]
properties('MP2/aug-cc-pvtz', properties = ['dipole'])
--------------------------------------------------------------------------

    Molecular point group: c1
  Charge       = 0
  Multiplicity = 1
  Basis Set: AUG-CC-PVTZ
    Blend: AUG-CC-PVTZ
  Basis Set: (AUG-CC-PVTZ AUX)
    Blend: AUG-CC-PVTZ-JKFIT

    Orbital Energies [Eh]
    ---------------------

    Doubly Occupied:

       1A    -15.563249     2A    -11.276119     3A    -11.252287
       4A    -11.225643     5A     -1.217836     6A     -1.008615
       7A     -0.917811     8A     -0.765326     9A     -0.655492
      10A     -0.643264    11A     -0.582161    12A     -0.559809
      13A     -0.537268    14A     -0.490973    15A     -0.414060
      16A     -0.378072

  @DF-RHF Final Energy:  -172.10914846582710

   => Energetics <=

    Nuclear Repulsion Energy =            117.5271094362560262
    One-Electron Energy =                -464.2965470351528552
    Two-Electron Energy =                 174.6602891330697389
    Total Energy =                       -172.1091484658271042
  Basis Set: (AUG-CC-PVTZ AUX)
    Blend: AUG-CC-PVTZ-RI
    Molecular point group: c1

    Geometry (in Angstrom), charge = 0, multiplicity = 1:

       Center              X                  Y                   Z               Mass
    ------------   -----------------  -----------------  -----------------  -----------------
         N           -0.492574971044    -0.486672418359     0.049853172497    14.003074004430
         C            1.897866028956    -0.081070418359     0.049847172497    12.000000000000
         C            0.468148028956     0.359356581641     0.049900172497    12.000000000000
         C           -1.829273071044     0.169690381641    -0.187230727503    12.000000000000
         H            2.420632028956     0.305948581641    -0.831274827503     1.007825032230
         H            2.420156028956     0.304054581641     0.932063172497     1.007825032230
         H            1.944250028956    -1.170979418359     0.048746172497     1.007825032230
         H            0.284834028956     1.446938581641     0.049832172497     1.007825032230
         H           -1.871708971044     1.160961581641     0.049404172497     1.007825032230
         H           -2.372378971044    -0.309087418359     0.932175172497     1.007825032230
         H           -2.372657971044    -0.309819418359    -0.831973827503     1.007825032230

  Basis Set: AUG-CC-PVTZ
    Blend: AUG-CC-PVTZ
  Basis Set: (AUG-CC-PVTZ AUX)
    Blend: AUG-CC-PVTZ-JKFIT
	 Reference Energy          =    -172.1091484658271042 [Eh]
	 Singles Energy            =      -0.0000000000000000 [Eh]
	 Same-Spin Energy          =      -0.1770662440290698 [Eh]
	 Opposite-Spin Energy      =      -0.6307729181648682 [Eh]
	 Correlation Energy        =      -0.8078391621939380 [Eh]
	 Total Energy              =    -172.9169876280210474 [Eh]

	 ================> DF-SCS-MP2 Energies <==================
	-----------------------------------------------------------
	 SCS Same-Spin Scale       =       0.3333333333333333 [-]
	 SCS Opposite-Spin Scale   =       1.2000000000000000 [-]
	 SCS Same-Spin Energy      =      -0.0590220813430233 [Eh]
	 SCS Opposite-Spin Energy  =      -0.7569275017978419 [Eh]
	 SCS Correlation Energy    =      -0.8159495831408652 [Eh]
	 SCS Total Energy          =    -172.9250980489679819 [Eh]
	-----------------------------------------------------------

  Dipole Moment: [D]
     X:     0.4139      Y:     1.6822      Z:    -0.2188     Total:     1.7462

*** Psi4 exiting successfully. Buy a developer a beer!
