                               Psi4 1.3.2 release

  ==> Input File <==

--------------------------------------------------------------------------
#psi4
#
memory 32 gb

molecule  {
0 1
  N       -0.4971380    -0.4884030    -0.0000080
  C        1.8933030    -0.0828010    -0.0000140
  C        0.4925257     0.3235819     0.0000381
  C       -1.8470910     0.0589940    -0.0000070
  H        2.4160690     0.3042180    -0.8811360
  H        2.4155930     0.3023240     0.8822020
  H        1.9396870    -1.1727100    -0.0011150
  H        0.2802710     1.4452080    -0.0000290
  H       -1.8762720     1.1592310    -0.0004570
  H       -2.3769420    -0.3108180     0.8823140
  H       -2.3772210    -0.3115500    -0.8818350
units angstrom
no_reorient  #important for SAPT in psi4, default
symmetry c1  #important for SAPT in psi4, default
}

set PROPERTIES_ORIGIN ["COM"]
properties('MP2/aug-cc-pvtz', properties = ['dipole'])
--------------------------------------------------------------------------

    Molecular point group: c1
  Charge       = 0
  Multiplicity = 1
  Basis Set: AUG-CC-PVTZ
    Blend: AUG-CC-PVTZ
  Basis Set: (AUG-CC-PVTZ AUX)
    Blend: AUG-CC-PVTZ-JKFIT

    Orbital Energies [Eh]
    ---------------------

    Doubly Occupied:

       1A    -15.554720     2A    -11.278810     3A    -11.244186
       4A    -11.225327     5A     -1.219157     6A     -1.019580
       7A     -0.912835     8A     -0.752261     9A     -0.647241
      10A     -0.614313    11A     -0.595934    12A     -0.567869
      13A     -0.538191    14A     -0.516321    15A     -0.399225
      16A     -0.396720

  @DF-RHF Final Energy:  -172.16631583005795

   => Energetics <=

    Nuclear Repulsion Energy =            118.0783217060716908
    One-Electron Energy =                -465.5238925549299438
    Two-Electron Energy =                 175.2792550188003133
    Total Energy =                       -172.1663158300579539
  Basis Set: (AUG-CC-PVTZ AUX)
    Blend: AUG-CC-PVTZ-RI
    Molecular point group: c1

    Geometry (in Angstrom), charge = 0, multiplicity = 1:

       Center              X                  Y                   Z               Mass
    ------------   -----------------  -----------------  -----------------  -----------------
         N           -0.495873896652    -0.456595595920    -0.000008643859    14.003074004430
         C            1.894567103348    -0.050993595920    -0.000014643859    12.000000000000
         C            0.493789803348     0.355389304080     0.000037456141    12.000000000000
         C           -1.845826896652     0.090801404080    -0.000007643859    12.000000000000
         H            2.417333103348     0.336025404080    -0.881136643859     1.007825032230
         H            2.416857103348     0.334131404080     0.882201356141     1.007825032230
         H            1.940951103348    -1.140902595920    -0.001115643859     1.007825032230
         H            0.281535103348     1.477015404080    -0.000029643859     1.007825032230
         H           -1.875007896652     1.191038404080    -0.000457643859     1.007825032230
         H           -2.375677896652    -0.279010595920     0.882313356141     1.007825032230
         H           -2.375956896652    -0.279742595920    -0.881835643859     1.007825032230

  Basis Set: AUG-CC-PVTZ
    Blend: AUG-CC-PVTZ
  Basis Set: (AUG-CC-PVTZ AUX)
    Blend: AUG-CC-PVTZ-JKFIT
	 Reference Energy          =    -172.1663158300579539 [Eh]
	 Singles Energy            =      -0.0000000000000000 [Eh]
	 Same-Spin Energy          =      -0.1764951392158074 [Eh]
	 Opposite-Spin Energy      =      -0.6271924247317520 [Eh]
	 Correlation Energy        =      -0.8036875639475594 [Eh]
	 Total Energy              =    -172.9700033940055164 [Eh]

	 ================> DF-SCS-MP2 Energies <==================
	-----------------------------------------------------------
	 SCS Same-Spin Scale       =       0.3333333333333333 [-]
	 SCS Opposite-Spin Scale   =       1.2000000000000000 [-]
	 SCS Same-Spin Energy      =      -0.0588317130719358 [Eh]
	 SCS Opposite-Spin Energy  =      -0.7526309096781023 [Eh]
	 SCS Correlation Energy    =      -0.8114626227500381 [Eh]
	 SCS Total Energy          =    -172.9777784528079962 [Eh]
	-----------------------------------------------------------

  Dipole Moment: [D]
     X:     0.4131      Y:     1.4695      Z:     0.0001     Total:     1.5265

*** Psi4 exiting successfully. Buy a developer a beer!
