                               Psi4 1.3.2 release

  ==> Input File <==

--------------------------------------------------------------------------
#psi4
#
memory 32 gb

molecule  {
0 1
  N       -0.4971380    -0.4884030    -0.0000080
  C        1.8933030    -0.0828010    -0.0000140
  C        0.4635850     0.3576260     0.0000390
  C       -1.8468854     0.0042187     0.1186077
  H        2.4160690     0.3042180    -0.8811360
  H        2.4155930     0.3023240     0.8822020
  H        1.9396870    -1.1727100    -0.0011150
  H        0.2802710     1.4452080    -0.0000290
  H       -1.8762720     1.1592310    -0.0004570
  H       -2.3769420    -0.3108180     0.8823140
  H       -2.3772210    -0.3115500    -0.8818350
units angstrom
no_reorient  #important for SAPT in psi4, default
symmetry c1  #important for SAPT in psi4, default
}

set PROPERTIES_ORIGIN ["COM"]
properties('MP2/aug-cc-pvtz', properties = ['dipole'])
--------------------------------------------------------------------------

    Molecular point group: c1
  Charge       = 0
  Multiplicity = 1
  Basis Set: AUG-CC-PVTZ
    Blend: AUG-CC-PVTZ
  Basis Set: (AUG-CC-PVTZ AUX)
    Blend: AUG-CC-PVTZ-JKFIT

    Orbital Energies [Eh]
    ---------------------

    Doubly Occupied:

       1A    -15.555947     2A    -11.279311     3A    -11.247175
       4A    -11.226173     5A     -1.222803     6A     -1.013230
       7A     -0.913974     8A     -0.762516     9A     -0.659650
      10A     -0.611494    11A     -0.592563    12A     -0.570040
      13A     -0.538486    14A     -0.503582    15A     -0.399679
      16A     -0.395326

  @DF-RHF Final Energy:  -172.14907891186925

   => Energetics <=

    Nuclear Repulsion Energy =            117.9829006345388365
    One-Electron Energy =                -465.2800609880967500
    Two-Electron Energy =                 175.1480814416886460
    Total Energy =                       -172.1490789118692533
  Basis Set: (AUG-CC-PVTZ AUX)
    Blend: AUG-CC-PVTZ-RI
    Molecular point group: c1

    Geometry (in Angstrom), charge = 0, multiplicity = 1:

       Center              X                  Y                   Z               Mass
    ------------   -----------------  -----------------  -----------------  -----------------
         N           -0.489830535316    -0.452235557760    -0.024955031064    14.003074004430
         C            1.900610464684    -0.046633557760    -0.024961031064    12.000000000000
         C            0.470892464684     0.393793442240    -0.024908031064    12.000000000000
         C           -1.839577935316     0.040386142240     0.093660668936    12.000000000000
         H            2.423376464684     0.340385442240    -0.906083031064     1.007825032230
         H            2.422900464684     0.338491442240     0.857254968936     1.007825032230
         H            1.946994464684    -1.136542557760    -0.026062031064     1.007825032230
         H            0.287578464684     1.481375442240    -0.024976031064     1.007825032230
         H           -1.868964535316     1.195398442240    -0.025404031064     1.007825032230
         H           -2.369634535316    -0.274650557760     0.857366968936     1.007825032230
         H           -2.369913535316    -0.275382557760    -0.906782031064     1.007825032230

  Basis Set: AUG-CC-PVTZ
    Blend: AUG-CC-PVTZ
  Basis Set: (AUG-CC-PVTZ AUX)
    Blend: AUG-CC-PVTZ-JKFIT
	 Reference Energy          =    -172.1490789118692533 [Eh]
	 Singles Energy            =      -0.0000000000000000 [Eh]
	 Same-Spin Energy          =      -0.1764171063413821 [Eh]
	 Opposite-Spin Energy      =      -0.6276983309871771 [Eh]
	 Correlation Energy        =      -0.8041154373285592 [Eh]
	 Total Energy              =    -172.9531943491978154 [Eh]

	 ================> DF-SCS-MP2 Energies <==================
	-----------------------------------------------------------
	 SCS Same-Spin Scale       =       0.3333333333333333 [-]
	 SCS Opposite-Spin Scale   =       1.2000000000000000 [-]
	 SCS Same-Spin Energy      =      -0.0588057021137940 [Eh]
	 SCS Opposite-Spin Energy  =      -0.7532379971846125 [Eh]
	 SCS Correlation Energy    =      -0.8120436992984065 [Eh]
	 SCS Total Energy          =    -172.9611226111676672 [Eh]
	-----------------------------------------------------------

  Dipole Moment: [D]
     X:     0.3674      Y:     1.4598      Z:     0.1056     Total:     1.5091

*** Psi4 exiting successfully. Buy a developer a beer!
