                               Psi4 1.3.2 release

  ==> Input File <==

--------------------------------------------------------------------------
#psi4
#
memory 32 gb

molecule  {
0 1
  N       -0.5170642    -0.5351822     0.0000147
  C        1.8933030    -0.0828010    -0.0000140
  C        0.4635850     0.3576260     0.0000390
  C       -1.8470910     0.0589940    -0.0000070
  H        2.4160690     0.3042180    -0.8811360
  H        2.4155930     0.3023240     0.8822020
  H        1.9396870    -1.1727100    -0.0011150
  H        0.2802710     1.4452080    -0.0000290
  H       -1.8762720     1.1592310    -0.0004570
  H       -2.3769420    -0.3108180     0.8823140
  H       -2.3772210    -0.3115500    -0.8818350
units angstrom
no_reorient  #important for SAPT in psi4, default
symmetry c1  #important for SAPT in psi4, default
}

set PROPERTIES_ORIGIN ["COM"]
properties('MP2/aug-cc-pvtz', properties = ['dipole'])
--------------------------------------------------------------------------

    Molecular point group: c1
  Charge       = 0
  Multiplicity = 1
  Basis Set: AUG-CC-PVTZ
    Blend: AUG-CC-PVTZ
  Basis Set: (AUG-CC-PVTZ AUX)
    Blend: AUG-CC-PVTZ-JKFIT

    Orbital Energies [Eh]
    ---------------------

    Doubly Occupied:

       1A    -15.564144     2A    -11.285375     3A    -11.241404
       4A    -11.226982     5A     -1.206534     6A     -1.011896
       7A     -0.902569     8A     -0.767393     9A     -0.641600
      10A     -0.608743    11A     -0.591361    12A     -0.565805
      13A     -0.536477    14A     -0.506931    15A     -0.415144
      16A     -0.386103

  @DF-RHF Final Energy:  -172.16089761615385

   => Energetics <=

    Nuclear Repulsion Energy =            117.1257511877925452
    One-Electron Energy =                -463.6563809864659333
    Two-Electron Energy =                 174.3697321825195274
    Total Energy =                       -172.1608976161538465
  Basis Set: (AUG-CC-PVTZ AUX)
    Blend: AUG-CC-PVTZ-RI
    Molecular point group: c1

    Geometry (in Angstrom), charge = 0, multiplicity = 1:

       Center              X                  Y                   Z               Mass
    ------------   -----------------  -----------------  -----------------  -----------------
         N           -0.504823229111    -0.499054208958     0.000008295851    14.003074004430
         C            1.905543970889    -0.046673008958    -0.000020404149    12.000000000000
         C            0.475825970889     0.393753991042     0.000032595851    12.000000000000
         C           -1.834850029111     0.095121991042    -0.000013404149    12.000000000000
         H            2.428309970889     0.340345991042    -0.881142404149     1.007825032230
         H            2.427833970889     0.338451991042     0.882195595851     1.007825032230
         H            1.951927970889    -1.136582008958    -0.001121404149     1.007825032230
         H            0.292511970889     1.481335991042    -0.000035404149     1.007825032230
         H           -1.864031029111     1.195358991042    -0.000463404149     1.007825032230
         H           -2.364701029111    -0.274690008958     0.882307595851     1.007825032230
         H           -2.364980029111    -0.275422008958    -0.881841404149     1.007825032230

  Basis Set: AUG-CC-PVTZ
    Blend: AUG-CC-PVTZ
  Basis Set: (AUG-CC-PVTZ AUX)
    Blend: AUG-CC-PVTZ-JKFIT
	 Reference Energy          =    -172.1608976161538465 [Eh]
	 Singles Energy            =      -0.0000000000000000 [Eh]
	 Same-Spin Energy          =      -0.1771270208080141 [Eh]
	 Opposite-Spin Energy      =      -0.6299275421222379 [Eh]
	 Correlation Energy        =      -0.8070545629302519 [Eh]
	 Total Energy              =    -172.9679521790841079 [Eh]

	 ================> DF-SCS-MP2 Energies <==================
	-----------------------------------------------------------
	 SCS Same-Spin Scale       =       0.3333333333333333 [-]
	 SCS Opposite-Spin Scale   =       1.2000000000000000 [-]
	 SCS Same-Spin Energy      =      -0.0590423402693380 [Eh]
	 SCS Opposite-Spin Energy  =      -0.7559130505466854 [Eh]
	 SCS Correlation Energy    =      -0.8149553908160234 [Eh]
	 SCS Total Energy          =    -172.9758530069698566 [Eh]
	-----------------------------------------------------------

  Dipole Moment: [D]
     X:     0.4001      Y:     1.6594      Z:     0.0001     Total:     1.7069

*** Psi4 exiting successfully. Buy a developer a beer!
