                               Psi4 1.3.2 release

  ==> Input File <==

--------------------------------------------------------------------------
#psi4
#
memory 32 gb

molecule  {
0 1
  N       -0.5386109    -0.5812375     0.0000374
  C        1.8933030    -0.0828010    -0.0000140
  C        0.4635850     0.3576260     0.0000390
  C       -1.8470910     0.0589940    -0.0000070
  H        2.4160690     0.3042180    -0.8811360
  H        2.4155930     0.3023240     0.8822020
  H        1.9396870    -1.1727100    -0.0011150
  H        0.2802710     1.4452080    -0.0000290
  H       -1.8762720     1.1592310    -0.0004570
  H       -2.3769420    -0.3108180     0.8823140
  H       -2.3772210    -0.3115500    -0.8818350
units angstrom
no_reorient  #important for SAPT in psi4, default
symmetry c1  #important for SAPT in psi4, default
}

set PROPERTIES_ORIGIN ["COM"]
properties('MP2/aug-cc-pvtz', properties = ['dipole'])
--------------------------------------------------------------------------

    Molecular point group: c1
  Charge       = 0
  Multiplicity = 1
  Basis Set: AUG-CC-PVTZ
    Blend: AUG-CC-PVTZ
  Basis Set: (AUG-CC-PVTZ AUX)
    Blend: AUG-CC-PVTZ-JKFIT

    Orbital Energies [Eh]
    ---------------------

    Doubly Occupied:

       1A    -15.571941     2A    -11.293494     3A    -11.239857
       4A    -11.228707     5A     -1.193769     6A     -1.013445
       7A     -0.895014     8A     -0.772652     9A     -0.637529
      10A     -0.606489    11A     -0.589733    12A     -0.566296
      13A     -0.536143    14A     -0.500384    15A     -0.424278
      16A     -0.374906

  @DF-RHF Final Energy:  -172.14801179474057

   => Energetics <=

    Nuclear Repulsion Energy =            116.3784484530841326
    One-Electron Energy =                -462.1636477679818427
    Two-Electron Energy =                 173.6371875201571129
    Total Energy =                       -172.1480117947405688
  Basis Set: (AUG-CC-PVTZ AUX)
    Blend: AUG-CC-PVTZ-RI
    Molecular point group: c1

    Geometry (in Angstrom), charge = 0, multiplicity = 1:

       Center              X                  Y                   Z               Mass
    ------------   -----------------  -----------------  -----------------  -----------------
         N           -0.521081961921    -0.533806668369     0.000025424842    14.003074004430
         C            1.910831938079    -0.035370168369    -0.000025975158    12.000000000000
         C            0.481113938079     0.405056831631     0.000027024842    12.000000000000
         C           -1.829562061921     0.106424831631    -0.000018975158    12.000000000000
         H            2.433597938079     0.351648831631    -0.881147975158     1.007825032230
         H            2.433121938079     0.349754831631     0.882190024842     1.007825032230
         H            1.957215938079    -1.125279168369    -0.001126975158     1.007825032230
         H            0.297799938079     1.492638831631    -0.000040975158     1.007825032230
         H           -1.858743061921     1.206661831631    -0.000468975158     1.007825032230
         H           -2.359413061921    -0.263387168369     0.882302024842     1.007825032230
         H           -2.359692061921    -0.264119168369    -0.881846975158     1.007825032230

  Basis Set: AUG-CC-PVTZ
    Blend: AUG-CC-PVTZ
  Basis Set: (AUG-CC-PVTZ AUX)
    Blend: AUG-CC-PVTZ-JKFIT
	 Reference Energy          =    -172.1480117947405688 [Eh]
	 Singles Energy            =      -0.0000000000000000 [Eh]
	 Same-Spin Energy          =      -0.1783936694075264 [Eh]
	 Opposite-Spin Energy      =      -0.6332927629463261 [Eh]
	 Correlation Energy        =      -0.8116864323538525 [Eh]
	 Total Energy              =    -172.9596982270944352 [Eh]

	 ================> DF-SCS-MP2 Energies <==================
	-----------------------------------------------------------
	 SCS Same-Spin Scale       =       0.3333333333333333 [-]
	 SCS Opposite-Spin Scale   =       1.2000000000000000 [-]
	 SCS Same-Spin Energy      =      -0.0594645564691755 [Eh]
	 SCS Opposite-Spin Energy  =      -0.7599513155355913 [Eh]
	 SCS Correlation Energy    =      -0.8194158720047667 [Eh]
	 SCS Total Energy          =    -172.9674276667453228 [Eh]
	-----------------------------------------------------------

  Dipole Moment: [D]
     X:     0.4609      Y:     1.7449      Z:     0.0000     Total:     1.8048

*** Psi4 exiting successfully. Buy a developer a beer!
