                               Psi4 1.4a3.dev225

  ==> Input File <==

--------------------------------------------------------------------------
#psi4
#
memory 32 gb

molecule  {
0 1
  N        0.4972020    -0.4883560    -0.0000030
  C       -1.8933690    -0.0828130     0.0000000
  C       -0.4445243     0.3634898     0.0000030
  C        1.8471220     0.0589730     0.0000010
  H       -2.4159140     0.3032330     0.8816800
  H       -2.4159290     0.3032900    -0.8816460
  H       -1.9397520    -1.1727070    -0.0000330
  H       -0.2803450     1.4451730    -0.0000110
  H        1.8763800     1.1592220     0.0000020
  H        2.3772280    -0.3111450    -0.8820540
  H        2.3772250    -0.3111470     0.8820570
units angstrom
no_reorient  #important for SAPT in psi4, default
symmetry c1  #important for SAPT in psi4, default
}

set PROPERTIES_ORIGIN ["COM"]
properties('MP2/aug-cc-pvtz', properties = ['dipole'])
--------------------------------------------------------------------------

    Molecular point group: c1
  Charge       = 0
  Multiplicity = 1
  Basis Set: AUG-CC-PVTZ
    Blend: AUG-CC-PVTZ
  Basis Set: (AUG-CC-PVTZ AUX)
    Blend: AUG-CC-PVTZ-JKFIT

    Orbital Energies [Eh]
    ---------------------

    Doubly Occupied:

       1A    -15.555591     2A    -11.275715     3A    -11.243408
       4A    -11.224921     5A     -1.225126     6A     -1.005947
       7A     -0.910465     8A     -0.764378     9A     -0.646595
      10A     -0.610364    11A     -0.593249    12A     -0.563906
      13A     -0.538015    14A     -0.509120    15A     -0.406009
      16A     -0.401385

  @DF-RHF Final Energy:  -172.16918289896802

   => Energetics <=

    Nuclear Repulsion Energy =            117.9420664570768764
    One-Electron Energy =                -465.2741137397696320
    Two-Electron Energy =                 175.1628643837247523
    Total Energy =                       -172.1691828989680175
  Basis Set: (AUG-CC-PVTZ AUX)
    Blend: AUG-CC-PVTZ-RI
    Molecular point group: c1

    Geometry (in Angstrom), charge = 0, multiplicity = 1:

       Center              X                  Y                   Z               Mass
    ------------   -----------------  -----------------  -----------------  -----------------
         N            0.485832860888    -0.464946617860    -0.000003016679    14.003074004430
         C           -1.904738139112    -0.059403617860    -0.000000016679    12.000000000000
         C           -0.455893439112     0.386899182140     0.000002983321    12.000000000000
         C            1.835752860888     0.082382382140     0.000000983321    12.000000000000
         H           -2.427283139112     0.326642382140     0.881679983321     1.007825032230
         H           -2.427298139112     0.326699382140    -0.881646016679     1.007825032230
         H           -1.951121139112    -1.149297617860    -0.000033016679     1.007825032230
         H           -0.291714139112     1.468582382140    -0.000011016679     1.007825032230
         H            1.865010860888     1.182631382140     0.000001983321     1.007825032230
         H            2.365858860888    -0.287735617860    -0.882054016679     1.007825032230
         H            2.365855860888    -0.287737617860     0.882056983321     1.007825032230

  Basis Set: AUG-CC-PVTZ
    Blend: AUG-CC-PVTZ
  Basis Set: (AUG-CC-PVTZ AUX)
    Blend: AUG-CC-PVTZ-JKFIT
	 Reference Energy          =    -172.1691828989680175 [Eh]
	 Singles Energy            =      -0.0000000000000000 [Eh]
	 Same-Spin Energy          =      -0.1757767638135943 [Eh]
	 Opposite-Spin Energy      =      -0.6265361121894268 [Eh]
	 Correlation Energy        =      -0.8023128760030211 [Eh]
	 Total Energy              =    -172.9714957749710322 [Eh]

	 ================> DF-SCS-MP2 Energies <==================
	-----------------------------------------------------------
	 SCS Same-Spin Scale       =       0.3333333333333333 [-]
	 SCS Opposite-Spin Scale   =       1.2000000000000000 [-]
	 SCS Same-Spin Energy      =      -0.0585922546045314 [Eh]
	 SCS Opposite-Spin Energy  =      -0.7518433346273122 [Eh]
	 SCS Correlation Energy    =      -0.8104355892318437 [Eh]
	 SCS Total Energy          =    -172.9796184881998613 [Eh]
	-----------------------------------------------------------

  Dipole Moment: [D]
     X:    -0.2613      Y:     1.5640      Z:     0.0000     Total:     1.5857

*** Psi4 exiting successfully. Buy a developer a beer!
