                               Psi4 1.3.2 release

  ==> Input File <==

--------------------------------------------------------------------------
#psi4
#
memory 32 gb

molecule  {
0 1
  N       -0.4971380    -0.4884030    -0.0000080
  C        1.8933030    -0.0828010    -0.0000140
  C        0.4635850     0.3576260     0.0000390
  C       -1.8470910     0.0589940    -0.0000070
  H        2.4160690     0.3042180    -0.8811360
  H        2.4155930     0.3023240     0.8822020
  H        1.9396870    -1.1727100    -0.0011150
  H        0.2802710     1.4452080    -0.0000290
  H       -1.8762720     1.1592310    -0.0004570
  H       -2.3769420    -0.3108180     0.8823140
  H       -2.3772210    -0.3115500    -0.8818350
units angstrom
no_reorient  #important for SAPT in psi4, default
symmetry c1  #important for SAPT in psi4, default
}

set PROPERTIES_ORIGIN ["COM"]
properties('MP2/aug-cc-pvtz', properties = ['dipole'])
--------------------------------------------------------------------------

    Molecular point group: c1
  Charge       = 0
  Multiplicity = 1
  Basis Set: AUG-CC-PVTZ
    Blend: AUG-CC-PVTZ
  Basis Set: (AUG-CC-PVTZ AUX)
    Blend: AUG-CC-PVTZ-JKFIT

    Orbital Energies [Eh]
    ---------------------

    Doubly Occupied:

       1A    -15.555956     2A    -11.277051     3A    -11.243304
       4A    -11.225205     5A     -1.220531     6A     -1.010531
       7A     -0.910088     8A     -0.762031     9A     -0.646288
      10A     -0.610999    11A     -0.593459    12A     -0.565331
      13A     -0.537465    14A     -0.512609    15A     -0.404903
      16A     -0.397789

  @DF-RHF Final Energy:  -172.16878496497793

   => Energetics <=

    Nuclear Repulsion Energy =            117.8973753433392915
    One-Electron Energy =                -465.1852378570497990
    Two-Electron Energy =                 175.1190775487325482
    Total Energy =                       -172.1687849649779309
  Basis Set: (AUG-CC-PVTZ AUX)
    Blend: AUG-CC-PVTZ-RI
    Molecular point group: c1

    Geometry (in Angstrom), charge = 0, multiplicity = 1:

       Center              X                  Y                   Z               Mass
    ------------   -----------------  -----------------  -----------------  -----------------
         N           -0.489787294990    -0.463755508281    -0.000008833141    14.003074004430
         C            1.900653705010    -0.058153508281    -0.000014833141    12.000000000000
         C            0.470935705010     0.382273491719     0.000038166859    12.000000000000
         C           -1.839740294990     0.083641491719    -0.000007833141    12.000000000000
         H            2.423419705010     0.328865491719    -0.881136833141     1.007825032230
         H            2.422943705010     0.326971491719     0.882201166859     1.007825032230
         H            1.947037705010    -1.148062508281    -0.001115833141     1.007825032230
         H            0.287621705010     1.469855491719    -0.000029833141     1.007825032230
         H           -1.868921294990     1.183878491719    -0.000457833141     1.007825032230
         H           -2.369591294990    -0.286170508281     0.882313166859     1.007825032230
         H           -2.369870294990    -0.286902508281    -0.881835833141     1.007825032230

  Basis Set: AUG-CC-PVTZ
    Blend: AUG-CC-PVTZ
  Basis Set: (AUG-CC-PVTZ AUX)
    Blend: AUG-CC-PVTZ-JKFIT
	 Reference Energy          =    -172.1687849649779309 [Eh]
	 Singles Energy            =      -0.0000000000000000 [Eh]
	 Same-Spin Energy          =      -0.1760928141742917 [Eh]
	 Opposite-Spin Energy      =      -0.6270110566045666 [Eh]
	 Correlation Energy        =      -0.8031038707788583 [Eh]
	 Total Energy              =    -172.9718888357568005 [Eh]

	 ================> DF-SCS-MP2 Energies <==================
	-----------------------------------------------------------
	 SCS Same-Spin Scale       =       0.3333333333333333 [-]
	 SCS Opposite-Spin Scale   =       1.2000000000000000 [-]
	 SCS Same-Spin Energy      =      -0.0586976047247639 [Eh]
	 SCS Opposite-Spin Energy  =      -0.7524132679254799 [Eh]
	 SCS Correlation Energy    =      -0.8111108726502438 [Eh]
	 SCS Total Energy          =    -172.9798958376281632 [Eh]
	-----------------------------------------------------------

  Dipole Moment: [D]
     X:     0.3212      Y:     1.5515      Z:     0.0001     Total:     1.5844

*** Psi4 exiting successfully. Buy a developer a beer!
