                               Psi4 1.3.2 release

  ==> Input File <==

--------------------------------------------------------------------------
#psi4
#
memory 32 gb

molecule  {
0 1
  N       -0.4971380    -0.4884030    -0.0000080
  C        1.8933030    -0.0828010    -0.0000140
  C        0.3134882     0.2254482     0.0000317
  C       -1.8470910     0.0589940    -0.0000070
  H        2.4160690     0.3042180    -0.8811360
  H        2.4155930     0.3023240     0.8822020
  H        1.9396870    -1.1727100    -0.0011150
  H        0.2802710     1.4452080    -0.0000290
  H       -1.8762720     1.1592310    -0.0004570
  H       -2.3769420    -0.3108180     0.8823140
  H       -2.3772210    -0.3115500    -0.8818350
units angstrom
no_reorient  #important for SAPT in psi4, default
symmetry c1  #important for SAPT in psi4, default
}

set PROPERTIES_ORIGIN ["COM"]
properties('MP2/aug-cc-pvtz', properties = ['dipole'])
--------------------------------------------------------------------------

    Molecular point group: c1
  Charge       = 0
  Multiplicity = 1
  Basis Set: AUG-CC-PVTZ
    Blend: AUG-CC-PVTZ
  Basis Set: (AUG-CC-PVTZ AUX)
    Blend: AUG-CC-PVTZ-JKFIT

    Orbital Energies [Eh]
    ---------------------

    Doubly Occupied:

       1A    -15.536502     2A    -11.261411     3A    -11.255009
       4A    -11.219743     5A     -1.315640     6A     -0.990876
       7A     -0.932292     8A     -0.727424     9A     -0.663422
      10A     -0.622586    11A     -0.616390    12A     -0.556798
      13A     -0.545946    14A     -0.500270    15A     -0.465293
      16A     -0.368262

  @DF-RHF Final Energy:  -172.09758299809675

   => Energetics <=

    Nuclear Repulsion Energy =            120.5296640302467637
    One-Electron Energy =                -470.0987619895615239
    Two-Electron Energy =                 177.4715149612180198
    Total Energy =                       -172.0975829980967546
  Basis Set: (AUG-CC-PVTZ AUX)
    Blend: AUG-CC-PVTZ-RI
    Molecular point group: c1

    Geometry (in Angstrom), charge = 0, multiplicity = 1:

       Center              X                  Y                   Z               Mass
    ------------   -----------------  -----------------  -----------------  -----------------
         N           -0.458220006276    -0.435956815877    -0.000007297857    14.003074004430
         C            1.932220993724    -0.030354815877    -0.000013297857    12.000000000000
         C            0.352406193724     0.277894384123     0.000032402143    12.000000000000
         C           -1.808173006276     0.111440184123    -0.000006297857    12.000000000000
         H            2.454986993724     0.356664184123    -0.881135297857     1.007825032230
         H            2.454510993724     0.354770184123     0.882202702143     1.007825032230
         H            1.978604993724    -1.120263815877    -0.001114297857     1.007825032230
         H            0.319188993724     1.497654184123    -0.000028297857     1.007825032230
         H           -1.837354006276     1.211677184123    -0.000456297857     1.007825032230
         H           -2.338024006276    -0.258371815877     0.882314702143     1.007825032230
         H           -2.338303006276    -0.259103815877    -0.881834297857     1.007825032230

  Basis Set: AUG-CC-PVTZ
    Blend: AUG-CC-PVTZ
  Basis Set: (AUG-CC-PVTZ AUX)
    Blend: AUG-CC-PVTZ-JKFIT
	 Reference Energy          =    -172.0975829980967546 [Eh]
	 Singles Energy            =      -0.0000000000000000 [Eh]
	 Same-Spin Energy          =      -0.1741000758619326 [Eh]
	 Opposite-Spin Energy      =      -0.6208040706670861 [Eh]
	 Correlation Energy        =      -0.7949041465290188 [Eh]
	 Total Energy              =    -172.8924871446257612 [Eh]

	 ================> DF-SCS-MP2 Energies <==================
	-----------------------------------------------------------
	 SCS Same-Spin Scale       =       0.3333333333333333 [-]
	 SCS Opposite-Spin Scale   =       1.2000000000000000 [-]
	 SCS Same-Spin Energy      =      -0.0580333586206442 [Eh]
	 SCS Opposite-Spin Energy  =      -0.7449648848005033 [Eh]
	 SCS Correlation Energy    =      -0.8029982434211475 [Eh]
	 SCS Total Energy          =    -172.9005812415178980 [Eh]
	-----------------------------------------------------------

  Dipole Moment: [D]
     X:    -0.3429      Y:     1.0476      Z:     0.0001     Total:     1.1023

*** Psi4 exiting successfully. Buy a developer a beer!
