                               Psi4 1.3.2 release

  ==> Input File <==

--------------------------------------------------------------------------
#psi4
#
memory 32 gb

molecule  {
0 1
  N       -0.4971380    -0.4884030    -0.0000080
  C        1.8933030    -0.0828010    -0.0000140
  C        0.2724485     0.4165059     0.0000461
  C       -1.8470910     0.0589940    -0.0000070
  H        2.4160690     0.3042180    -0.8811360
  H        2.4155930     0.3023240     0.8822020
  H        1.9396870    -1.1727100    -0.0011150
  H        0.2802710     1.4452080    -0.0000290
  H       -1.8762720     1.1592310    -0.0004570
  H       -2.3769420    -0.3108180     0.8823140
  H       -2.3772210    -0.3115500    -0.8818350
units angstrom
no_reorient  #important for SAPT in psi4, default
symmetry c1  #important for SAPT in psi4, default
}

set PROPERTIES_ORIGIN ["COM"]
properties('MP2/aug-cc-pvtz', properties = ['dipole'])
--------------------------------------------------------------------------

    Molecular point group: c1
  Charge       = 0
  Multiplicity = 1
  Basis Set: AUG-CC-PVTZ
    Blend: AUG-CC-PVTZ
  Basis Set: (AUG-CC-PVTZ AUX)
    Blend: AUG-CC-PVTZ-JKFIT

    Orbital Energies [Eh]
    ---------------------

    Doubly Occupied:

       1A    -15.554857     2A    -11.270019     3A    -11.246447
       4A    -11.217116     5A     -1.270884     6A     -0.976257
       7A     -0.908707     8A     -0.789709     9A     -0.653811
      10A     -0.612844    11A     -0.600287    12A     -0.547637
      13A     -0.535819    14A     -0.486561    15A     -0.432436
      16A     -0.393402

  @DF-RHF Final Energy:  -172.13156571953564

   => Energetics <=

    Nuclear Repulsion Energy =            118.5264761996941445
    One-Electron Energy =                -466.3224962880146904
    Two-Electron Energy =                 175.6644543687849307
    Total Energy =                       -172.1315657195356437
  Basis Set: (AUG-CC-PVTZ AUX)
    Blend: AUG-CC-PVTZ-RI
    Molecular point group: c1

    Geometry (in Angstrom), charge = 0, multiplicity = 1:

       Center              X                  Y                   Z               Mass
    ------------   -----------------  -----------------  -----------------  -----------------
         N           -0.449588829205    -0.476138709007    -0.000010326362    14.003074004430
         C            1.940852170795    -0.070536709007    -0.000016326362    12.000000000000
         C            0.319997670795     0.428770190993     0.000043773638    12.000000000000
         C           -1.799541829205     0.071258290993    -0.000009326362    12.000000000000
         H            2.463618170795     0.316482290993    -0.881138326362     1.007825032230
         H            2.463142170795     0.314588290993     0.882199673638     1.007825032230
         H            1.987236170795    -1.160445709007    -0.001117326362     1.007825032230
         H            0.327820170795     1.457472290993    -0.000031326362     1.007825032230
         H           -1.828722829205     1.171495290993    -0.000459326362     1.007825032230
         H           -2.329392829205    -0.298553709007     0.882311673638     1.007825032230
         H           -2.329671829205    -0.299285709007    -0.881837326362     1.007825032230

  Basis Set: AUG-CC-PVTZ
    Blend: AUG-CC-PVTZ
  Basis Set: (AUG-CC-PVTZ AUX)
    Blend: AUG-CC-PVTZ-JKFIT
	 Reference Energy          =    -172.1315657195356437 [Eh]
	 Singles Energy            =      -0.0000000000000000 [Eh]
	 Same-Spin Energy          =      -0.1747656667718481 [Eh]
	 Opposite-Spin Energy      =      -0.6253621565360313 [Eh]
	 Correlation Energy        =      -0.8001278233078795 [Eh]
	 Total Energy              =    -172.9316935428435329 [Eh]

	 ================> DF-SCS-MP2 Energies <==================
	-----------------------------------------------------------
	 SCS Same-Spin Scale       =       0.3333333333333333 [-]
	 SCS Opposite-Spin Scale   =       1.2000000000000000 [-]
	 SCS Same-Spin Energy      =      -0.0582552222572827 [Eh]
	 SCS Opposite-Spin Energy  =      -0.7504345878432376 [Eh]
	 SCS Correlation Energy    =      -0.8086898101005203 [Eh]
	 SCS Total Energy          =    -172.9402555296361754 [Eh]
	-----------------------------------------------------------

  Dipole Moment: [D]
     X:    -0.3821      Y:     1.6818      Z:     0.0001     Total:     1.7246

*** Psi4 exiting successfully. Buy a developer a beer!
