                               Psi4 1.3.2 release

  ==> Input File <==

--------------------------------------------------------------------------
#psi4
#
memory 32 gb

molecule  {
0 1
  N       -0.4971380    -0.4884030    -0.0000080
  C        1.8933030    -0.0828010    -0.0000140
  C        0.6547215     0.2987461     0.0000319
  C       -1.8470910     0.0589940    -0.0000070
  H        2.4160690     0.3042180    -0.8811360
  H        2.4155930     0.3023240     0.8822020
  H        1.9396870    -1.1727100    -0.0011150
  H        0.2802710     1.4452080    -0.0000290
  H       -1.8762720     1.1592310    -0.0004570
  H       -2.3769420    -0.3108180     0.8823140
  H       -2.3772210    -0.3115500    -0.8818350
units angstrom
no_reorient  #important for SAPT in psi4, default
symmetry c1  #important for SAPT in psi4, default
}

set PROPERTIES_ORIGIN ["COM"]
properties('MP2/aug-cc-pvtz', properties = ['dipole'])
--------------------------------------------------------------------------

    Molecular point group: c1
  Charge       = 0
  Multiplicity = 1
  Basis Set: AUG-CC-PVTZ
    Blend: AUG-CC-PVTZ
  Basis Set: (AUG-CC-PVTZ AUX)
    Blend: AUG-CC-PVTZ-JKFIT

    Orbital Energies [Eh]
    ---------------------

    Doubly Occupied:

       1A    -15.558647     2A    -11.293842     3A    -11.242497
       4A    -11.224952     5A     -1.184647     6A     -1.067878
       7A     -0.899413     8A     -0.746173     9A     -0.654617
      10A     -0.624105    11A     -0.613033    12A     -0.570121
      13A     -0.541949    14A     -0.515665    15A     -0.381628
      16A     -0.359768

  @DF-RHF Final Energy:  -172.09929098654769

   => Energetics <=

    Nuclear Repulsion Energy =            117.7772049480515477
    One-Electron Energy =                -464.7951207555438486
    Two-Electron Energy =                 174.9186248209445864
    Total Energy =                       -172.0992909865476861
  Basis Set: (AUG-CC-PVTZ AUX)
    Blend: AUG-CC-PVTZ-RI
    Molecular point group: c1

    Geometry (in Angstrom), charge = 0, multiplicity = 1:

       Center              X                  Y                   Z               Mass
    ------------   -----------------  -----------------  -----------------  -----------------
         N           -0.529985760774    -0.451372307556    -0.000007339919    14.003074004430
         C            1.860455239226    -0.045770307556    -0.000013339919    12.000000000000
         C            0.621873739226     0.335776792444     0.000032560081    12.000000000000
         C           -1.879938760774     0.096024692444    -0.000006339919    12.000000000000
         H            2.383221239226     0.341248692444    -0.881135339919     1.007825032230
         H            2.382745239226     0.339354692444     0.882202660081     1.007825032230
         H            1.906839239226    -1.135679307556    -0.001114339919     1.007825032230
         H            0.247423239226     1.482238692444    -0.000028339919     1.007825032230
         H           -1.909119760774     1.196261692444    -0.000456339919     1.007825032230
         H           -2.409789760774    -0.273787307556     0.882314660081     1.007825032230
         H           -2.410068760774    -0.274519307556    -0.881834339919     1.007825032230

  Basis Set: AUG-CC-PVTZ
    Blend: AUG-CC-PVTZ
  Basis Set: (AUG-CC-PVTZ AUX)
    Blend: AUG-CC-PVTZ-JKFIT
	 Reference Energy          =    -172.0992909865476861 [Eh]
	 Singles Energy            =      -0.0000000000000000 [Eh]
	 Same-Spin Energy          =      -0.1817693648396978 [Eh]
	 Opposite-Spin Energy      =      -0.6361287861326741 [Eh]
	 Correlation Energy        =      -0.8178981509723720 [Eh]
	 Total Energy              =    -172.9171891375200687 [Eh]

	 ================> DF-SCS-MP2 Energies <==================
	-----------------------------------------------------------
	 SCS Same-Spin Scale       =       0.3333333333333333 [-]
	 SCS Opposite-Spin Scale   =       1.2000000000000000 [-]
	 SCS Same-Spin Energy      =      -0.0605897882798993 [Eh]
	 SCS Opposite-Spin Energy  =      -0.7633545433592089 [Eh]
	 SCS Correlation Energy    =      -0.8239443316391082 [Eh]
	 SCS Total Energy          =    -172.9232353181867836 [Eh]
	-----------------------------------------------------------

  Dipole Moment: [D]
     X:     0.9173      Y:     1.4128      Z:     0.0002     Total:     1.6844

*** Psi4 exiting successfully. Buy a developer a beer!
