                               Psi4 1.3.2 release

  ==> Input File <==

--------------------------------------------------------------------------
#psi4
#
memory 32 gb

molecule  {
0 1
  N       -0.4357817    -0.5533588    -0.0000136
  C        1.8933030    -0.0828010    -0.0000140
  C        0.4635850     0.3576260     0.0000390
  C       -1.8470910     0.0589940    -0.0000070
  H        2.4160690     0.3042180    -0.8811360
  H        2.4155930     0.3023240     0.8822020
  H        1.9396870    -1.1727100    -0.0011150
  H        0.2802710     1.4452080    -0.0000290
  H       -1.8762720     1.1592310    -0.0004570
  H       -2.3769420    -0.3108180     0.8823140
  H       -2.3772210    -0.3115500    -0.8818350
units angstrom
no_reorient  #important for SAPT in psi4, default
symmetry c1  #important for SAPT in psi4, default
}

set PROPERTIES_ORIGIN ["COM"]
properties('MP2/aug-cc-pvtz', properties = ['dipole'])
--------------------------------------------------------------------------

    Molecular point group: c1
  Charge       = 0
  Multiplicity = 1
  Basis Set: AUG-CC-PVTZ
    Blend: AUG-CC-PVTZ
  Basis Set: (AUG-CC-PVTZ AUX)
    Blend: AUG-CC-PVTZ-JKFIT

    Orbital Energies [Eh]
    ---------------------

    Doubly Occupied:

       1A    -15.563127     2A    -11.276674     3A    -11.247740
       4A    -11.221615     5A     -1.211638     6A     -1.001357
       7A     -0.906854     8A     -0.764469     9A     -0.638025
      10A     -0.602907    11A     -0.588155    12A     -0.562205
      13A     -0.533344    14A     -0.506043    15A     -0.412525
      16A     -0.402115

  @DF-RHF Final Energy:  -172.16125755283744

   => Energetics <=

    Nuclear Repulsion Energy =            117.1454982079702773
    One-Electron Energy =                -463.7359261839220039
    Two-Electron Energy =                 174.4291704231143001
    Total Energy =                       -172.1612575528374407
  Basis Set: (AUG-CC-PVTZ AUX)
    Blend: AUG-CC-PVTZ-RI
    Molecular point group: c1

    Geometry (in Angstrom), charge = 0, multiplicity = 1:

       Center              X                  Y                   Z               Mass
    ------------   -----------------  -----------------  -----------------  -----------------
         N           -0.443488990009    -0.512769927968    -0.000013058795    14.003074004430
         C            1.885595709991    -0.042212127968    -0.000013458795    12.000000000000
         C            0.455877709991     0.398214872032     0.000039541205    12.000000000000
         C           -1.854798290009     0.099582872032    -0.000006458795    12.000000000000
         H            2.408361709991     0.344806872032    -0.881135458795     1.007825032230
         H            2.407885709991     0.342912872032     0.882202541205     1.007825032230
         H            1.931979709991    -1.132121127968    -0.001114458795     1.007825032230
         H            0.272563709991     1.485796872032    -0.000028458795     1.007825032230
         H           -1.883979290009     1.199819872032    -0.000456458795     1.007825032230
         H           -2.384649290009    -0.270229127968     0.882314541205     1.007825032230
         H           -2.384928290009    -0.270961127968    -0.881834458795     1.007825032230

  Basis Set: AUG-CC-PVTZ
    Blend: AUG-CC-PVTZ
  Basis Set: (AUG-CC-PVTZ AUX)
    Blend: AUG-CC-PVTZ-JKFIT
	 Reference Energy          =    -172.1612575528374407 [Eh]
	 Singles Energy            =      -0.0000000000000000 [Eh]
	 Same-Spin Energy          =      -0.1762539137052695 [Eh]
	 Opposite-Spin Energy      =      -0.6288222412009816 [Eh]
	 Correlation Energy        =      -0.8050761549062512 [Eh]
	 Total Energy              =    -172.9663337077437006 [Eh]

	 ================> DF-SCS-MP2 Energies <==================
	-----------------------------------------------------------
	 SCS Same-Spin Scale       =       0.3333333333333333 [-]
	 SCS Opposite-Spin Scale   =       1.2000000000000000 [-]
	 SCS Same-Spin Energy      =      -0.0587513045684232 [Eh]
	 SCS Opposite-Spin Energy  =      -0.7545866894411779 [Eh]
	 SCS Correlation Energy    =      -0.8133379940096011 [Eh]
	 SCS Total Energy          =    -172.9745955468470413 [Eh]
	-----------------------------------------------------------

  Dipole Moment: [D]
     X:     0.2136      Y:     1.7162      Z:     0.0001     Total:     1.7294

*** Psi4 exiting successfully. Buy a developer a beer!
