                               Psi4 1.3.2 release

  ==> Input File <==

--------------------------------------------------------------------------
#psi4
#
memory 32 gb

molecule  {
0 1
  N       -0.4971380    -0.4884030    -0.0000080
  C        1.8933030    -0.0828010    -0.0000140
  C        0.4782039     0.3407302     0.0000386
  C       -1.8470910     0.0589940    -0.0000070
  H        2.4160690     0.3042180    -0.8811360
  H        2.4155930     0.3023240     0.8822020
  H        1.9396870    -1.1727100    -0.0011150
  H        0.2802710     1.4452080    -0.0000290
  H       -1.8762720     1.1592310    -0.0004570
  H       -2.3769420    -0.3108180     0.8823140
  H       -2.3772210    -0.3115500    -0.8818350
units angstrom
no_reorient  #important for SAPT in psi4, default
symmetry c1  #important for SAPT in psi4, default
}

set PROPERTIES_ORIGIN ["COM"]
properties('MP2/aug-cc-pvtz', properties = ['dipole'])
--------------------------------------------------------------------------

    Molecular point group: c1
  Charge       = 0
  Multiplicity = 1
  Basis Set: AUG-CC-PVTZ
    Blend: AUG-CC-PVTZ
  Basis Set: (AUG-CC-PVTZ AUX)
    Blend: AUG-CC-PVTZ-JKFIT

    Orbital Energies [Eh]
    ---------------------

    Doubly Occupied:

       1A    -15.555283     2A    -11.277869     3A    -11.243720
       4A    -11.225266     5A     -1.219794     6A     -1.014960
       7A     -0.911451     8A     -0.756944     9A     -0.646708
      10A     -0.612572    11A     -0.594597    12A     -0.566642
      13A     -0.537444    14A     -0.515078    15A     -0.402174
      16A     -0.397229

  @DF-RHF Final Energy:  -172.16812194766595

   => Energetics <=

    Nuclear Repulsion Energy =            117.9859643409326111
    One-Electron Energy =                -465.3527135228658267
    Two-Electron Energy =                 175.1986272342672351
    Total Energy =                       -172.1681219476659521
  Basis Set: (AUG-CC-PVTZ AUX)
    Blend: AUG-CC-PVTZ-RI
    Molecular point group: c1

    Geometry (in Angstrom), charge = 0, multiplicity = 1:

       Center              X                  Y                   Z               Mass
    ------------   -----------------  -----------------  -----------------  -----------------
         N           -0.492861837798    -0.460202104101    -0.000008749015    14.003074004430
         C            1.897579162202    -0.054600104101    -0.000014749015    12.000000000000
         C            0.482480062202     0.368931095899     0.000037850985    12.000000000000
         C           -1.842814837798     0.087194895899    -0.000007749015    12.000000000000
         H            2.420345162202     0.332418895899    -0.881136749015     1.007825032230
         H            2.419869162202     0.330524895899     0.882201250985     1.007825032230
         H            1.943963162202    -1.144509104101    -0.001115749015     1.007825032230
         H            0.284547162202     1.473408895899    -0.000029749015     1.007825032230
         H           -1.871995837798     1.187431895899    -0.000457749015     1.007825032230
         H           -2.372665837798    -0.282617104101     0.882313250985     1.007825032230
         H           -2.372944837798    -0.283349104101    -0.881835749015     1.007825032230

  Basis Set: AUG-CC-PVTZ
    Blend: AUG-CC-PVTZ
  Basis Set: (AUG-CC-PVTZ AUX)
    Blend: AUG-CC-PVTZ-JKFIT
	 Reference Energy          =    -172.1681219476659521 [Eh]
	 Singles Energy            =      -0.0000000000000000 [Eh]
	 Same-Spin Energy          =      -0.1762777320633448 [Eh]
	 Opposite-Spin Energy      =      -0.6270636297742826 [Eh]
	 Correlation Energy        =      -0.8033413618376275 [Eh]
	 Total Energy              =    -172.9714633095035765 [Eh]

	 ================> DF-SCS-MP2 Energies <==================
	-----------------------------------------------------------
	 SCS Same-Spin Scale       =       0.3333333333333333 [-]
	 SCS Opposite-Spin Scale   =       1.2000000000000000 [-]
	 SCS Same-Spin Energy      =      -0.0587592440211149 [Eh]
	 SCS Opposite-Spin Energy  =      -0.7524763557291392 [Eh]
	 SCS Correlation Energy    =      -0.8112355997502541 [Eh]
	 SCS Total Energy          =    -172.9793575474162139 [Eh]
	-----------------------------------------------------------

  Dipole Moment: [D]
     X:     0.3677      Y:     1.5124      Z:     0.0001     Total:     1.5565

*** Psi4 exiting successfully. Buy a developer a beer!
