                               Psi4 1.3.2 release

  ==> Input File <==

--------------------------------------------------------------------------
#psi4
#
memory 32 gb

molecule  {
0 1
  N       -0.4971380    -0.4884030    -0.0000080
  C        1.8933030    -0.0828010    -0.0000140
  C        0.5591532     0.3281860     0.0000355
  C       -1.8470910     0.0589940    -0.0000070
  H        2.4160690     0.3042180    -0.8811360
  H        2.4155930     0.3023240     0.8822020
  H        1.9396870    -1.1727100    -0.0011150
  H        0.2802710     1.4452080    -0.0000290
  H       -1.8762720     1.1592310    -0.0004570
  H       -2.3769420    -0.3108180     0.8823140
  H       -2.3772210    -0.3115500    -0.8818350
units angstrom
no_reorient  #important for SAPT in psi4, default
symmetry c1  #important for SAPT in psi4, default
}

set PROPERTIES_ORIGIN ["COM"]
properties('MP2/aug-cc-pvtz', properties = ['dipole'])
--------------------------------------------------------------------------

    Molecular point group: c1
  Charge       = 0
  Multiplicity = 1
  Basis Set: AUG-CC-PVTZ
    Blend: AUG-CC-PVTZ
  Basis Set: (AUG-CC-PVTZ AUX)
    Blend: AUG-CC-PVTZ-JKFIT

    Orbital Energies [Eh]
    ---------------------

    Doubly Occupied:

       1A    -15.557819     2A    -11.285005     3A    -11.243013
       4A    -11.225569     5A     -1.199613     6A     -1.037214
       7A     -0.906382     8A     -0.752277     9A     -0.647570
      10A     -0.616470    11A     -0.599077    12A     -0.569885
      13A     -0.534908    14A     -0.524693    15A     -0.395448
      16A     -0.379234

  @DF-RHF Final Energy:  -172.15012550342442

   => Energetics <=

    Nuclear Repulsion Energy =            117.7493056032577385
    One-Electron Energy =                -464.8505105624747102
    Two-Electron Energy =                 174.9510794557925237
    Total Energy =                       -172.1501255034244195
  Basis Set: (AUG-CC-PVTZ AUX)
    Blend: AUG-CC-PVTZ-RI
    Molecular point group: c1

    Geometry (in Angstrom), charge = 0, multiplicity = 1:

       Center              X                  Y                   Z               Mass
    ------------   -----------------  -----------------  -----------------  -----------------
         N           -0.509886517366    -0.457563897403    -0.000008097045    14.003074004430
         C            1.880554482634    -0.051961897403    -0.000014097045    12.000000000000
         C            0.546404682634     0.359025102597     0.000035402955    12.000000000000
         C           -1.859839517366     0.089833102597    -0.000007097045    12.000000000000
         H            2.403320482634     0.335057102597    -0.881136097045     1.007825032230
         H            2.402844482634     0.333163102597     0.882201902955     1.007825032230
         H            1.926938482634    -1.141870897403    -0.001115097045     1.007825032230
         H            0.267522482634     1.476047102597    -0.000029097045     1.007825032230
         H           -1.889020517366     1.190070102597    -0.000457097045     1.007825032230
         H           -2.389690517366    -0.279978897403     0.882313902955     1.007825032230
         H           -2.389969517366    -0.280710897403    -0.881835097045     1.007825032230

  Basis Set: AUG-CC-PVTZ
    Blend: AUG-CC-PVTZ
  Basis Set: (AUG-CC-PVTZ AUX)
    Blend: AUG-CC-PVTZ-JKFIT
	 Reference Energy          =    -172.1501255034244195 [Eh]
	 Singles Energy            =      -0.0000000000000000 [Eh]
	 Same-Spin Energy          =      -0.1783401888916090 [Eh]
	 Opposite-Spin Energy      =      -0.6305490274715131 [Eh]
	 Correlation Energy        =      -0.8088892163631221 [Eh]
	 Total Energy              =    -172.9590147197875467 [Eh]

	 ================> DF-SCS-MP2 Energies <==================
	-----------------------------------------------------------
	 SCS Same-Spin Scale       =       0.3333333333333333 [-]
	 SCS Opposite-Spin Scale   =       1.2000000000000000 [-]
	 SCS Same-Spin Energy      =      -0.0594467296305363 [Eh]
	 SCS Opposite-Spin Energy  =      -0.7566588329658157 [Eh]
	 SCS Correlation Energy    =      -0.8161055625963520 [Eh]
	 SCS Total Energy          =    -172.9662310660207822 [Eh]
	-----------------------------------------------------------

  Dipole Moment: [D]
     X:     0.6138      Y:     1.4865      Z:     0.0002     Total:     1.6082

*** Psi4 exiting successfully. Buy a developer a beer!
