                               Psi4 1.4a3.dev225

  ==> Input File <==

--------------------------------------------------------------------------
#psi4
#
memory 32 gb

molecule  {
0 1
  N        0.4972020    -0.4883560    -0.0000030
  C       -1.8933690    -0.0828130     0.0000000
  C       -0.5011656     0.3906426     0.0000032
  C        1.8471220     0.0589730     0.0000010
  H       -2.4159140     0.3032330     0.8816800
  H       -2.4159290     0.3032900    -0.8816460
  H       -1.9397520    -1.1727070    -0.0000330
  H       -0.2803450     1.4451730    -0.0000110
  H        1.8763800     1.1592220     0.0000020
  H        2.3772280    -0.3111450    -0.8820540
  H        2.3772250    -0.3111470     0.8820570
units angstrom
no_reorient  #important for SAPT in psi4, default
symmetry c1  #important for SAPT in psi4, default
}

set PROPERTIES_ORIGIN ["COM"]
properties('MP2/aug-cc-pvtz', properties = ['dipole'])
--------------------------------------------------------------------------

    Molecular point group: c1
  Charge       = 0
  Multiplicity = 1
  Basis Set: AUG-CC-PVTZ
    Blend: AUG-CC-PVTZ
  Basis Set: (AUG-CC-PVTZ AUX)
    Blend: AUG-CC-PVTZ-JKFIT

    Orbital Energies [Eh]
    ---------------------

    Doubly Occupied:

       1A    -15.560189     2A    -11.280998     3A    -11.241627
       4A    -11.226163     5A     -1.202943     6A     -1.017488
       7A     -0.903063     8A     -0.770198     9A     -0.644322
      10A     -0.609415    11A     -0.591983    12A     -0.566581
      13A     -0.537372    14A     -0.516575    15A     -0.407148
      16A     -0.383067

  @DF-RHF Final Energy:  -172.16093144453248

   => Energetics <=

    Nuclear Repulsion Energy =            117.3948444220211087
    One-Electron Energy =                -464.1932842605717155
    Two-Electron Energy =                 174.6375083940181412
    Total Energy =                       -172.1609314445324799
  Basis Set: (AUG-CC-PVTZ AUX)
    Blend: AUG-CC-PVTZ-RI
    Molecular point group: c1

    Geometry (in Angstrom), charge = 0, multiplicity = 1:

       Center              X                  Y                   Z               Mass
    ------------   -----------------  -----------------  -----------------  -----------------
         N            0.497745255225    -0.470657201144    -0.000003058741    14.003074004430
         C           -1.892825744775    -0.065114201144    -0.000000058741    12.000000000000
         C           -0.500622344775     0.408341398856     0.000003141259    12.000000000000
         C            1.847665255225     0.076671798856     0.000000941259    12.000000000000
         H           -2.415370744775     0.320931798856     0.881679941259     1.007825032230
         H           -2.415385744775     0.320988798856    -0.881646058741     1.007825032230
         H           -1.939208744775    -1.155008201144    -0.000033058741     1.007825032230
         H           -0.279801744775     1.462871798856    -0.000011058741     1.007825032230
         H            1.876923255225     1.176920798856     0.000001941259     1.007825032230
         H            2.377771255225    -0.293446201144    -0.882054058741     1.007825032230
         H            2.377768255225    -0.293448201144     0.882056941259     1.007825032230

  Basis Set: AUG-CC-PVTZ
    Blend: AUG-CC-PVTZ
  Basis Set: (AUG-CC-PVTZ AUX)
    Blend: AUG-CC-PVTZ-JKFIT
	 Reference Energy          =    -172.1609314445324799 [Eh]
	 Singles Energy            =      -0.0000000000000000 [Eh]
	 Same-Spin Energy          =      -0.1772268239234740 [Eh]
	 Opposite-Spin Energy      =      -0.6296452339996245 [Eh]
	 Correlation Energy        =      -0.8068720579230985 [Eh]
	 Total Energy              =    -172.9678035024555811 [Eh]

	 ================> DF-SCS-MP2 Energies <==================
	-----------------------------------------------------------
	 SCS Same-Spin Scale       =       0.3333333333333333 [-]
	 SCS Opposite-Spin Scale   =       1.2000000000000000 [-]
	 SCS Same-Spin Energy      =      -0.0590756079744913 [Eh]
	 SCS Opposite-Spin Energy  =      -0.7555742807995494 [Eh]
	 SCS Correlation Energy    =      -0.8146498887740407 [Eh]
	 SCS Total Energy          =    -172.9755813333065078 [Eh]
	-----------------------------------------------------------

  Dipole Moment: [D]
     X:    -0.4242      Y:     1.6168      Z:     0.0000     Total:     1.6715

*** Psi4 exiting successfully. Buy a developer a beer!
