                               Psi4 1.4a3.dev225

  ==> Input File <==

--------------------------------------------------------------------------
#psi4
#
memory 32 gb

molecule  {
0 1
  N        0.4972020    -0.4883560    -0.0000030
  C       -1.8933690    -0.0828130     0.0000000
  C       -0.4636380     0.3576020     0.0000030
  C        1.8007858     0.0401859     0.0000009
  H       -2.4159140     0.3032330     0.8816800
  H       -2.4159290     0.3032900    -0.8816460
  H       -1.9397520    -1.1727070    -0.0000330
  H       -0.2803450     1.4451730    -0.0000110
  H        1.8763800     1.1592220     0.0000020
  H        2.3772280    -0.3111450    -0.8820540
  H        2.3772250    -0.3111470     0.8820570
units angstrom
no_reorient  #important for SAPT in psi4, default
symmetry c1  #important for SAPT in psi4, default
}

set PROPERTIES_ORIGIN ["COM"]
properties('MP2/aug-cc-pvtz', properties = ['dipole'])
--------------------------------------------------------------------------

    Molecular point group: c1
  Charge       = 0
  Multiplicity = 1
  Basis Set: AUG-CC-PVTZ
    Blend: AUG-CC-PVTZ
  Basis Set: (AUG-CC-PVTZ AUX)
    Blend: AUG-CC-PVTZ-JKFIT

    Orbital Energies [Eh]
    ---------------------

    Doubly Occupied:

       1A    -15.555563     2A    -11.279312     3A    -11.244970
       4A    -11.226214     5A     -1.232364     6A     -1.014657
       7A     -0.906852     8A     -0.765026     9A     -0.655698
      10A     -0.611780    11A     -0.593475    12A     -0.562742
      13A     -0.540238    14A     -0.506735    15A     -0.407194
      16A     -0.394982

  @DF-RHF Final Energy:  -172.16636982096227

   => Energetics <=

    Nuclear Repulsion Energy =            118.5536663648203302
    One-Electron Energy =                -466.4444714226891620
    Two-Electron Energy =                 175.7244352369065439
    Total Energy =                       -172.1663698209622737
  Basis Set: (AUG-CC-PVTZ AUX)
    Blend: AUG-CC-PVTZ-RI
    Molecular point group: c1

    Geometry (in Angstrom), charge = 0, multiplicity = 1:

       Center              X                  Y                   Z               Mass
    ------------   -----------------  -----------------  -----------------  -----------------
         N            0.499597817167    -0.459757168836    -0.000002995647    14.003074004430
         C           -1.890973182833    -0.054214168836     0.000000004353    12.000000000000
         C           -0.461242182833     0.386200831164     0.000003004353    12.000000000000
         C            1.803181617167     0.068784731164     0.000000904353    12.000000000000
         H           -2.413518182833     0.331831831164     0.881680004353     1.007825032230
         H           -2.413533182833     0.331888831164    -0.881645995647     1.007825032230
         H           -1.937356182833    -1.144108168836    -0.000032995647     1.007825032230
         H           -0.277949182833     1.473771831164    -0.000010995647     1.007825032230
         H            1.878775817167     1.187820831164     0.000002004353     1.007825032230
         H            2.379623817167    -0.282546168836    -0.882053995647     1.007825032230
         H            2.379620817167    -0.282548168836     0.882057004353     1.007825032230

  Basis Set: AUG-CC-PVTZ
    Blend: AUG-CC-PVTZ
  Basis Set: (AUG-CC-PVTZ AUX)
    Blend: AUG-CC-PVTZ-JKFIT
	 Reference Energy          =    -172.1663698209622737 [Eh]
	 Singles Energy            =      -0.0000000000000000 [Eh]
	 Same-Spin Energy          =      -0.1764389190288273 [Eh]
	 Opposite-Spin Energy      =      -0.6269259159505682 [Eh]
	 Correlation Energy        =      -0.8033648349793956 [Eh]
	 Total Energy              =    -172.9697346559416644 [Eh]

	 ================> DF-SCS-MP2 Energies <==================
	-----------------------------------------------------------
	 SCS Same-Spin Scale       =       0.3333333333333333 [-]
	 SCS Opposite-Spin Scale   =       1.2000000000000000 [-]
	 SCS Same-Spin Energy      =      -0.0588129730096091 [Eh]
	 SCS Opposite-Spin Energy  =      -0.7523110991406818 [Eh]
	 SCS Correlation Energy    =      -0.8111240721502909 [Eh]
	 SCS Total Energy          =    -172.9774938931125519 [Eh]
	-----------------------------------------------------------

  Dipole Moment: [D]
     X:    -0.4024      Y:     1.5085      Z:     0.0000     Total:     1.5612

*** Psi4 exiting successfully. Buy a developer a beer!
