                               Psi4 1.4a3.dev225

  ==> Input File <==

--------------------------------------------------------------------------
#psi4
#
memory 32 gb

molecule  {
0 1
  N        0.4972020    -0.4883560    -0.0000030
  C       -1.8933690    -0.0828130     0.0000000
  C       -0.4636380     0.3576020     0.0000030
  C        1.8285875     0.0514581     0.0000009
  H       -2.4159140     0.3032330     0.8816800
  H       -2.4159290     0.3032900    -0.8816460
  H       -1.9397520    -1.1727070    -0.0000330
  H       -0.2803450     1.4451730    -0.0000110
  H        1.8763800     1.1592220     0.0000020
  H        2.3772280    -0.3111450    -0.8820540
  H        2.3772250    -0.3111470     0.8820570
units angstrom
no_reorient  #important for SAPT in psi4, default
symmetry c1  #important for SAPT in psi4, default
}

set PROPERTIES_ORIGIN ["COM"]
properties('MP2/aug-cc-pvtz', properties = ['dipole'])
--------------------------------------------------------------------------

    Molecular point group: c1
  Charge       = 0
  Multiplicity = 1
  Basis Set: AUG-CC-PVTZ
    Blend: AUG-CC-PVTZ
  Basis Set: (AUG-CC-PVTZ AUX)
    Blend: AUG-CC-PVTZ-JKFIT

    Orbital Energies [Eh]
    ---------------------

    Doubly Occupied:

       1A    -15.555828     2A    -11.277930     3A    -11.243882
       4A    -11.225600     5A     -1.225022     6A     -1.012125
       7A     -0.908762     8A     -0.763213     9A     -0.650025
      10A     -0.611145    11A     -0.593308    12A     -0.564278
      13A     -0.538597    14A     -0.510285    15A     -0.406042
      16A     -0.396789

  @DF-RHF Final Energy:  -172.16842619858807

   => Energetics <=

    Nuclear Repulsion Energy =            118.1547599418267680
    One-Electron Energy =                -465.6807104265934640
    Two-Electron Energy =                 175.3575242861786023
    Total Energy =                       -172.1684261985880653
  Basis Set: (AUG-CC-PVTZ AUX)
    Blend: AUG-CC-PVTZ-RI
    Molecular point group: c1

    Geometry (in Angstrom), charge = 0, multiplicity = 1:

       Center              X                  Y                   Z               Mass
    ------------   -----------------  -----------------  -----------------  -----------------
         N            0.493750761863    -0.462127857564    -0.000002995647    14.003074004430
         C           -1.896820238137    -0.056584857564     0.000000004353    12.000000000000
         C           -0.467089238137     0.383830142436     0.000003004353    12.000000000000
         C            1.825136261863     0.077686242436     0.000000904353    12.000000000000
         H           -2.419365238137     0.329461142436     0.881680004353     1.007825032230
         H           -2.419380238137     0.329518142436    -0.881645995647     1.007825032230
         H           -1.943203238137    -1.146478857564    -0.000032995647     1.007825032230
         H           -0.283796238137     1.471401142436    -0.000010995647     1.007825032230
         H            1.872928761863     1.185450142436     0.000002004353     1.007825032230
         H            2.373776761863    -0.284916857564    -0.882053995647     1.007825032230
         H            2.373773761863    -0.284918857564     0.882057004353     1.007825032230

  Basis Set: AUG-CC-PVTZ
    Blend: AUG-CC-PVTZ
  Basis Set: (AUG-CC-PVTZ AUX)
    Blend: AUG-CC-PVTZ-JKFIT
	 Reference Energy          =    -172.1684261985880653 [Eh]
	 Singles Energy            =      -0.0000000000000000 [Eh]
	 Same-Spin Energy          =      -0.1762069653965157 [Eh]
	 Opposite-Spin Energy      =      -0.6269405012341662 [Eh]
	 Correlation Energy        =      -0.8031474666306819 [Eh]
	 Total Energy              =    -172.9715736652187559 [Eh]

	 ================> DF-SCS-MP2 Energies <==================
	-----------------------------------------------------------
	 SCS Same-Spin Scale       =       0.3333333333333333 [-]
	 SCS Opposite-Spin Scale   =       1.2000000000000000 [-]
	 SCS Same-Spin Energy      =      -0.0587356551321719 [Eh]
	 SCS Opposite-Spin Energy  =      -0.7523286014809994 [Eh]
	 SCS Correlation Energy    =      -0.8110642566131714 [Eh]
	 SCS Total Energy          =    -172.9794904552012440 [Eh]
	-----------------------------------------------------------

  Dipole Moment: [D]
     X:    -0.3521      Y:     1.5353      Z:     0.0000     Total:     1.5752

*** Psi4 exiting successfully. Buy a developer a beer!
