                               Psi4 1.3.2 release

  ==> Input File <==

--------------------------------------------------------------------------
#psi4
#
memory 32 gb

molecule  {
0 1
  N       -0.4971380    -0.4884030    -0.0000080
  C        1.8933030    -0.0828010    -0.0000140
  C        0.5467562     0.2525685     0.0000362
  C       -1.8470910     0.0589940    -0.0000070
  H        2.4160690     0.3042180    -0.8811360
  H        2.4155930     0.3023240     0.8822020
  H        1.9396870    -1.1727100    -0.0011150
  H        0.2802710     1.4452080    -0.0000290
  H       -1.8762720     1.1592310    -0.0004570
  H       -2.3769420    -0.3108180     0.8823140
  H       -2.3772210    -0.3115500    -0.8818350
units angstrom
no_reorient  #important for SAPT in psi4, default
symmetry c1  #important for SAPT in psi4, default
}

set PROPERTIES_ORIGIN ["COM"]
properties('MP2/aug-cc-pvtz', properties = ['dipole'])
--------------------------------------------------------------------------

    Molecular point group: c1
  Charge       = 0
  Multiplicity = 1
  Basis Set: AUG-CC-PVTZ
    Blend: AUG-CC-PVTZ
  Basis Set: (AUG-CC-PVTZ AUX)
    Blend: AUG-CC-PVTZ-JKFIT

    Orbital Energies [Eh]
    ---------------------

    Doubly Occupied:

       1A    -15.553663     2A    -11.283802     3A    -11.246534
       4A    -11.225791     5A     -1.217690     6A     -1.039798
       7A     -0.918594     8A     -0.737871     9A     -0.650554
      10A     -0.622742    11A     -0.603262    12A     -0.571982
      13A     -0.547835    14A     -0.510047    15A     -0.395266
      16A     -0.385383

  @DF-RHF Final Energy:  -172.14797562914580

   => Energetics <=

    Nuclear Repulsion Energy =            118.4802314046498708
    One-Electron Energy =                -466.2347840380834896
    Two-Electron Energy =                 175.6065770042878000
    Total Energy =                       -172.1479756291458045
  Basis Set: (AUG-CC-PVTZ AUX)
    Blend: AUG-CC-PVTZ-RI
    Molecular point group: c1

    Geometry (in Angstrom), charge = 0, multiplicity = 1:

       Center              X                  Y                   Z               Mass
    ------------   -----------------  -----------------  -----------------  -----------------
         N           -0.507279268723    -0.441660563992    -0.000008244264    14.003074004430
         C            1.883161731277    -0.036058563992    -0.000014244264    12.000000000000
         C            0.536614931277     0.299310936008     0.000035955736    12.000000000000
         C           -1.857232268723     0.105736436008    -0.000007244264    12.000000000000
         H            2.405927731277     0.350960436008    -0.881136244264     1.007825032230
         H            2.405451731277     0.349066436008     0.882201755736     1.007825032230
         H            1.929545731277    -1.125967563992    -0.001115244264     1.007825032230
         H            0.270129731277     1.491950436008    -0.000029244264     1.007825032230
         H           -1.886413268723     1.205973436008    -0.000457244264     1.007825032230
         H           -2.387083268723    -0.264075563992     0.882313755736     1.007825032230
         H           -2.387362268723    -0.264807563992    -0.881835244264     1.007825032230

  Basis Set: AUG-CC-PVTZ
    Blend: AUG-CC-PVTZ
  Basis Set: (AUG-CC-PVTZ AUX)
    Blend: AUG-CC-PVTZ-JKFIT
	 Reference Energy          =    -172.1479756291458045 [Eh]
	 Singles Energy            =      -0.0000000000000000 [Eh]
	 Same-Spin Energy          =      -0.1776793249499315 [Eh]
	 Opposite-Spin Energy      =      -0.6284476845971434 [Eh]
	 Correlation Energy        =      -0.8061270095470749 [Eh]
	 Total Energy              =    -172.9541026386928877 [Eh]

	 ================> DF-SCS-MP2 Energies <==================
	-----------------------------------------------------------
	 SCS Same-Spin Scale       =       0.3333333333333333 [-]
	 SCS Opposite-Spin Scale   =       1.2000000000000000 [-]
	 SCS Same-Spin Energy      =      -0.0592264416499772 [Eh]
	 SCS Opposite-Spin Energy  =      -0.7541372215165720 [Eh]
	 SCS Correlation Energy    =      -0.8133636631665492 [Eh]
	 SCS Total Energy          =    -172.9613392923123456 [Eh]
	-----------------------------------------------------------

  Dipole Moment: [D]
     X:     0.5856      Y:     1.2547      Z:     0.0002     Total:     1.3846

*** Psi4 exiting successfully. Buy a developer a beer!
