                               Psi4 1.3.2 release

  ==> Input File <==

--------------------------------------------------------------------------
#psi4
#
memory 32 gb

molecule  {
0 1
  N       -0.4971380    -0.4884030    -0.0000080
  C        1.8933030    -0.0828010    -0.0000140
  C        0.4635850     0.3576260     0.0000390
  C       -1.8454847     0.0863210    -0.0593234
  H        2.4160690     0.3042180    -0.8811360
  H        2.4155930     0.3023240     0.8822020
  H        1.9396870    -1.1727100    -0.0011150
  H        0.2802710     1.4452080    -0.0000290
  H       -1.8762720     1.1592310    -0.0004570
  H       -2.3769420    -0.3108180     0.8823140
  H       -2.3772210    -0.3115500    -0.8818350
units angstrom
no_reorient  #important for SAPT in psi4, default
symmetry c1  #important for SAPT in psi4, default
}

set PROPERTIES_ORIGIN ["COM"]
properties('MP2/aug-cc-pvtz', properties = ['dipole'])
--------------------------------------------------------------------------

    Molecular point group: c1
  Charge       = 0
  Multiplicity = 1
  Basis Set: AUG-CC-PVTZ
    Blend: AUG-CC-PVTZ
  Basis Set: (AUG-CC-PVTZ AUX)
    Blend: AUG-CC-PVTZ-JKFIT

    Orbital Energies [Eh]
    ---------------------

    Doubly Occupied:

       1A    -15.556971     2A    -11.276389     3A    -11.243474
       4A    -11.225034     5A     -1.219618     6A     -1.009649
       7A     -0.910531     8A     -0.762675     9A     -0.645543
      10A     -0.617444    11A     -0.589108    12A     -0.562820
      13A     -0.536754    14A     -0.512230    15A     -0.407746
      16A     -0.395583

  @DF-RHF Final Energy:  -172.16424476663599

   => Energetics <=

    Nuclear Repulsion Energy =            117.8350443836423977
    One-Electron Energy =                -465.0554411900234868
    Two-Electron Energy =                 175.0561520397450863
    Total Energy =                       -172.1642447666359885
  Basis Set: (AUG-CC-PVTZ AUX)
    Blend: AUG-CC-PVTZ-RI
    Molecular point group: c1

    Geometry (in Angstrom), charge = 0, multiplicity = 1:

       Center              X                  Y                   Z               Mass
    ------------   -----------------  -----------------  -----------------  -----------------
         N           -0.490125120552    -0.469502728067     0.012466169153    14.003074004430
         C            1.900315879448    -0.063900728067     0.012460169153    12.000000000000
         C            0.470597879448     0.376526271933     0.012513169153    12.000000000000
         C           -1.838471820552     0.105221271933    -0.046849230847    12.000000000000
         H            2.423081879448     0.323118271933    -0.868661830847     1.007825032230
         H            2.422605879448     0.321224271933     0.894676169153     1.007825032230
         H            1.946699879448    -1.153809728067     0.011359169153     1.007825032230
         H            0.287283879448     1.464108271933     0.012445169153     1.007825032230
         H           -1.869259120552     1.178131271933     0.012017169153     1.007825032230
         H           -2.369929120552    -0.291917728067     0.894788169153     1.007825032230
         H           -2.370208120552    -0.292649728067    -0.869360830847     1.007825032230

  Basis Set: AUG-CC-PVTZ
    Blend: AUG-CC-PVTZ
  Basis Set: (AUG-CC-PVTZ AUX)
    Blend: AUG-CC-PVTZ-JKFIT
	 Reference Energy          =    -172.1642447666359885 [Eh]
	 Singles Energy            =      -0.0000000000000000 [Eh]
	 Same-Spin Energy          =      -0.1761400082230380 [Eh]
	 Opposite-Spin Energy      =      -0.6273328769651534 [Eh]
	 Correlation Energy        =      -0.8034728851881914 [Eh]
	 Total Energy              =    -172.9677176518241879 [Eh]

	 ================> DF-SCS-MP2 Energies <==================
	-----------------------------------------------------------
	 SCS Same-Spin Scale       =       0.3333333333333333 [-]
	 SCS Opposite-Spin Scale   =       1.2000000000000000 [-]
	 SCS Same-Spin Energy      =      -0.0587133360743460 [Eh]
	 SCS Opposite-Spin Energy  =      -0.7527994523581840 [Eh]
	 SCS Correlation Energy    =      -0.8115127884325301 [Eh]
	 SCS Total Energy          =    -172.9757575550685260 [Eh]
	-----------------------------------------------------------

  Dipole Moment: [D]
     X:     0.3251      Y:     1.5917      Z:    -0.0577     Total:     1.6256

*** Psi4 exiting successfully. Buy a developer a beer!
