                               Psi4 1.3.2 release

  ==> Input File <==

--------------------------------------------------------------------------
#psi4
#
memory 32 gb

molecule  {
0 1
  N       -0.4971380    -0.4884030    -0.0000080
  C        1.8933030    -0.0828010    -0.0000140
  C        0.4022287     0.4225818     0.0000406
  C       -1.8470910     0.0589940    -0.0000070
  H        2.4160690     0.3042180    -0.8811360
  H        2.4155930     0.3023240     0.8822020
  H        1.9396870    -1.1727100    -0.0011150
  H        0.2802710     1.4452080    -0.0000290
  H       -1.8762720     1.1592310    -0.0004570
  H       -2.3769420    -0.3108180     0.8823140
  H       -2.3772210    -0.3115500    -0.8818350
units angstrom
no_reorient  #important for SAPT in psi4, default
symmetry c1  #important for SAPT in psi4, default
}

set PROPERTIES_ORIGIN ["COM"]
properties('MP2/aug-cc-pvtz', properties = ['dipole'])
--------------------------------------------------------------------------

    Molecular point group: c1
  Charge       = 0
  Multiplicity = 1
  Basis Set: AUG-CC-PVTZ
    Blend: AUG-CC-PVTZ
  Basis Set: (AUG-CC-PVTZ AUX)
    Blend: AUG-CC-PVTZ-JKFIT

    Orbital Energies [Eh]
    ---------------------

    Doubly Occupied:

       1A    -15.559705     2A    -11.275066     3A    -11.242196
       4A    -11.224746     5A     -1.224446     6A     -0.994840
       7A     -0.904847     8A     -0.785832     9A     -0.645734
      10A     -0.606432    11A     -0.590778    12A     -0.559351
      13A     -0.539869    14A     -0.496681    15A     -0.413101
      16A     -0.400513

  @DF-RHF Final Energy:  -172.15986564500051

   => Energetics <=

    Nuclear Repulsion Energy =            117.5841335097034062
    One-Electron Energy =                -464.5597236675094450
    Two-Electron Energy =                 174.8157245128055308
    Total Energy =                       -172.1598656450005080
  Basis Set: (AUG-CC-PVTZ AUX)
    Blend: AUG-CC-PVTZ-RI
    Molecular point group: c1

    Geometry (in Angstrom), charge = 0, multiplicity = 1:

       Center              X                  Y                   Z               Mass
    ------------   -----------------  -----------------  -----------------  -----------------
         N           -0.476883275474    -0.477416548971    -0.000009169641    14.003074004430
         C            1.913557724526    -0.071814548971    -0.000015169641    12.000000000000
         C            0.422483424526     0.433568251029     0.000039430359    12.000000000000
         C           -1.826836275474     0.069980451029    -0.000008169641    12.000000000000
         H            2.436323724526     0.315204451029    -0.881137169641     1.007825032230
         H            2.435847724526     0.313310451029     0.882200830359     1.007825032230
         H            1.959941724526    -1.161723548971    -0.001116169641     1.007825032230
         H            0.300525724526     1.456194451029    -0.000030169641     1.007825032230
         H           -1.856017275474     1.170217451029    -0.000458169641     1.007825032230
         H           -2.356687275474    -0.299831548971     0.882312830359     1.007825032230
         H           -2.356966275474    -0.300563548971    -0.881836169641     1.007825032230

  Basis Set: AUG-CC-PVTZ
    Blend: AUG-CC-PVTZ
  Basis Set: (AUG-CC-PVTZ AUX)
    Blend: AUG-CC-PVTZ-JKFIT
	 Reference Energy          =    -172.1598656450005080 [Eh]
	 Singles Energy            =      -0.0000000000000000 [Eh]
	 Same-Spin Energy          =      -0.1756853726768071 [Eh]
	 Opposite-Spin Energy      =      -0.6275620980263608 [Eh]
	 Correlation Energy        =      -0.8032474707031679 [Eh]
	 Total Energy              =    -172.9631131157036634 [Eh]

	 ================> DF-SCS-MP2 Energies <==================
	-----------------------------------------------------------
	 SCS Same-Spin Scale       =       0.3333333333333333 [-]
	 SCS Opposite-Spin Scale   =       1.2000000000000000 [-]
	 SCS Same-Spin Energy      =      -0.0585617908922690 [Eh]
	 SCS Opposite-Spin Energy  =      -0.7530745176316329 [Eh]
	 SCS Correlation Energy    =      -0.8116363085239020 [Eh]
	 SCS Total Energy          =    -172.9715019535244096 [Eh]
	-----------------------------------------------------------

  Dipole Moment: [D]
     X:     0.1208      Y:     1.6754      Z:     0.0001     Total:     1.6797

*** Psi4 exiting successfully. Buy a developer a beer!
