                               Psi4 1.3.2 release

  ==> Input File <==

--------------------------------------------------------------------------
#psi4
#
memory 32 gb

molecule  {
0 1
  N       -0.4971380    -0.4884030    -0.0000080
  C        1.8933030    -0.0828010    -0.0000140
  C        0.4334738     0.3906394     0.0000398
  C       -1.8470910     0.0589940    -0.0000070
  H        2.4160690     0.3042180    -0.8811360
  H        2.4155930     0.3023240     0.8822020
  H        1.9396870    -1.1727100    -0.0011150
  H        0.2802710     1.4452080    -0.0000290
  H       -1.8762720     1.1592310    -0.0004570
  H       -2.3769420    -0.3108180     0.8823140
  H       -2.3772210    -0.3115500    -0.8818350
units angstrom
no_reorient  #important for SAPT in psi4, default
symmetry c1  #important for SAPT in psi4, default
}

set PROPERTIES_ORIGIN ["COM"]
properties('MP2/aug-cc-pvtz', properties = ['dipole'])
--------------------------------------------------------------------------

    Molecular point group: c1
  Charge       = 0
  Multiplicity = 1
  Basis Set: AUG-CC-PVTZ
    Blend: AUG-CC-PVTZ
  Basis Set: (AUG-CC-PVTZ AUX)
    Blend: AUG-CC-PVTZ-JKFIT

    Orbital Energies [Eh]
    ---------------------

    Doubly Occupied:

       1A    -15.557623     2A    -11.275793     3A    -11.242635
       4A    -11.225039     5A     -1.222298     6A     -1.002272
       7A     -0.907425     8A     -0.773308     9A     -0.645787
      10A     -0.608373    11A     -0.591763    12A     -0.562473
      13A     -0.538619    14A     -0.505322    15A     -0.409618
      16A     -0.399056

  @DF-RHF Final Energy:  -172.16664614643383

   => Energetics <=

    Nuclear Repulsion Energy =            117.7322599114903596
    One-Electron Energy =                -464.8630063378142268
    Two-Electron Energy =                 174.9641002798900331
    Total Energy =                       -172.1666461464338340
  Basis Set: (AUG-CC-PVTZ AUX)
    Blend: AUG-CC-PVTZ-RI
    Molecular point group: c1

    Geometry (in Angstrom), charge = 0, multiplicity = 1:

       Center              X                  Y                   Z               Mass
    ------------   -----------------  -----------------  -----------------  -----------------
         N           -0.483454522113    -0.470698651168    -0.000009001391    14.003074004430
         C            1.906986477887    -0.065096651168    -0.000015001391    12.000000000000
         C            0.447157277887     0.408343748832     0.000038798609    12.000000000000
         C           -1.833407522113     0.076698348832    -0.000008001391    12.000000000000
         H            2.429752477887     0.321922348832    -0.881137001391     1.007825032230
         H            2.429276477887     0.320028348832     0.882200998609     1.007825032230
         H            1.953370477887    -1.155005651168    -0.001116001391     1.007825032230
         H            0.293954477887     1.462912348832    -0.000030001391     1.007825032230
         H           -1.862588522113     1.176935348832    -0.000458001391     1.007825032230
         H           -2.363258522113    -0.293113651168     0.882312998609     1.007825032230
         H           -2.363537522113    -0.293845651168    -0.881836001391     1.007825032230

  Basis Set: AUG-CC-PVTZ
    Blend: AUG-CC-PVTZ
  Basis Set: (AUG-CC-PVTZ AUX)
    Blend: AUG-CC-PVTZ-JKFIT
	 Reference Energy          =    -172.1666461464338340 [Eh]
	 Singles Energy            =      -0.0000000000000000 [Eh]
	 Same-Spin Energy          =      -0.1758219990410482 [Eh]
	 Opposite-Spin Energy      =      -0.6271352020082304 [Eh]
	 Correlation Energy        =      -0.8029572010492785 [Eh]
	 Total Energy              =    -172.9696033474831154 [Eh]

	 ================> DF-SCS-MP2 Energies <==================
	-----------------------------------------------------------
	 SCS Same-Spin Scale       =       0.3333333333333333 [-]
	 SCS Opposite-Spin Scale   =       1.2000000000000000 [-]
	 SCS Same-Spin Energy      =      -0.0586073330136827 [Eh]
	 SCS Opposite-Spin Energy  =      -0.7525622424098765 [Eh]
	 SCS Correlation Energy    =      -0.8111695754235592 [Eh]
	 SCS Total Energy          =    -172.9778157218573824 [Eh]
	-----------------------------------------------------------

  Dipole Moment: [D]
     X:     0.2242      Y:     1.6195      Z:     0.0001     Total:     1.6350

*** Psi4 exiting successfully. Buy a developer a beer!
