                               Psi4 1.4a3.dev225

  ==> Input File <==

--------------------------------------------------------------------------
#psi4
#
memory 32 gb

molecule  {
0 1
  N        0.4972020    -0.4883560    -0.0000030
  C       -1.8933690    -0.0828130     0.0000000
  C       -0.4636380     0.3576020     0.0000030
  C        1.8471220     0.0589730     0.0000010
  H       -2.4159140     0.3032330     0.8816800
  H       -2.4159290     0.3032900    -0.8816460
  H       -1.9397520    -1.1727070    -0.0000330
  H       -0.2836688     1.4254511    -0.0000107
  H        1.8763800     1.1592220     0.0000020
  H        2.3772280    -0.3111450    -0.8820540
  H        2.3772250    -0.3111470     0.8820570
units angstrom
no_reorient  #important for SAPT in psi4, default
symmetry c1  #important for SAPT in psi4, default
}

set PROPERTIES_ORIGIN ["COM"]
properties('MP2/aug-cc-pvtz', properties = ['dipole'])
--------------------------------------------------------------------------

    Molecular point group: c1
  Charge       = 0
  Multiplicity = 1
  Basis Set: AUG-CC-PVTZ
    Blend: AUG-CC-PVTZ
  Basis Set: (AUG-CC-PVTZ AUX)
    Blend: AUG-CC-PVTZ-JKFIT

    Orbital Energies [Eh]
    ---------------------

    Doubly Occupied:

       1A    -15.555628     2A    -11.274668     3A    -11.243225
       4A    -11.224860     5A     -1.220552     6A     -1.010647
       7A     -0.909952     8A     -0.766152     9A     -0.647339
      10A     -0.610891    11A     -0.593310    12A     -0.565191
      13A     -0.537780    14A     -0.513203    15A     -0.405052
      16A     -0.397552

  @DF-RHF Final Energy:  -172.16897491652892

   => Energetics <=

    Nuclear Repulsion Energy =            117.9812194240319485
    One-Electron Energy =                -465.3483839864941274
    Two-Electron Energy =                 175.1981896459332404
    Total Energy =                       -172.1689749165289243
  Basis Set: (AUG-CC-PVTZ AUX)
    Blend: AUG-CC-PVTZ-RI
    Molecular point group: c1

    Geometry (in Angstrom), charge = 0, multiplicity = 1:

       Center              X                  Y                   Z               Mass
    ------------   -----------------  -----------------  -----------------  -----------------
         N            0.489911426975    -0.463359985596    -0.000003021978    14.003074004430
         C           -1.900659573025    -0.057816985596    -0.000000021978    12.000000000000
         C           -0.470928573025     0.382598014404     0.000002978022    12.000000000000
         C            1.839831426975     0.083969014404     0.000000978022    12.000000000000
         H           -2.423204573025     0.328229014404     0.881679978022     1.007825032230
         H           -2.423219573025     0.328286014404    -0.881646021978     1.007825032230
         H           -1.947042573025    -1.147710985596    -0.000033021978     1.007825032230
         H           -0.290959373025     1.450447114404    -0.000010721978     1.007825032230
         H            1.869089426975     1.184218014404     0.000001978022     1.007825032230
         H            2.369937426975    -0.286148985596    -0.882054021978     1.007825032230
         H            2.369934426975    -0.286150985596     0.882056978022     1.007825032230

  Basis Set: AUG-CC-PVTZ
    Blend: AUG-CC-PVTZ
  Basis Set: (AUG-CC-PVTZ AUX)
    Blend: AUG-CC-PVTZ-JKFIT
	 Reference Energy          =    -172.1689749165289243 [Eh]
	 Singles Energy            =      -0.0000000000000000 [Eh]
	 Same-Spin Energy          =      -0.1760226373197533 [Eh]
	 Opposite-Spin Energy      =      -0.6268737221296400 [Eh]
	 Correlation Energy        =      -0.8028963594493933 [Eh]
	 Total Energy              =    -172.9718712759783159 [Eh]

	 ================> DF-SCS-MP2 Energies <==================
	-----------------------------------------------------------
	 SCS Same-Spin Scale       =       0.3333333333333333 [-]
	 SCS Opposite-Spin Scale   =       1.2000000000000000 [-]
	 SCS Same-Spin Energy      =      -0.0586742124399178 [Eh]
	 SCS Opposite-Spin Energy  =      -0.7522484665555680 [Eh]
	 SCS Correlation Energy    =      -0.8109226789954858 [Eh]
	 SCS Total Energy          =    -172.9798975955244202 [Eh]
	-----------------------------------------------------------

  Dipole Moment: [D]
     X:    -0.3201      Y:     1.5724      Z:     0.0000     Total:     1.6047

*** Psi4 exiting successfully. Buy a developer a beer!
