                               Psi4 1.3.2 release

  ==> Input File <==

--------------------------------------------------------------------------
#psi4
#
memory 32 gb

molecule  {
0 1
  N       -0.4971380    -0.4884030    -0.0000080
  C        1.8933030    -0.0828010    -0.0000140
  C        0.3698879     0.4534143     0.0000413
  C       -1.8470910     0.0589940    -0.0000070
  H        2.4160690     0.3042180    -0.8811360
  H        2.4155930     0.3023240     0.8822020
  H        1.9396870    -1.1727100    -0.0011150
  H        0.2802710     1.4452080    -0.0000290
  H       -1.8762720     1.1592310    -0.0004570
  H       -2.3769420    -0.3108180     0.8823140
  H       -2.3772210    -0.3115500    -0.8818350
units angstrom
no_reorient  #important for SAPT in psi4, default
symmetry c1  #important for SAPT in psi4, default
}

set PROPERTIES_ORIGIN ["COM"]
properties('MP2/aug-cc-pvtz', properties = ['dipole'])
--------------------------------------------------------------------------

    Molecular point group: c1
  Charge       = 0
  Multiplicity = 1
  Basis Set: AUG-CC-PVTZ
    Blend: AUG-CC-PVTZ
  Basis Set: (AUG-CC-PVTZ AUX)
    Blend: AUG-CC-PVTZ-JKFIT

    Orbital Energies [Eh]
    ---------------------

    Doubly Occupied:

       1A    -15.562192     2A    -11.274922     3A    -11.242014
       4A    -11.224248     5A     -1.226976     6A     -0.988259
       7A     -0.902360     8A     -0.799270     9A     -0.646137
      10A     -0.605127    11A     -0.590422    12A     -0.556035
      13A     -0.540570    14A     -0.488098    15A     -0.414853
      16A     -0.402158

  @DF-RHF Final Energy:  -172.14848000024978

   => Energetics <=

    Nuclear Repulsion Energy =            117.4535879963081442
    One-Electron Energy =                -464.2768529416025558
    Two-Electron Energy =                 174.6747849450446211
    Total Energy =                       -172.1484800002497764
  Basis Set: (AUG-CC-PVTZ AUX)
    Blend: AUG-CC-PVTZ-RI
    Molecular point group: c1

    Geometry (in Angstrom), charge = 0, multiplicity = 1:

       Center              X                  Y                   Z               Mass
    ------------   -----------------  -----------------  -----------------  -----------------
         N           -0.470081589023    -0.483901020521    -0.000009316860    14.003074004430
         C            1.920359410977    -0.078299020521    -0.000015316860    12.000000000000
         C            0.396944310977     0.457916279479     0.000039983140    12.000000000000
         C           -1.820034589023     0.063495979479    -0.000008316860    12.000000000000
         H            2.443125410977     0.308719979479    -0.881137316860     1.007825032230
         H            2.442649410977     0.306825979479     0.882200683140     1.007825032230
         H            1.966743410977    -1.168208020521    -0.001116316860     1.007825032230
         H            0.307327410977     1.449709979479    -0.000030316860     1.007825032230
         H           -1.849215589023     1.163732979479    -0.000458316860     1.007825032230
         H           -2.349885589023    -0.306316020521     0.882312683140     1.007825032230
         H           -2.350164589023    -0.307048020521    -0.881836316860     1.007825032230

  Basis Set: AUG-CC-PVTZ
    Blend: AUG-CC-PVTZ
  Basis Set: (AUG-CC-PVTZ AUX)
    Blend: AUG-CC-PVTZ-JKFIT
	 Reference Energy          =    -172.1484800002497764 [Eh]
	 Singles Energy            =      -0.0000000000000000 [Eh]
	 Same-Spin Energy          =      -0.1756851260679791 [Eh]
	 Opposite-Spin Energy      =      -0.6282839743188029 [Eh]
	 Correlation Energy        =      -0.8039691003867819 [Eh]
	 Total Energy              =    -172.9524491006365565 [Eh]

	 ================> DF-SCS-MP2 Energies <==================
	-----------------------------------------------------------
	 SCS Same-Spin Scale       =       0.3333333333333333 [-]
	 SCS Opposite-Spin Scale   =       1.2000000000000000 [-]
	 SCS Same-Spin Energy      =      -0.0585617086893263 [Eh]
	 SCS Opposite-Spin Energy  =      -0.7539407691825635 [Eh]
	 SCS Correlation Energy    =      -0.8125024778718898 [Eh]
	 SCS Total Energy          =    -172.9609824781216787 [Eh]
	-----------------------------------------------------------

  Dipole Moment: [D]
     X:     0.0095      Y:     1.7208      Z:     0.0001     Total:     1.7208

*** Psi4 exiting successfully. Buy a developer a beer!
