                               Psi4 1.3.2 release

  ==> Input File <==

--------------------------------------------------------------------------
#psi4
#
memory 32 gb

molecule  {
0 1
  N       -0.5803092    -0.3833455     0.0000008
  C        1.8933030    -0.0828010    -0.0000140
  C        0.4635850     0.3576260     0.0000390
  C       -1.8470910     0.0589940    -0.0000070
  H        2.4160690     0.3042180    -0.8811360
  H        2.4155930     0.3023240     0.8822020
  H        1.9396870    -1.1727100    -0.0011150
  H        0.2802710     1.4452080    -0.0000290
  H       -1.8762720     1.1592310    -0.0004570
  H       -2.3769420    -0.3108180     0.8823140
  H       -2.3772210    -0.3115500    -0.8818350
units angstrom
no_reorient  #important for SAPT in psi4, default
symmetry c1  #important for SAPT in psi4, default
}

set PROPERTIES_ORIGIN ["COM"]
properties('MP2/aug-cc-pvtz', properties = ['dipole'])
--------------------------------------------------------------------------

    Molecular point group: c1
  Charge       = 0
  Multiplicity = 1
  Basis Set: AUG-CC-PVTZ
    Blend: AUG-CC-PVTZ
  Basis Set: (AUG-CC-PVTZ AUX)
    Blend: AUG-CC-PVTZ-JKFIT

    Orbital Energies [Eh]
    ---------------------

    Doubly Occupied:

       1A    -15.545419     2A    -11.279472     3A    -11.236582
       4A    -11.230994     5A     -1.240370     6A     -1.024881
       7A     -0.918268     8A     -0.758723     9A     -0.659152
      10A     -0.624694    11A     -0.604518    12A     -0.570561
      13A     -0.549586    14A     -0.520176    15A     -0.390760
      16A     -0.382134

  @DF-RHF Final Energy:  -172.15861058093805

   => Energetics <=

    Nuclear Repulsion Energy =            119.1714219291851720
    One-Electron Energy =                -467.5874860692862285
    Two-Electron Energy =                 176.2574535591630251
    Total Energy =                       -172.1586105809380456
  Basis Set: (AUG-CC-PVTZ AUX)
    Blend: AUG-CC-PVTZ-RI
    Molecular point group: c1

    Geometry (in Angstrom), charge = 0, multiplicity = 1:

       Center              X                  Y                   Z               Mass
    ------------   -----------------  -----------------  -----------------  -----------------
         N           -0.552546711434    -0.384481103282    -0.000002192827    14.003074004430
         C            1.921065488566    -0.083936603282    -0.000016992827    12.000000000000
         C            0.491347488566     0.356490396718     0.000036007173    12.000000000000
         C           -1.819328511434     0.057858396718    -0.000009992827    12.000000000000
         H            2.443831488566     0.303082396718    -0.881138992827     1.007825032230
         H            2.443355488566     0.301188396718     0.882199007173     1.007825032230
         H            1.967449488566    -1.173845603282    -0.001117992827     1.007825032230
         H            0.308033488566     1.444072396718    -0.000031992827     1.007825032230
         H           -1.848509511434     1.158095396718    -0.000459992827     1.007825032230
         H           -2.349179511434    -0.311953603282     0.882311007173     1.007825032230
         H           -2.349458511434    -0.312685603282    -0.881837992827     1.007825032230

  Basis Set: AUG-CC-PVTZ
    Blend: AUG-CC-PVTZ
  Basis Set: (AUG-CC-PVTZ AUX)
    Blend: AUG-CC-PVTZ-JKFIT
	 Reference Energy          =    -172.1586105809380456 [Eh]
	 Singles Energy            =      -0.0000000000000000 [Eh]
	 Same-Spin Energy          =      -0.1768413113283679 [Eh]
	 Opposite-Spin Energy      =      -0.6260425873163562 [Eh]
	 Correlation Energy        =      -0.8028838986447242 [Eh]
	 Total Energy              =    -172.9614944795827682 [Eh]

	 ================> DF-SCS-MP2 Energies <==================
	-----------------------------------------------------------
	 SCS Same-Spin Scale       =       0.3333333333333333 [-]
	 SCS Opposite-Spin Scale   =       1.2000000000000000 [-]
	 SCS Same-Spin Energy      =      -0.0589471037761226 [Eh]
	 SCS Opposite-Spin Energy  =      -0.7512511047796274 [Eh]
	 SCS Correlation Energy    =      -0.8101982085557501 [Eh]
	 SCS Total Energy          =    -172.9688087894938064 [Eh]
	-----------------------------------------------------------

  Dipole Moment: [D]
     X:     0.5156      Y:     1.1968      Z:     0.0002     Total:     1.3031

*** Psi4 exiting successfully. Buy a developer a beer!
