                               Psi4 1.4a3.dev225

  ==> Input File <==

--------------------------------------------------------------------------
#psi4
#
memory 32 gb

molecule  {
0 1
  N        0.4972020    -0.4883560    -0.0000030
  C       -1.8933690    -0.0828130     0.0000000
  C       -0.4636380     0.3576020     0.0000030
  C        1.8934582     0.0777601     0.0000011
  H       -2.4159140     0.3032330     0.8816800
  H       -2.4159290     0.3032900    -0.8816460
  H       -1.9397520    -1.1727070    -0.0000330
  H       -0.2803450     1.4451730    -0.0000110
  H        1.8763800     1.1592220     0.0000020
  H        2.3772280    -0.3111450    -0.8820540
  H        2.3772250    -0.3111470     0.8820570
units angstrom
no_reorient  #important for SAPT in psi4, default
symmetry c1  #important for SAPT in psi4, default
}

set PROPERTIES_ORIGIN ["COM"]
properties('MP2/aug-cc-pvtz', properties = ['dipole'])
--------------------------------------------------------------------------

    Molecular point group: c1
  Charge       = 0
  Multiplicity = 1
  Basis Set: AUG-CC-PVTZ
    Blend: AUG-CC-PVTZ
  Basis Set: (AUG-CC-PVTZ AUX)
    Blend: AUG-CC-PVTZ-JKFIT

    Orbital Energies [Eh]
    ---------------------

    Doubly Occupied:

       1A    -15.556130     2A    -11.275070     3A    -11.242441
       4A    -11.224321     5A     -1.210493     6A     -1.006912
       7A     -0.913509     8A     -0.759239     9A     -0.637392
      10A     -0.611598    11A     -0.594723    12A     -0.567738
      13A     -0.534677    14A     -0.517907    15A     -0.400870
      16A     -0.399592

  @DF-RHF Final Energy:  -172.16656396633493

   => Energetics <=

    Nuclear Repulsion Energy =            117.2689790609674816
    One-Electron Energy =                -463.9658640743625710
    Two-Electron Energy =                 174.5303210470601698
    Total Energy =                       -172.1665639663349339
  Basis Set: (AUG-CC-PVTZ AUX)
    Blend: AUG-CC-PVTZ-RI
    Molecular point group: c1

    Geometry (in Angstrom), charge = 0, multiplicity = 1:

       Center              X                  Y                   Z               Mass
    ------------   -----------------  -----------------  -----------------  -----------------
         N            0.480107618798    -0.467659506658    -0.000003037710    14.003074004430
         C           -1.910463381202    -0.062116506658    -0.000000037710    12.000000000000
         C           -0.480732381202     0.378298493342     0.000002962290    12.000000000000
         C            1.876363818798     0.098456593342     0.000001062290    12.000000000000
         H           -2.433008381202     0.323929493342     0.881679962290     1.007825032230
         H           -2.433023381202     0.323986493342    -0.881646037710     1.007825032230
         H           -1.956846381202    -1.152010506658    -0.000033037710     1.007825032230
         H           -0.297439381202     1.465869493342    -0.000011037710     1.007825032230
         H            1.859285618798     1.179918493342     0.000001962290     1.007825032230
         H            2.360133618798    -0.290448506658    -0.882054037710     1.007825032230
         H            2.360130618798    -0.290450506658     0.882056962290     1.007825032230

  Basis Set: AUG-CC-PVTZ
    Blend: AUG-CC-PVTZ
  Basis Set: (AUG-CC-PVTZ AUX)
    Blend: AUG-CC-PVTZ-JKFIT
	 Reference Energy          =    -172.1665639663349339 [Eh]
	 Singles Energy            =      -0.0000000000000000 [Eh]
	 Same-Spin Energy          =      -0.1759425881104421 [Eh]
	 Opposite-Spin Energy      =      -0.6273959958695972 [Eh]
	 Correlation Energy        =      -0.8033385839800392 [Eh]
	 Total Energy              =    -172.9699025503149699 [Eh]

	 ================> DF-SCS-MP2 Energies <==================
	-----------------------------------------------------------
	 SCS Same-Spin Scale       =       0.3333333333333333 [-]
	 SCS Opposite-Spin Scale   =       1.2000000000000000 [-]
	 SCS Same-Spin Energy      =      -0.0586475293701474 [Eh]
	 SCS Opposite-Spin Energy  =      -0.7528751950435165 [Eh]
	 SCS Correlation Energy    =      -0.8115227244136639 [Eh]
	 SCS Total Energy          =    -172.9780866907485972 [Eh]
	-----------------------------------------------------------

  Dipole Moment: [D]
     X:    -0.2553      Y:     1.5860      Z:     0.0000     Total:     1.6065

*** Psi4 exiting successfully. Buy a developer a beer!
