                               Psi4 1.3.2 release

  ==> Input File <==

--------------------------------------------------------------------------
#psi4
#
memory 32 gb

molecule  {
0 1
  N       -0.5617517    -0.6265128     0.0000600
  C        1.8933030    -0.0828010    -0.0000140
  C        0.4635850     0.3576260     0.0000390
  C       -1.8470910     0.0589940    -0.0000070
  H        2.4160690     0.3042180    -0.8811360
  H        2.4155930     0.3023240     0.8822020
  H        1.9396870    -1.1727100    -0.0011150
  H        0.2802710     1.4452080    -0.0000290
  H       -1.8762720     1.1592310    -0.0004570
  H       -2.3769420    -0.3108180     0.8823140
  H       -2.3772210    -0.3115500    -0.8818350
units angstrom
no_reorient  #important for SAPT in psi4, default
symmetry c1  #important for SAPT in psi4, default
}

set PROPERTIES_ORIGIN ["COM"]
properties('MP2/aug-cc-pvtz', properties = ['dipole'])
--------------------------------------------------------------------------

    Molecular point group: c1
  Charge       = 0
  Multiplicity = 1
  Basis Set: AUG-CC-PVTZ
    Blend: AUG-CC-PVTZ
  Basis Set: (AUG-CC-PVTZ AUX)
    Blend: AUG-CC-PVTZ-JKFIT

    Orbital Energies [Eh]
    ---------------------

    Doubly Occupied:

       1A    -15.579217     2A    -11.301315     3A    -11.238611
       4A    -11.230409     5A     -1.182293     6A     -1.015160
       7A     -0.887536     8A     -0.777771     9A     -0.634032
      10A     -0.604273    11A     -0.588517    12A     -0.566800
      13A     -0.536255    14A     -0.493386    15A     -0.432049
      16A     -0.364251

  @DF-RHF Final Energy:  -172.13110572893143

   => Energetics <=

    Nuclear Repulsion Energy =            115.6565615148050910
    One-Electron Energy =                -460.7115824692345427
    Two-Electron Energy =                 172.9239152254980070
    Total Energy =                       -172.1311057289314306
  Basis Set: (AUG-CC-PVTZ AUX)
    Blend: AUG-CC-PVTZ-RI
    Molecular point group: c1

    Geometry (in Angstrom), charge = 0, multiplicity = 1:

       Center              X                  Y                   Z               Mass
    ------------   -----------------  -----------------  -----------------  -----------------
         N           -0.538543572479    -0.567970554514     0.000042478375    14.003074004430
         C            1.916511127521    -0.024258754514    -0.000031521625    12.000000000000
         C            0.486793127521     0.416168245486     0.000021478375    12.000000000000
         C           -1.823882872479     0.117536245486    -0.000024521625    12.000000000000
         H            2.439277127521     0.362760245486    -0.881153521625     1.007825032230
         H            2.438801127521     0.360866245486     0.882184478375     1.007825032230
         H            1.962895127521    -1.114167754514    -0.001132521625     1.007825032230
         H            0.303479127521     1.503750245486    -0.000046521625     1.007825032230
         H           -1.853063872479     1.217773245486    -0.000474521625     1.007825032230
         H           -2.353733872479    -0.252275754514     0.882296478375     1.007825032230
         H           -2.354012872479    -0.253007754514    -0.881852521625     1.007825032230

  Basis Set: AUG-CC-PVTZ
    Blend: AUG-CC-PVTZ
  Basis Set: (AUG-CC-PVTZ AUX)
    Blend: AUG-CC-PVTZ-JKFIT
	 Reference Energy          =    -172.1311057289314306 [Eh]
	 Singles Energy            =      -0.0000000000000000 [Eh]
	 Same-Spin Energy          =      -0.1798817894501758 [Eh]
	 Opposite-Spin Energy      =      -0.6370890506636371 [Eh]
	 Correlation Energy        =      -0.8169708401138129 [Eh]
	 Total Energy              =    -172.9480765690452415 [Eh]

	 ================> DF-SCS-MP2 Energies <==================
	-----------------------------------------------------------
	 SCS Same-Spin Scale       =       0.3333333333333333 [-]
	 SCS Opposite-Spin Scale   =       1.2000000000000000 [-]
	 SCS Same-Spin Energy      =      -0.0599605964833919 [Eh]
	 SCS Opposite-Spin Energy  =      -0.7645068607963644 [Eh]
	 SCS Correlation Energy    =      -0.8244674572797563 [Eh]
	 SCS Total Energy          =    -172.9555731862111827 [Eh]
	-----------------------------------------------------------

  Dipole Moment: [D]
     X:     0.5016      Y:     1.8082      Z:     0.0000     Total:     1.8765

*** Psi4 exiting successfully. Buy a developer a beer!
