                               Psi4 1.3.2 release

  ==> Input File <==

--------------------------------------------------------------------------
#psi4
#
memory 32 gb

molecule  {
0 1
  N       -0.4971380    -0.4884030    -0.0000080
  C        1.8933030    -0.0828010    -0.0000140
  C        0.4635850     0.3576260     0.0000390
  C       -1.8421230    -0.0506626     0.2370779
  H        2.4160690     0.3042180    -0.8811360
  H        2.4155930     0.3023240     0.8822020
  H        1.9396870    -1.1727100    -0.0011150
  H        0.2802710     1.4452080    -0.0000290
  H       -1.8762720     1.1592310    -0.0004570
  H       -2.3769420    -0.3108180     0.8823140
  H       -2.3772210    -0.3115500    -0.8818350
units angstrom
no_reorient  #important for SAPT in psi4, default
symmetry c1  #important for SAPT in psi4, default
}

set PROPERTIES_ORIGIN ["COM"]
properties('MP2/aug-cc-pvtz', properties = ['dipole'])
--------------------------------------------------------------------------

    Molecular point group: c1
  Charge       = 0
  Multiplicity = 1
  Basis Set: AUG-CC-PVTZ
    Blend: AUG-CC-PVTZ
  Basis Set: (AUG-CC-PVTZ AUX)
    Blend: AUG-CC-PVTZ-JKFIT

    Orbital Energies [Eh]
    ---------------------

    Doubly Occupied:

       1A    -15.558811     2A    -11.282767     3A    -11.256579
       4A    -11.227968     5A     -1.225443     6A     -1.017278
       7A     -0.925593     8A     -0.768399     9A     -0.687290
      10A     -0.605474    11A     -0.589969    12A     -0.572508
      13A     -0.538565    14A     -0.494074    15A     -0.390671
      16A     -0.387791

  @DF-RHF Final Energy:  -172.08336371287376

   => Energetics <=

    Nuclear Repulsion Energy =            118.0318480614270555
    One-Electron Energy =                -465.1720633402956082
    Two-Electron Energy =                 175.0568515659947764
    Total Energy =                       -172.0833637128737621
  Basis Set: (AUG-CC-PVTZ AUX)
    Blend: AUG-CC-PVTZ-RI
    Molecular point group: c1

    Geometry (in Angstrom), charge = 0, multiplicity = 1:

       Center              X                  Y                   Z               Mass
    ------------   -----------------  -----------------  -----------------  -----------------
         N           -0.490832129325    -0.440693314074    -0.049870838779    14.003074004430
         C            1.899608870675    -0.035091314074    -0.049876838779    12.000000000000
         C            0.469890870675     0.405335685926    -0.049823838779    12.000000000000
         C           -1.835817129325    -0.002952914074     0.187215061221    12.000000000000
         H            2.422374870675     0.351927685926    -0.930998838779     1.007825032230
         H            2.421898870675     0.350033685926     0.832339161221     1.007825032230
         H            1.945992870675    -1.125000314074    -0.050977838779     1.007825032230
         H            0.286576870675     1.492917685926    -0.049891838779     1.007825032230
         H           -1.869966129325     1.206940685926    -0.050319838779     1.007825032230
         H           -2.370636129325    -0.263108314074     0.832451161221     1.007825032230
         H           -2.370915129325    -0.263840314074    -0.931697838779     1.007825032230

  Basis Set: AUG-CC-PVTZ
    Blend: AUG-CC-PVTZ
  Basis Set: (AUG-CC-PVTZ AUX)
    Blend: AUG-CC-PVTZ-JKFIT
	 Reference Energy          =    -172.0833637128737621 [Eh]
	 Singles Energy            =      -0.0000000000000000 [Eh]
	 Same-Spin Energy          =      -0.1773452880285102 [Eh]
	 Opposite-Spin Energy      =      -0.6304067309256760 [Eh]
	 Correlation Energy        =      -0.8077520189541862 [Eh]
	 Total Energy              =    -172.8911157318279379 [Eh]

	 ================> DF-SCS-MP2 Energies <==================
	-----------------------------------------------------------
	 SCS Same-Spin Scale       =       0.3333333333333333 [-]
	 SCS Opposite-Spin Scale   =       1.2000000000000000 [-]
	 SCS Same-Spin Energy      =      -0.0591150960095034 [Eh]
	 SCS Opposite-Spin Energy  =      -0.7564880771108112 [Eh]
	 SCS Correlation Energy    =      -0.8156031731203146 [Eh]
	 SCS Total Energy          =    -172.8989668859940707 [Eh]
	-----------------------------------------------------------

  Dipole Moment: [D]
     X:     0.4868      Y:     1.3512      Z:     0.1909     Total:     1.4488

*** Psi4 exiting successfully. Buy a developer a beer!
