                               Psi4 1.3.2 release

  ==> Input File <==

--------------------------------------------------------------------------
#psi4
#
memory 32 gb

molecule  {
0 1
  N       -0.5117569    -0.4715072    -0.0000066
  C        1.8933030    -0.0828010    -0.0000140
  C        0.4635850     0.3576260     0.0000390
  C       -1.8470910     0.0589940    -0.0000070
  H        2.4160690     0.3042180    -0.8811360
  H        2.4155930     0.3023240     0.8822020
  H        1.9396870    -1.1727100    -0.0011150
  H        0.2802710     1.4452080    -0.0000290
  H       -1.8762720     1.1592310    -0.0004570
  H       -2.3769420    -0.3108180     0.8823140
  H       -2.3772210    -0.3115500    -0.8818350
units angstrom
no_reorient  #important for SAPT in psi4, default
symmetry c1  #important for SAPT in psi4, default
}

set PROPERTIES_ORIGIN ["COM"]
properties('MP2/aug-cc-pvtz', properties = ['dipole'])
--------------------------------------------------------------------------

    Molecular point group: c1
  Charge       = 0
  Multiplicity = 1
  Basis Set: AUG-CC-PVTZ
    Blend: AUG-CC-PVTZ
  Basis Set: (AUG-CC-PVTZ AUX)
    Blend: AUG-CC-PVTZ-JKFIT

    Orbital Energies [Eh]
    ---------------------

    Doubly Occupied:

       1A    -15.554166     2A    -11.277294     3A    -11.242163
       4A    -11.226139     5A     -1.223292     6A     -1.012886
       7A     -0.911173     8A     -0.761455     9A     -0.648418
      10A     -0.613161    11A     -0.595029    12A     -0.566170
      13A     -0.538967    14A     -0.514252    15A     -0.401903
      16A     -0.396651

  @DF-RHF Final Energy:  -172.16904492342724

   => Energetics <=

    Nuclear Repulsion Energy =            118.0984757220690398
    One-Electron Energy =                -465.5688064328491009
    Two-Electron Energy =                 175.3012857873528105
    Total Energy =                       -172.1690449234272364
  Basis Set: (AUG-CC-PVTZ AUX)
    Blend: AUG-CC-PVTZ-RI
    Molecular point group: c1

    Geometry (in Angstrom), charge = 0, multiplicity = 1:

       Center              X                  Y                   Z               Mass
    ------------   -----------------  -----------------  -----------------  -----------------
         N           -0.500818440784    -0.451006256757    -0.000007776727    14.003074004430
         C            1.904241459216    -0.062300056757    -0.000015176727    12.000000000000
         C            0.474523459216     0.378126943243     0.000037823273    12.000000000000
         C           -1.836152540784     0.079494943243    -0.000008176727    12.000000000000
         H            2.427007459216     0.324718943243    -0.881137176727     1.007825032230
         H            2.426531459216     0.322824943243     0.882200823273     1.007825032230
         H            1.950625459216    -1.152209056757    -0.001116176727     1.007825032230
         H            0.291209459216     1.465708943243    -0.000030176727     1.007825032230
         H           -1.865333540784     1.179731943243    -0.000458176727     1.007825032230
         H           -2.366003540784    -0.290317056757     0.882312823273     1.007825032230
         H           -2.366282540784    -0.291049056757    -0.881836176727     1.007825032230

  Basis Set: AUG-CC-PVTZ
    Blend: AUG-CC-PVTZ
  Basis Set: (AUG-CC-PVTZ AUX)
    Blend: AUG-CC-PVTZ-JKFIT
	 Reference Energy          =    -172.1690449234272364 [Eh]
	 Singles Energy            =      -0.0000000000000000 [Eh]
	 Same-Spin Energy          =      -0.1761330308281964 [Eh]
	 Opposite-Spin Energy      =      -0.6267015817323822 [Eh]
	 Correlation Energy        =      -0.8028346125605786 [Eh]
	 Total Energy              =    -172.9718795359878243 [Eh]

	 ================> DF-SCS-MP2 Energies <==================
	-----------------------------------------------------------
	 SCS Same-Spin Scale       =       0.3333333333333333 [-]
	 SCS Opposite-Spin Scale   =       1.2000000000000000 [-]
	 SCS Same-Spin Energy      =      -0.0587110102760655 [Eh]
	 SCS Opposite-Spin Energy  =      -0.7520418980788587 [Eh]
	 SCS Correlation Energy    =      -0.8107529083549242 [Eh]
	 SCS Total Energy          =    -172.9797978317821503 [Eh]
	-----------------------------------------------------------

  Dipole Moment: [D]
     X:     0.3508      Y:     1.5020      Z:     0.0001     Total:     1.5424

*** Psi4 exiting successfully. Buy a developer a beer!
