                               Psi4 1.3.2 release

  ==> Input File <==

--------------------------------------------------------------------------
#psi4
#
memory 32 gb

molecule  {
0 1
  N       -0.4971380    -0.4884030    -0.0000080
  C        1.8933030    -0.0828010    -0.0000140
  C        0.5386334     0.4237149     0.0000427
  C       -1.8470910     0.0589940    -0.0000070
  H        2.4160690     0.3042180    -0.8811360
  H        2.4155930     0.3023240     0.8822020
  H        1.9396870    -1.1727100    -0.0011150
  H        0.2802710     1.4452080    -0.0000290
  H       -1.8762720     1.1592310    -0.0004570
  H       -2.3769420    -0.3108180     0.8823140
  H       -2.3772210    -0.3115500    -0.8818350
units angstrom
no_reorient  #important for SAPT in psi4, default
symmetry c1  #important for SAPT in psi4, default
}

set PROPERTIES_ORIGIN ["COM"]
properties('MP2/aug-cc-pvtz', properties = ['dipole'])
--------------------------------------------------------------------------

    Molecular point group: c1
  Charge       = 0
  Multiplicity = 1
  Basis Set: AUG-CC-PVTZ
    Blend: AUG-CC-PVTZ
  Basis Set: (AUG-CC-PVTZ AUX)
    Blend: AUG-CC-PVTZ-JKFIT

    Orbital Energies [Eh]
    ---------------------

    Doubly Occupied:

       1A    -15.563861     2A    -11.284920     3A    -11.240179
       4A    -11.227156     5A     -1.187914     6A     -1.024624
       7A     -0.896208     8A     -0.777899     9A     -0.643105
      10A     -0.608821    11A     -0.591938    12A     -0.567239
      13A     -0.541908    14A     -0.515113    15A     -0.407430
      16A     -0.369324

  @DF-RHF Final Energy:  -172.14647348522806

   => Energetics <=

    Nuclear Repulsion Energy =            116.9413723947975683
    One-Electron Energy =                -463.2804165055820818
    Two-Electron Energy =                 174.1925706255564705
    Total Energy =                       -172.1464734852280571
  Basis Set: (AUG-CC-PVTZ AUX)
    Blend: AUG-CC-PVTZ-RI
    Molecular point group: c1

    Geometry (in Angstrom), charge = 0, multiplicity = 1:

       Center              X                  Y                   Z               Mass
    ------------   -----------------  -----------------  -----------------  -----------------
         N           -0.505570939346    -0.477654854484    -0.000009611298    14.003074004430
         C            1.884870060654    -0.072052854484    -0.000015611298    12.000000000000
         C            0.530200460654     0.434463045516     0.000041088702    12.000000000000
         C           -1.855523939346     0.069742145516    -0.000008611298    12.000000000000
         H            2.407636060654     0.314966145516    -0.881137611298     1.007825032230
         H            2.407160060654     0.313072145516     0.882200388702     1.007825032230
         H            1.931254060654    -1.161961854484    -0.001116611298     1.007825032230
         H            0.271838060654     1.455956145516    -0.000030611298     1.007825032230
         H           -1.884704939346     1.169979145516    -0.000458611298     1.007825032230
         H           -2.385374939346    -0.300069854484     0.882312388702     1.007825032230
         H           -2.385653939346    -0.300801854484    -0.881836611298     1.007825032230

  Basis Set: AUG-CC-PVTZ
    Blend: AUG-CC-PVTZ
  Basis Set: (AUG-CC-PVTZ AUX)
    Blend: AUG-CC-PVTZ-JKFIT
	 Reference Energy          =    -172.1464734852280571 [Eh]
	 Singles Energy            =      -0.0000000000000000 [Eh]
	 Same-Spin Energy          =      -0.1786288106972671 [Eh]
	 Opposite-Spin Energy      =      -0.6327536593316289 [Eh]
	 Correlation Energy        =      -0.8113824700288960 [Eh]
	 Total Energy              =    -172.9578559552569459 [Eh]

	 ================> DF-SCS-MP2 Energies <==================
	-----------------------------------------------------------
	 SCS Same-Spin Scale       =       0.3333333333333333 [-]
	 SCS Opposite-Spin Scale   =       1.2000000000000000 [-]
	 SCS Same-Spin Energy      =      -0.0595429368990890 [Eh]
	 SCS Opposite-Spin Energy  =      -0.7593043911979546 [Eh]
	 SCS Correlation Energy    =      -0.8188473280970436 [Eh]
	 SCS Total Energy          =    -172.9653208133250928 [Eh]
	-----------------------------------------------------------

  Dipole Moment: [D]
     X:     0.5076      Y:     1.6627      Z:     0.0001     Total:     1.7385

*** Psi4 exiting successfully. Buy a developer a beer!
