                               Psi4 1.4a3.dev225

  ==> Input File <==

--------------------------------------------------------------------------
#psi4
#
memory 32 gb

molecule  {
0 1
  N        0.4972020    -0.4883560    -0.0000030
  C       -1.8933690    -0.0828130     0.0000000
  C       -0.4261104     0.3245614     0.0000028
  C        1.8471220     0.0589730     0.0000010
  H       -2.4159140     0.3032330     0.8816800
  H       -2.4159290     0.3032900    -0.8816460
  H       -1.9397520    -1.1727070    -0.0000330
  H       -0.2803450     1.4451730    -0.0000110
  H        1.8763800     1.1592220     0.0000020
  H        2.3772280    -0.3111450    -0.8820540
  H        2.3772250    -0.3111470     0.8820570
units angstrom
no_reorient  #important for SAPT in psi4, default
symmetry c1  #important for SAPT in psi4, default
}

set PROPERTIES_ORIGIN ["COM"]
properties('MP2/aug-cc-pvtz', properties = ['dipole'])
--------------------------------------------------------------------------

    Molecular point group: c1
  Charge       = 0
  Multiplicity = 1
  Basis Set: AUG-CC-PVTZ
    Blend: AUG-CC-PVTZ
  Basis Set: (AUG-CC-PVTZ AUX)
    Blend: AUG-CC-PVTZ-JKFIT

    Orbital Energies [Eh]
    ---------------------

    Doubly Occupied:

       1A    -15.551290     2A    -11.273115     3A    -11.245344
       4A    -11.224215     5A     -1.240711     6A     -1.004010
       7A     -0.916965     8A     -0.753519     9A     -0.649047
      10A     -0.613331    11A     -0.596408    12A     -0.563579
      13A     -0.539886    14A     -0.506745    15A     -0.413451
      16A     -0.400122

  @DF-RHF Final Energy:  -172.16854076422698

   => Energetics <=

    Nuclear Repulsion Energy =            118.4501529133961952
    One-Electron Energy =                -466.2539142809840200
    Two-Electron Energy =                 175.6352206033608354
    Total Energy =                       -172.1685407642269752
  Basis Set: (AUG-CC-PVTZ AUX)
    Blend: AUG-CC-PVTZ-RI
    Molecular point group: c1

    Geometry (in Angstrom), charge = 0, multiplicity = 1:

       Center              X                  Y                   Z               Mass
    ------------   -----------------  -----------------  -----------------  -----------------
         N            0.481960180740    -0.456759474351    -0.000002974616    14.003074004430
         C           -1.908610819260    -0.051216474351     0.000000025384    12.000000000000
         C           -0.441352219260     0.356157925649     0.000002825384    12.000000000000
         C            1.831880180740     0.090569525649     0.000001025384    12.000000000000
         H           -2.431155819260     0.334829525649     0.881680025384     1.007825032230
         H           -2.431170819260     0.334886525649    -0.881645974616     1.007825032230
         H           -1.954993819260    -1.141110474351    -0.000032974616     1.007825032230
         H           -0.295586819260     1.476769525649    -0.000010974616     1.007825032230
         H            1.861138180740     1.190818525649     0.000002025384     1.007825032230
         H            2.361986180740    -0.279548474351    -0.882053974616     1.007825032230
         H            2.361983180740    -0.279550474351     0.882057025384     1.007825032230

  Basis Set: AUG-CC-PVTZ
    Blend: AUG-CC-PVTZ
  Basis Set: (AUG-CC-PVTZ AUX)
    Blend: AUG-CC-PVTZ-JKFIT
	 Reference Energy          =    -172.1685407642269752 [Eh]
	 Singles Energy            =      -0.0000000000000000 [Eh]
	 Same-Spin Energy          =      -0.1752254757311367 [Eh]
	 Opposite-Spin Energy      =      -0.6248419880761604 [Eh]
	 Correlation Energy        =      -0.8000674638072971 [Eh]
	 Total Energy              =    -172.9686082280342703 [Eh]

	 ================> DF-SCS-MP2 Energies <==================
	-----------------------------------------------------------
	 SCS Same-Spin Scale       =       0.3333333333333333 [-]
	 SCS Opposite-Spin Scale   =       1.2000000000000000 [-]
	 SCS Same-Spin Energy      =      -0.0584084919103789 [Eh]
	 SCS Opposite-Spin Energy  =      -0.7498103856913925 [Eh]
	 SCS Correlation Energy    =      -0.8082188776017714 [Eh]
	 SCS Total Energy          =    -172.9767596418287496 [Eh]
	-----------------------------------------------------------

  Dipole Moment: [D]
     X:    -0.1971      Y:     1.4643      Z:     0.0000     Total:     1.4775

*** Psi4 exiting successfully. Buy a developer a beer!
