                               Psi4 1.3.2 release

  ==> Input File <==

--------------------------------------------------------------------------
#psi4
#
memory 32 gb

molecule  {
0 1
  N       -0.4971380    -0.4884030    -0.0000080
  C        1.8933030    -0.0828010    -0.0000140
  C        0.4635850     0.3576260     0.0000390
  C       -1.8475580     0.0316238     0.0593094
  H        2.4160690     0.3042180    -0.8811360
  H        2.4155930     0.3023240     0.8822020
  H        1.9396870    -1.1727100    -0.0011150
  H        0.2802710     1.4452080    -0.0000290
  H       -1.8762720     1.1592310    -0.0004570
  H       -2.3769420    -0.3108180     0.8823140
  H       -2.3772210    -0.3115500    -0.8818350
units angstrom
no_reorient  #important for SAPT in psi4, default
symmetry c1  #important for SAPT in psi4, default
}

set PROPERTIES_ORIGIN ["COM"]
properties('MP2/aug-cc-pvtz', properties = ['dipole'])
--------------------------------------------------------------------------

    Molecular point group: c1
  Charge       = 0
  Multiplicity = 1
  Basis Set: AUG-CC-PVTZ
    Blend: AUG-CC-PVTZ
  Basis Set: (AUG-CC-PVTZ AUX)
    Blend: AUG-CC-PVTZ-JKFIT

    Orbital Energies [Eh]
    ---------------------

    Doubly Occupied:

       1A    -15.555602     2A    -11.278026     3A    -11.244547
       4A    -11.225584     5A     -1.221602     6A     -1.011721
       7A     -0.911151     8A     -0.761852     9A     -0.650244
      10A     -0.610605    11A     -0.594390    12A     -0.567909
      13A     -0.538121    14A     -0.508998    15A     -0.402257
      16A     -0.397683

  @DF-RHF Final Energy:  -172.16413632166385

   => Energetics <=

    Nuclear Repulsion Energy =            117.9456805129603225
    One-Electron Energy =                -465.2590483866670183
    Two-Electron Energy =                 175.1492315520428349
    Total Energy =                       -172.1641363216638467
  Basis Set: (AUG-CC-PVTZ AUX)
    Blend: AUG-CC-PVTZ-RI
    Molecular point group: c1

    Geometry (in Angstrom), charge = 0, multiplicity = 1:

       Center              X                  Y                   Z               Mass
    ------------   -----------------  -----------------  -----------------  -----------------
         N           -0.489689078880    -0.457999202980    -0.012483835434    14.003074004430
         C            1.900751921120    -0.052397202980    -0.012489835434    12.000000000000
         C            0.471033921120     0.388029797020    -0.012436835434    12.000000000000
         C           -1.840109078880     0.062027597020     0.046833564566    12.000000000000
         H            2.423517921120     0.334621797020    -0.893611835434     1.007825032230
         H            2.423041921120     0.332727797020     0.869726164566     1.007825032230
         H            1.947135921120    -1.142306202980    -0.013590835434     1.007825032230
         H            0.287719921120     1.475611797020    -0.012504835434     1.007825032230
         H           -1.868823078880     1.189634797020    -0.012932835434     1.007825032230
         H           -2.369493078880    -0.280414202980     0.869838164566     1.007825032230
         H           -2.369772078880    -0.281146202980    -0.894310835434     1.007825032230

  Basis Set: AUG-CC-PVTZ
    Blend: AUG-CC-PVTZ
  Basis Set: (AUG-CC-PVTZ AUX)
    Blend: AUG-CC-PVTZ-JKFIT
	 Reference Energy          =    -172.1641363216638467 [Eh]
	 Singles Energy            =      -0.0000000000000000 [Eh]
	 Same-Spin Energy          =      -0.1761829367373378 [Eh]
	 Opposite-Spin Energy      =      -0.6271212174935470 [Eh]
	 Correlation Energy        =      -0.8033041542308847 [Eh]
	 Total Energy              =    -172.9674404758947333 [Eh]

	 ================> DF-SCS-MP2 Energies <==================
	-----------------------------------------------------------
	 SCS Same-Spin Scale       =       0.3333333333333333 [-]
	 SCS Opposite-Spin Scale   =       1.2000000000000000 [-]
	 SCS Same-Spin Energy      =      -0.0587276455791126 [Eh]
	 SCS Opposite-Spin Energy  =      -0.7525454609922564 [Eh]
	 SCS Correlation Energy    =      -0.8112731065713690 [Eh]
	 SCS Total Energy          =    -172.9754094282352241 [Eh]
	-----------------------------------------------------------

  Dipole Moment: [D]
     X:     0.3350      Y:     1.5075      Z:     0.0550     Total:     1.5453

*** Psi4 exiting successfully. Buy a developer a beer!
