                               Psi4 1.3.2 release

  ==> Input File <==

--------------------------------------------------------------------------
#psi4
#
memory 32 gb

molecule  {
0 1
  N       -0.4971380    -0.4884030    -0.0000080
  C        1.8933030    -0.0828010    -0.0000140
  C        0.3680168     0.3870660     0.0000425
  C       -1.8470910     0.0589940    -0.0000070
  H        2.4160690     0.3042180    -0.8811360
  H        2.4155930     0.3023240     0.8822020
  H        1.9396870    -1.1727100    -0.0011150
  H        0.2802710     1.4452080    -0.0000290
  H       -1.8762720     1.1592310    -0.0004570
  H       -2.3769420    -0.3108180     0.8823140
  H       -2.3772210    -0.3115500    -0.8818350
units angstrom
no_reorient  #important for SAPT in psi4, default
symmetry c1  #important for SAPT in psi4, default
}

set PROPERTIES_ORIGIN ["COM"]
properties('MP2/aug-cc-pvtz', properties = ['dipole'])
--------------------------------------------------------------------------

    Molecular point group: c1
  Charge       = 0
  Multiplicity = 1
  Basis Set: AUG-CC-PVTZ
    Blend: AUG-CC-PVTZ
  Basis Set: (AUG-CC-PVTZ AUX)
    Blend: AUG-CC-PVTZ-JKFIT

    Orbital Energies [Eh]
    ---------------------

    Doubly Occupied:

       1A    -15.554503     2A    -11.271536     3A    -11.244159
       4A    -11.222721     5A     -1.244607     6A     -0.990187
       7A     -0.910803     8A     -0.774850     9A     -0.648977
      10A     -0.609660    11A     -0.594689    12A     -0.557241
      13A     -0.538512    14A     -0.495710    15A     -0.415499
      16A     -0.406326

  @DF-RHF Final Energy:  -172.16096842680298

   => Energetics <=

    Nuclear Repulsion Energy =            118.1724829612301733
    One-Electron Energy =                -465.7069408581157290
    Two-Electron Energy =                 175.3734894700825748
    Total Energy =                       -172.1609684268029810
  Basis Set: (AUG-CC-PVTZ AUX)
    Blend: AUG-CC-PVTZ-RI
    Molecular point group: c1

    Geometry (in Angstrom), charge = 0, multiplicity = 1:

       Center              X                  Y                   Z               Mass
    ------------   -----------------  -----------------  -----------------  -----------------
         N           -0.469688072613    -0.469947119160    -0.000009569236    14.003074004430
         C            1.920752927387    -0.064345119160    -0.000015569236    12.000000000000
         C            0.395466727387     0.405521880840     0.000040930764    12.000000000000
         C           -1.819641072613     0.077449880840    -0.000008569236    12.000000000000
         H            2.443518927387     0.322673880840    -0.881137569236     1.007825032230
         H            2.443042927387     0.320779880840     0.882200430764     1.007825032230
         H            1.967136927387    -1.154254119160    -0.001116569236     1.007825032230
         H            0.307720927387     1.463663880840    -0.000030569236     1.007825032230
         H           -1.848822072613     1.177686880840    -0.000458569236     1.007825032230
         H           -2.349492072613    -0.292362119160     0.882312430764     1.007825032230
         H           -2.349771072613    -0.293094119160    -0.881836569236     1.007825032230

  Basis Set: AUG-CC-PVTZ
    Blend: AUG-CC-PVTZ
  Basis Set: (AUG-CC-PVTZ AUX)
    Blend: AUG-CC-PVTZ-JKFIT
	 Reference Energy          =    -172.1609684268029810 [Eh]
	 Singles Energy            =      -0.0000000000000000 [Eh]
	 Same-Spin Energy          =      -0.1749324787560454 [Eh]
	 Opposite-Spin Energy      =      -0.6253553809268180 [Eh]
	 Correlation Energy        =      -0.8002878596828633 [Eh]
	 Total Energy              =    -172.9612562864858489 [Eh]

	 ================> DF-SCS-MP2 Energies <==================
	-----------------------------------------------------------
	 SCS Same-Spin Scale       =       0.3333333333333333 [-]
	 SCS Opposite-Spin Scale   =       1.2000000000000000 [-]
	 SCS Same-Spin Energy      =      -0.0583108262520151 [Eh]
	 SCS Opposite-Spin Energy  =      -0.7504264571121816 [Eh]
	 SCS Correlation Energy    =      -0.8087372833641967 [Eh]
	 SCS Total Energy          =    -172.9697057101671760 [Eh]
	-----------------------------------------------------------

  Dipole Moment: [D]
     X:     0.0037      Y:     1.6148      Z:     0.0001     Total:     1.6148

*** Psi4 exiting successfully. Buy a developer a beer!
