                               Psi4 1.3.2 release

  ==> Input File <==

--------------------------------------------------------------------------
#psi4
#
memory 32 gb

molecule  {
0 1
  N       -0.4971380    -0.4884030    -0.0000080
  C        1.8933030    -0.0828010    -0.0000140
  C        0.5202607     0.2885485     0.0000372
  C       -1.8470910     0.0589940    -0.0000070
  H        2.4160690     0.3042180    -0.8811360
  H        2.4155930     0.3023240     0.8822020
  H        1.9396870    -1.1727100    -0.0011150
  H        0.2802710     1.4452080    -0.0000290
  H       -1.8762720     1.1592310    -0.0004570
  H       -2.3769420    -0.3108180     0.8823140
  H       -2.3772210    -0.3115500    -0.8818350
units angstrom
no_reorient  #important for SAPT in psi4, default
symmetry c1  #important for SAPT in psi4, default
}

set PROPERTIES_ORIGIN ["COM"]
properties('MP2/aug-cc-pvtz', properties = ['dipole'])
--------------------------------------------------------------------------

    Molecular point group: c1
  Charge       = 0
  Multiplicity = 1
  Basis Set: AUG-CC-PVTZ
    Blend: AUG-CC-PVTZ
  Basis Set: (AUG-CC-PVTZ AUX)
    Blend: AUG-CC-PVTZ-JKFIT

    Orbital Energies [Eh]
    ---------------------

    Doubly Occupied:

       1A    -15.553943     2A    -11.281058     3A    -11.245266
       4A    -11.225493     5A     -1.218198     6A     -1.029362
       7A     -0.915669     8A     -0.744178     9A     -0.648659
      10A     -0.618261    11A     -0.599212    12A     -0.570072
      13A     -0.542158    14A     -0.514933    15A     -0.395869
      16A     -0.392706

  @DF-RHF Final Energy:  -172.15933034129810

   => Energetics <=

    Nuclear Repulsion Energy =            118.2733739198143468
    One-Electron Energy =                -465.8753346764399907
    Two-Electron Energy =                 175.4426304153275566
    Total Energy =                       -172.1593303412981015
  Basis Set: (AUG-CC-PVTZ AUX)
    Blend: AUG-CC-PVTZ-RI
    Molecular point group: c1

    Geometry (in Angstrom), charge = 0, multiplicity = 1:

       Center              X                  Y                   Z               Mass
    ------------   -----------------  -----------------  -----------------  -----------------
         N           -0.501706924089    -0.449227621037    -0.000008454577    14.003074004430
         C            1.888734075911    -0.043625621037    -0.000014454577    12.000000000000
         C            0.515691775911     0.327723878963     0.000036745423    12.000000000000
         C           -1.851659924089     0.098169378963    -0.000007454577    12.000000000000
         H            2.411500075911     0.343393378963    -0.881136454577     1.007825032230
         H            2.411024075911     0.341499378963     0.882201545423     1.007825032230
         H            1.935118075911    -1.133534621037    -0.001115454577     1.007825032230
         H            0.275702075911     1.484383378963    -0.000029454577     1.007825032230
         H           -1.880840924089     1.198406378963    -0.000457454577     1.007825032230
         H           -2.381510924089    -0.271642621037     0.882313545423     1.007825032230
         H           -2.381789924089    -0.272374621037    -0.881835454577     1.007825032230

  Basis Set: AUG-CC-PVTZ
    Blend: AUG-CC-PVTZ
  Basis Set: (AUG-CC-PVTZ AUX)
    Blend: AUG-CC-PVTZ-JKFIT
	 Reference Energy          =    -172.1593303412981015 [Eh]
	 Singles Energy            =      -0.0000000000000000 [Eh]
	 Same-Spin Energy          =      -0.1770255162465204 [Eh]
	 Opposite-Spin Energy      =      -0.6276752475289590 [Eh]
	 Correlation Energy        =      -0.8047007637754794 [Eh]
	 Total Energy              =    -172.9640311050735875 [Eh]

	 ================> DF-SCS-MP2 Energies <==================
	-----------------------------------------------------------
	 SCS Same-Spin Scale       =       0.3333333333333333 [-]
	 SCS Opposite-Spin Scale   =       1.2000000000000000 [-]
	 SCS Same-Spin Energy      =      -0.0590085054155068 [Eh]
	 SCS Opposite-Spin Energy  =      -0.7532102970347507 [Eh]
	 SCS Correlation Energy    =      -0.8122188024502576 [Eh]
	 SCS Total Energy          =    -172.9715491437483479 [Eh]
	-----------------------------------------------------------

  Dipole Moment: [D]
     X:     0.5010      Y:     1.3713      Z:     0.0002     Total:     1.4600

*** Psi4 exiting successfully. Buy a developer a beer!
