                               Psi4 1.3.2 release

  ==> Input File <==

--------------------------------------------------------------------------
#psi4
#
memory 32 gb

molecule  {
0 1
  N       -0.4622419    -0.3929016    -0.0000534
  C        1.8933030    -0.0828010    -0.0000140
  C        0.4635850     0.3576260     0.0000390
  C       -1.8470910     0.0589940    -0.0000070
  H        2.4160690     0.3042180    -0.8811360
  H        2.4155930     0.3023240     0.8822020
  H        1.9396870    -1.1727100    -0.0011150
  H        0.2802710     1.4452080    -0.0000290
  H       -1.8762720     1.1592310    -0.0004570
  H       -2.3769420    -0.3108180     0.8823140
  H       -2.3772210    -0.3115500    -0.8818350
units angstrom
no_reorient  #important for SAPT in psi4, default
symmetry c1  #important for SAPT in psi4, default
}

set PROPERTIES_ORIGIN ["COM"]
properties('MP2/aug-cc-pvtz', properties = ['dipole'])
--------------------------------------------------------------------------

    Molecular point group: c1
  Charge       = 0
  Multiplicity = 1
  Basis Set: AUG-CC-PVTZ
    Blend: AUG-CC-PVTZ
  Basis Set: (AUG-CC-PVTZ AUX)
    Blend: AUG-CC-PVTZ-JKFIT

    Orbital Energies [Eh]
    ---------------------

    Doubly Occupied:

       1A    -15.539093     2A    -11.260360     3A    -11.248356
       4A    -11.221374     5A     -1.251599     6A     -1.008499
       7A     -0.924579     8A     -0.751268     9A     -0.657563
      10A     -0.615544    11A     -0.599367    12A     -0.564470
      13A     -0.542247    14A     -0.520198    15A     -0.422314
      16A     -0.381730

  @DF-RHF Final Energy:  -172.16532685726378

   => Energetics <=

    Nuclear Repulsion Energy =            119.5054023188870929
    One-Electron Energy =                -468.3243378012538756
    Two-Electron Energy =                 176.6536086251030042
    Total Energy =                       -172.1653268572637785
  Basis Set: (AUG-CC-PVTZ AUX)
    Blend: AUG-CC-PVTZ-RI
    Molecular point group: c1

    Geometry (in Angstrom), charge = 0, multiplicity = 1:

       Center              X                  Y                   Z               Mass
    ------------   -----------------  -----------------  -----------------  -----------------
         N           -0.463455357105    -0.391691955830    -0.000043091123    14.003074004430
         C            1.892089542895    -0.081591355830    -0.000003691123    12.000000000000
         C            0.462371542895     0.358835644170     0.000049308877    12.000000000000
         C           -1.848304457105     0.060203644170     0.000003308877    12.000000000000
         H            2.414855542895     0.305427644170    -0.881125691123     1.007825032230
         H            2.414379542895     0.303533644170     0.882212308877     1.007825032230
         H            1.938473542895    -1.171500355830    -0.001104691123     1.007825032230
         H            0.279057542895     1.446417644170    -0.000018691123     1.007825032230
         H           -1.877485457105     1.160440644170    -0.000446691123     1.007825032230
         H           -2.378155457105    -0.309608355830     0.882324308877     1.007825032230
         H           -2.378434457105    -0.310340355830    -0.881824691123     1.007825032230

  Basis Set: AUG-CC-PVTZ
    Blend: AUG-CC-PVTZ
  Basis Set: (AUG-CC-PVTZ AUX)
    Blend: AUG-CC-PVTZ-JKFIT
	 Reference Energy          =    -172.1653268572637785 [Eh]
	 Singles Energy            =      -0.0000000000000000 [Eh]
	 Same-Spin Energy          =      -0.1747372350749681 [Eh]
	 Opposite-Spin Energy      =      -0.6225346311206112 [Eh]
	 Correlation Energy        =      -0.7972718661955793 [Eh]
	 Total Energy              =    -172.9625987234593651 [Eh]

	 ================> DF-SCS-MP2 Energies <==================
	-----------------------------------------------------------
	 SCS Same-Spin Scale       =       0.3333333333333333 [-]
	 SCS Opposite-Spin Scale   =       1.2000000000000000 [-]
	 SCS Same-Spin Energy      =      -0.0582457450249894 [Eh]
	 SCS Opposite-Spin Energy  =      -0.7470415573447334 [Eh]
	 SCS Correlation Energy    =      -0.8052873023697228 [Eh]
	 SCS Total Energy          =    -172.9706141596334987 [Eh]
	-----------------------------------------------------------

  Dipole Moment: [D]
     X:     0.1105      Y:     1.2648      Z:     0.0002     Total:     1.2696

*** Psi4 exiting successfully. Buy a developer a beer!
