                               Psi4 1.3.2 release

  ==> Input File <==

--------------------------------------------------------------------------
#psi4
#
memory 32 gb

molecule  {
0 1
  N       -0.4971380    -0.4884030    -0.0000080
  C        1.8933030    -0.0828010    -0.0000140
  C        0.4635850     0.3576260     0.0000390
  C       -1.8328096    -0.1055831     0.3552592
  H        2.4160690     0.3042180    -0.8811360
  H        2.4155930     0.3023240     0.8822020
  H        1.9396870    -1.1727100    -0.0011150
  H        0.2802710     1.4452080    -0.0000290
  H       -1.8762720     1.1592310    -0.0004570
  H       -2.3769420    -0.3108180     0.8823140
  H       -2.3772210    -0.3115500    -0.8818350
units angstrom
no_reorient  #important for SAPT in psi4, default
symmetry c1  #important for SAPT in psi4, default
}

set PROPERTIES_ORIGIN ["COM"]
properties('MP2/aug-cc-pvtz', properties = ['dipole'])
--------------------------------------------------------------------------

    Molecular point group: c1
  Charge       = 0
  Multiplicity = 1
  Basis Set: AUG-CC-PVTZ
    Blend: AUG-CC-PVTZ
  Basis Set: (AUG-CC-PVTZ AUX)
    Blend: AUG-CC-PVTZ-JKFIT

    Orbital Energies [Eh]
    ---------------------

    Doubly Occupied:

       1A    -15.564585     2A    -11.287269     3A    -11.271721
       4A    -11.230530     5A     -1.228156     6A     -1.023022
       7A     -0.944869     8A     -0.782169     9A     -0.708353
      10A     -0.598658    11A     -0.589016    12A     -0.570492
      13A     -0.537047    14A     -0.490701    15A     -0.379354
      16A     -0.375403

  @DF-RHF Final Energy:  -171.96548427109656

   => Energetics <=

    Nuclear Repulsion Energy =            118.0480962853660571
    One-Electron Energy =                -464.8644721536880979
    Two-Electron Energy =                 174.8508915972254840
    Total Energy =                       -171.9654842710965568
  Basis Set: (AUG-CC-PVTZ AUX)
    Blend: AUG-CC-PVTZ-RI
    Molecular point group: c1

    Geometry (in Angstrom), charge = 0, multiplicity = 1:

       Center              X                  Y                   Z               Mass
    ------------   -----------------  -----------------  -----------------  -----------------
         N           -0.492790857204    -0.429142826124    -0.074725887105    14.003074004430
         C            1.897650142796    -0.023540826124    -0.074731887105    12.000000000000
         C            0.467932142796     0.416886173876    -0.074678887105    12.000000000000
         C           -1.828462457204    -0.046322926124     0.280541312895    12.000000000000
         H            2.420416142796     0.363478173876    -0.955853887105     1.007825032230
         H            2.419940142796     0.361584173876     0.807484112895     1.007825032230
         H            1.944034142796    -1.113449826124    -0.075832887105     1.007825032230
         H            0.284618142796     1.504468173876    -0.074746887105     1.007825032230
         H           -1.871924857204     1.218491173876    -0.075174887105     1.007825032230
         H           -2.372594857204    -0.251557826124     0.807596112895     1.007825032230
         H           -2.372873857204    -0.252289826124    -0.956552887105     1.007825032230

  Basis Set: AUG-CC-PVTZ
    Blend: AUG-CC-PVTZ
  Basis Set: (AUG-CC-PVTZ AUX)
    Blend: AUG-CC-PVTZ-JKFIT
	 Reference Energy          =    -171.9654842710965568 [Eh]
	 Singles Energy            =      -0.0000000000000000 [Eh]
	 Same-Spin Energy          =      -0.1789446560573308 [Eh]
	 Opposite-Spin Energy      =      -0.6353115722974034 [Eh]
	 Correlation Energy        =      -0.8142562283547342 [Eh]
	 Total Energy              =    -172.7797404994512931 [Eh]

	 ================> DF-SCS-MP2 Energies <==================
	-----------------------------------------------------------
	 SCS Same-Spin Scale       =       0.3333333333333333 [-]
	 SCS Opposite-Spin Scale   =       1.2000000000000000 [-]
	 SCS Same-Spin Energy      =      -0.0596482186857769 [Eh]
	 SCS Opposite-Spin Energy  =      -0.7623738867568841 [Eh]
	 SCS Correlation Energy    =      -0.8220221054426611 [Eh]
	 SCS Total Energy          =    -172.7875063765392269 [Eh]
	-----------------------------------------------------------

  Dipole Moment: [D]
     X:     0.6675      Y:     1.2178      Z:     0.2523     Total:     1.4115

*** Psi4 exiting successfully. Buy a developer a beer!
