                               Psi4 1.3.2 release

  ==> Input File <==

--------------------------------------------------------------------------
#psi4
#
memory 32 gb

molecule  {
0 1
  N       -0.5068970    -0.5118796     0.0000034
  C        1.8933030    -0.0828010    -0.0000140
  C        0.4635850     0.3576260     0.0000390
  C       -1.8470910     0.0589940    -0.0000070
  H        2.4160690     0.3042180    -0.8811360
  H        2.4155930     0.3023240     0.8822020
  H        1.9396870    -1.1727100    -0.0011150
  H        0.2802710     1.4452080    -0.0000290
  H       -1.8762720     1.1592310    -0.0004570
  H       -2.3769420    -0.3108180     0.8823140
  H       -2.3772210    -0.3115500    -0.8818350
units angstrom
no_reorient  #important for SAPT in psi4, default
symmetry c1  #important for SAPT in psi4, default
}

set PROPERTIES_ORIGIN ["COM"]
properties('MP2/aug-cc-pvtz', properties = ['dipole'])
--------------------------------------------------------------------------

    Molecular point group: c1
  Charge       = 0
  Multiplicity = 1
  Basis Set: AUG-CC-PVTZ
    Blend: AUG-CC-PVTZ
  Basis Set: (AUG-CC-PVTZ AUX)
    Blend: AUG-CC-PVTZ-JKFIT

    Orbital Energies [Eh]
    ---------------------

    Doubly Occupied:

       1A    -15.560090     2A    -11.281231     3A    -11.242307
       4A    -11.226102     5A     -1.213386     6A     -1.011189
       7A     -0.906340     8A     -0.764722     9A     -0.643865
      10A     -0.609872    11A     -0.592347    12A     -0.565565
      13A     -0.536873    14A     -0.509902    15A     -0.410150
      16A     -0.391889

  @DF-RHF Final Energy:  -172.16553052263589

   => Energetics <=

    Nuclear Repulsion Energy =            117.5086162052622285
    One-Electron Energy =                -464.4166372421668143
    Two-Electron Energy =                 174.7424905142686953
    Total Energy =                       -172.1655305226358905
  Basis Set: (AUG-CC-PVTZ AUX)
    Blend: AUG-CC-PVTZ-RI
    Molecular point group: c1

    Geometry (in Angstrom), charge = 0, multiplicity = 1:

       Center              X                  Y                   Z               Mass
    ------------   -----------------  -----------------  -----------------  -----------------
         N           -0.497151252045    -0.481470507176    -0.000000230916    14.003074004430
         C            1.903048747955    -0.052391907176    -0.000017630916    12.000000000000
         C            0.473330747955     0.388035092824     0.000035369084    12.000000000000
         C           -1.837345252045     0.089403092824    -0.000010630916    12.000000000000
         H            2.425814747955     0.334627092824    -0.881139630916     1.007825032230
         H            2.425338747955     0.332733092824     0.882198369084     1.007825032230
         H            1.949432747955    -1.142300907176    -0.001118630916     1.007825032230
         H            0.290016747955     1.475617092824    -0.000032630916     1.007825032230
         H           -1.866526252045     1.189640092824    -0.000460630916     1.007825032230
         H           -2.367196252045    -0.280408907176     0.882310369084     1.007825032230
         H           -2.367475252045    -0.281140907176    -0.881838630916     1.007825032230

  Basis Set: AUG-CC-PVTZ
    Blend: AUG-CC-PVTZ
  Basis Set: (AUG-CC-PVTZ AUX)
    Blend: AUG-CC-PVTZ-JKFIT
	 Reference Energy          =    -172.1655305226358905 [Eh]
	 Singles Energy            =      -0.0000000000000000 [Eh]
	 Same-Spin Energy          =      -0.1765803886138975 [Eh]
	 Opposite-Spin Energy      =      -0.6284125827833884 [Eh]
	 Correlation Energy        =      -0.8049929713972859 [Eh]
	 Total Energy              =    -172.9705234940331877 [Eh]

	 ================> DF-SCS-MP2 Energies <==================
	-----------------------------------------------------------
	 SCS Same-Spin Scale       =       0.3333333333333333 [-]
	 SCS Opposite-Spin Scale   =       1.2000000000000000 [-]
	 SCS Same-Spin Energy      =      -0.0588601295379658 [Eh]
	 SCS Opposite-Spin Energy  =      -0.7540950993400660 [Eh]
	 SCS Correlation Energy    =      -0.8129552288780318 [Eh]
	 SCS Total Energy          =    -172.9784857515139151 [Eh]
	-----------------------------------------------------------

  Dipole Moment: [D]
     X:     0.3629      Y:     1.6083      Z:     0.0001     Total:     1.6487

*** Psi4 exiting successfully. Buy a developer a beer!
