                               Psi4 1.3.2 release

  ==> Input File <==

--------------------------------------------------------------------------
#psi4
#
memory 32 gb

molecule  {
0 1
  N       -0.4971380    -0.4884030    -0.0000080
  C        1.8933030    -0.0828010    -0.0000140
  C        0.4635850     0.3576260     0.0000390
  C       -1.8427395     0.1135965    -0.1186217
  H        2.4160690     0.3042180    -0.8811360
  H        2.4155930     0.3023240     0.8822020
  H        1.9396870    -1.1727100    -0.0011150
  H        0.2802710     1.4452080    -0.0000290
  H       -1.8762720     1.1592310    -0.0004570
  H       -2.3769420    -0.3108180     0.8823140
  H       -2.3772210    -0.3115500    -0.8818350
units angstrom
no_reorient  #important for SAPT in psi4, default
symmetry c1  #important for SAPT in psi4, default
}

set PROPERTIES_ORIGIN ["COM"]
properties('MP2/aug-cc-pvtz', properties = ['dipole'])
--------------------------------------------------------------------------

    Molecular point group: c1
  Charge       = 0
  Multiplicity = 1
  Basis Set: AUG-CC-PVTZ
    Blend: AUG-CC-PVTZ
  Basis Set: (AUG-CC-PVTZ AUX)
    Blend: AUG-CC-PVTZ-JKFIT

    Orbital Energies [Eh]
    ---------------------

    Doubly Occupied:

       1A    -15.558587     2A    -11.276031     3A    -11.245067
       4A    -11.225063     5A     -1.218874     6A     -1.009057
       7A     -0.912186     8A     -0.763529     9A     -0.645933
      10A     -0.627695    11A     -0.585372    12A     -0.561112
      13A     -0.536554    14A     -0.507038    15A     -0.410390
      16A     -0.391443

  @DF-RHF Final Energy:  -172.15182450550842

   => Energetics <=

    Nuclear Repulsion Energy =            117.7551791352815371
    One-Electron Energy =                -464.8661452917938846
    Two-Electron Energy =                 174.9591416510039323
    Total Energy =                       -172.1518245055084151
  Basis Set: (AUG-CC-PVTZ AUX)
    Blend: AUG-CC-PVTZ-RI
    Molecular point group: c1

    Geometry (in Angstrom), charge = 0, multiplicity = 1:

       Center              X                  Y                   Z               Mass
    ------------   -----------------  -----------------  -----------------  -----------------
         N           -0.490702471441    -0.475239116739     0.024937364783    14.003074004430
         C            1.899738528559    -0.069637116739     0.024931364783    12.000000000000
         C            0.470020528559     0.370789883261     0.024984364783    12.000000000000
         C           -1.836303971441     0.126760383261    -0.093676335217    12.000000000000
         H            2.422504528559     0.317381883261    -0.856190635217     1.007825032230
         H            2.422028528559     0.315487883261     0.907147364783     1.007825032230
         H            1.946122528559    -1.159546116739     0.023830364783     1.007825032230
         H            0.286706528559     1.458371883261     0.024916364783     1.007825032230
         H           -1.869836471441     1.172394883261     0.024488364783     1.007825032230
         H           -2.370506471441    -0.297654116739     0.907259364783     1.007825032230
         H           -2.370785471441    -0.298386116739    -0.856889635217     1.007825032230

  Basis Set: AUG-CC-PVTZ
    Blend: AUG-CC-PVTZ
  Basis Set: (AUG-CC-PVTZ AUX)
    Blend: AUG-CC-PVTZ-JKFIT
	 Reference Energy          =    -172.1518245055084151 [Eh]
	 Singles Energy            =      -0.0000000000000000 [Eh]
	 Same-Spin Energy          =      -0.1763188591349290 [Eh]
	 Opposite-Spin Energy      =      -0.6280656185212545 [Eh]
	 Correlation Energy        =      -0.8043844776561835 [Eh]
	 Total Energy              =    -172.9562089831646006 [Eh]

	 ================> DF-SCS-MP2 Energies <==================
	-----------------------------------------------------------
	 SCS Same-Spin Scale       =       0.3333333333333333 [-]
	 SCS Opposite-Spin Scale   =       1.2000000000000000 [-]
	 SCS Same-Spin Energy      =      -0.0587729530449763 [Eh]
	 SCS Opposite-Spin Energy  =      -0.7536787422255055 [Eh]
	 SCS Correlation Energy    =      -0.8124516952704818 [Eh]
	 SCS Total Energy          =    -172.9642762007788974 [Eh]
	-----------------------------------------------------------

  Dipole Moment: [D]
     X:     0.3445      Y:     1.6277      Z:    -0.1160     Total:     1.6678

*** Psi4 exiting successfully. Buy a developer a beer!
