                               Psi4 1.3.2 release

  ==> Input File <==

--------------------------------------------------------------------------
#psi4
#
memory 32 gb

molecule  {
0 1
  N       -0.4670268    -0.5214164    -0.0000108
  C        1.8933030    -0.0828010    -0.0000140
  C        0.4635850     0.3576260     0.0000390
  C       -1.8470910     0.0589940    -0.0000070
  H        2.4160690     0.3042180    -0.8811360
  H        2.4155930     0.3023240     0.8822020
  H        1.9396870    -1.1727100    -0.0011150
  H        0.2802710     1.4452080    -0.0000290
  H       -1.8762720     1.1592310    -0.0004570
  H       -2.3769420    -0.3108180     0.8823140
  H       -2.3772210    -0.3115500    -0.8818350
units angstrom
no_reorient  #important for SAPT in psi4, default
symmetry c1  #important for SAPT in psi4, default
}

set PROPERTIES_ORIGIN ["COM"]
properties('MP2/aug-cc-pvtz', properties = ['dipole'])
--------------------------------------------------------------------------

    Molecular point group: c1
  Charge       = 0
  Multiplicity = 1
  Basis Set: AUG-CC-PVTZ
    Blend: AUG-CC-PVTZ
  Basis Set: (AUG-CC-PVTZ AUX)
    Blend: AUG-CC-PVTZ-JKFIT

    Orbital Energies [Eh]
    ---------------------

    Doubly Occupied:

       1A    -15.559544     2A    -11.276746     3A    -11.245560
       4A    -11.223378     5A     -1.215661     6A     -1.005890
       7A     -0.908255     8A     -0.763220     9A     -0.642092
      10A     -0.606838    11A     -0.590621    12A     -0.563716
      13A     -0.535072    14A     -0.509184    15A     -0.409672
      16A     -0.400000

  @DF-RHF Final Energy:  -172.16623910601743

   => Energetics <=

    Nuclear Repulsion Energy =            117.5105877124135674
    One-Electron Energy =                -464.4427544536680443
    Two-Electron Energy =                 174.7659276352370625
    Total Energy =                       -172.1662391060174286
  Basis Set: (AUG-CC-PVTZ AUX)
    Blend: AUG-CC-PVTZ-RI
    Molecular point group: c1

    Geometry (in Angstrom), charge = 0, multiplicity = 1:

       Center              X                  Y                   Z               Mass
    ------------   -----------------  -----------------  -----------------  -----------------
         N           -0.467065952260    -0.488666796310    -0.000010945968    14.003074004430
         C            1.893263847740    -0.050051396310    -0.000014145968    12.000000000000
         C            0.463545847740     0.390375603690     0.000038854032    12.000000000000
         C           -1.847130152260     0.091743603690    -0.000007145968    12.000000000000
         H            2.416029847740     0.336967603690    -0.881136145968     1.007825032230
         H            2.415553847740     0.335073603690     0.882201854032     1.007825032230
         H            1.939647847740    -1.139960396310    -0.001115145968     1.007825032230
         H            0.280231847740     1.477957603690    -0.000029145968     1.007825032230
         H           -1.876311152260     1.191980603690    -0.000457145968     1.007825032230
         H           -2.376981152260    -0.278068396310     0.882313854032     1.007825032230
         H           -2.377260152260    -0.278800396310    -0.881835145968     1.007825032230

  Basis Set: AUG-CC-PVTZ
    Blend: AUG-CC-PVTZ
  Basis Set: (AUG-CC-PVTZ AUX)
    Blend: AUG-CC-PVTZ-JKFIT
	 Reference Energy          =    -172.1662391060174286 [Eh]
	 Singles Energy            =      -0.0000000000000000 [Eh]
	 Same-Spin Energy          =      -0.1761103305783202 [Eh]
	 Opposite-Spin Energy      =      -0.6278034664704091 [Eh]
	 Correlation Energy        =      -0.8039137970487292 [Eh]
	 Total Energy              =    -172.9701529030661504 [Eh]

	 ================> DF-SCS-MP2 Energies <==================
	-----------------------------------------------------------
	 SCS Same-Spin Scale       =       0.3333333333333333 [-]
	 SCS Opposite-Spin Scale   =       1.2000000000000000 [-]
	 SCS Same-Spin Energy      =      -0.0587034435261067 [Eh]
	 SCS Opposite-Spin Energy  =      -0.7533641597644909 [Eh]
	 SCS Correlation Energy    =      -0.8120676032905976 [Eh]
	 SCS Total Energy          =    -172.9783067093080149 [Eh]
	-----------------------------------------------------------

  Dipole Moment: [D]
     X:     0.2652      Y:     1.6402      Z:     0.0001     Total:     1.6615

*** Psi4 exiting successfully. Buy a developer a beer!
