                               Psi4 1.3.2 release

  ==> Input File <==

--------------------------------------------------------------------------
#psi4
#
memory 32 gb

molecule  {
0 1
  N       -0.4971380    -0.4884030    -0.0000080
  C        1.8933030    -0.0828010    -0.0000140
  C        0.6136818     0.4898038     0.0000463
  C       -1.8470910     0.0589940    -0.0000070
  H        2.4160690     0.3042180    -0.8811360
  H        2.4155930     0.3023240     0.8822020
  H        1.9396870    -1.1727100    -0.0011150
  H        0.2802710     1.4452080    -0.0000290
  H       -1.8762720     1.1592310    -0.0004570
  H       -2.3769420    -0.3108180     0.8823140
  H       -2.3772210    -0.3115500    -0.8818350
units angstrom
no_reorient  #important for SAPT in psi4, default
symmetry c1  #important for SAPT in psi4, default
}

set PROPERTIES_ORIGIN ["COM"]
properties('MP2/aug-cc-pvtz', properties = ['dipole'])
--------------------------------------------------------------------------

    Molecular point group: c1
  Charge       = 0
  Multiplicity = 1
  Basis Set: AUG-CC-PVTZ
    Blend: AUG-CC-PVTZ
  Basis Set: (AUG-CC-PVTZ AUX)
    Blend: AUG-CC-PVTZ-JKFIT

    Orbital Energies [Eh]
    ---------------------

    Doubly Occupied:

       1A    -15.569310     2A    -11.292942     3A    -11.237660
       4A    -11.229690     5A     -1.164804     6A     -1.038804
       7A     -0.884219     8A     -0.791441     9A     -0.643568
      10A     -0.611285    11A     -0.595460    12A     -0.566788
      13A     -0.554702    14A     -0.502633    15A     -0.403375
      16A     -0.344564

  @DF-RHF Final Energy:  -172.10236516986100

   => Energetics <=

    Nuclear Repulsion Energy =            116.1396116348868048
    One-Electron Energy =                -461.6214620821123162
    Two-Electron Energy =                 173.3794852773644948
    Total Energy =                       -172.1023651698610024
  Basis Set: (AUG-CC-PVTZ AUX)
    Blend: AUG-CC-PVTZ-RI
    Molecular point group: c1

    Geometry (in Angstrom), charge = 0, multiplicity = 1:

       Center              X                  Y                   Z               Mass
    ------------   -----------------  -----------------  -----------------  -----------------
         N           -0.521354583703    -0.491554200686    -0.000010368424    14.003074004430
         C            1.869086416297    -0.085952200686    -0.000016368424    12.000000000000
         C            0.589465216297     0.486652599314     0.000043931576    12.000000000000
         C           -1.871307583703     0.055842799314    -0.000009368424    12.000000000000
         H            2.391852416297     0.301066799314    -0.881138368424     1.007825032230
         H            2.391376416297     0.299172799314     0.882199631576     1.007825032230
         H            1.915470416297    -1.175861200686    -0.001117368424     1.007825032230
         H            0.256054416297     1.442056799314    -0.000031368424     1.007825032230
         H           -1.900488583703     1.156079799314    -0.000459368424     1.007825032230
         H           -2.401158583703    -0.313969200686     0.882311631576     1.007825032230
         H           -2.401437583703    -0.314701200686    -0.881837368424     1.007825032230

  Basis Set: AUG-CC-PVTZ
    Blend: AUG-CC-PVTZ
  Basis Set: (AUG-CC-PVTZ AUX)
    Blend: AUG-CC-PVTZ-JKFIT
	 Reference Energy          =    -172.1023651698610024 [Eh]
	 Singles Energy            =      -0.0000000000000000 [Eh]
	 Same-Spin Energy          =      -0.1822337258963116 [Eh]
	 Opposite-Spin Energy      =      -0.6403787940219721 [Eh]
	 Correlation Energy        =      -0.8226125199182837 [Eh]
	 Total Energy              =    -172.9249776897792970 [Eh]

	 ================> DF-SCS-MP2 Energies <==================
	-----------------------------------------------------------
	 SCS Same-Spin Scale       =       0.3333333333333333 [-]
	 SCS Opposite-Spin Scale   =       1.2000000000000000 [-]
	 SCS Same-Spin Energy      =      -0.0607445752987705 [Eh]
	 SCS Opposite-Spin Energy  =      -0.7684545528263664 [Eh]
	 SCS Correlation Energy    =      -0.8291991281251370 [Eh]
	 SCS Total Energy          =    -172.9315642979861423 [Eh]
	-----------------------------------------------------------

  Dipole Moment: [D]
     X:     0.6195      Y:     1.7016      Z:     0.0001     Total:     1.8108

*** Psi4 exiting successfully. Buy a developer a beer!
