                               Psi4 1.4a3.dev225

  ==> Input File <==

--------------------------------------------------------------------------
#psi4
#
memory 32 gb

molecule  {
0 1
  N        0.4972020    -0.4883560    -0.0000030
  C       -1.8933690    -0.0828130     0.0000000
  C       -0.4786490     0.3708182     0.0000031
  C        1.8471220     0.0589730     0.0000010
  H       -2.4159140     0.3032330     0.8816800
  H       -2.4159290     0.3032900    -0.8816460
  H       -1.9397520    -1.1727070    -0.0000330
  H       -0.2803450     1.4451730    -0.0000110
  H        1.8763800     1.1592220     0.0000020
  H        2.3772280    -0.3111450    -0.8820540
  H        2.3772250    -0.3111470     0.8820570
units angstrom
no_reorient  #important for SAPT in psi4, default
symmetry c1  #important for SAPT in psi4, default
}

set PROPERTIES_ORIGIN ["COM"]
properties('MP2/aug-cc-pvtz', properties = ['dipole'])
--------------------------------------------------------------------------

    Molecular point group: c1
  Charge       = 0
  Multiplicity = 1
  Basis Set: AUG-CC-PVTZ
    Blend: AUG-CC-PVTZ
  Basis Set: (AUG-CC-PVTZ AUX)
    Blend: AUG-CC-PVTZ-JKFIT

    Orbital Energies [Eh]
    ---------------------

    Doubly Occupied:

       1A    -15.557713     2A    -11.278639     3A    -11.242601
       4A    -11.225594     5A     -1.213177     6A     -1.013282
       7A     -0.907279     8A     -0.765348     9A     -0.645420
      10A     -0.610261    11A     -0.592688    12A     -0.565894
      13A     -0.536965    14A     -0.514692    15A     -0.406065
      16A     -0.391778

  @DF-RHF Final Energy:  -172.16652398421181

   => Energetics <=

    Nuclear Repulsion Energy =            117.6893437304339187
    One-Electron Energy =                -464.7769454471439872
    Two-Electron Energy =                 174.9210777324982757
    Total Energy =                       -172.1665239842118069
  Basis Set: (AUG-CC-PVTZ AUX)
    Blend: AUG-CC-PVTZ-RI
    Molecular point group: c1

    Geometry (in Angstrom), charge = 0, multiplicity = 1:

       Center              X                  Y                   Z               Mass
    ------------   -----------------  -----------------  -----------------  -----------------
         N            0.493009724467    -0.466487874693    -0.000003037710    14.003074004430
         C           -1.897561275533    -0.060944874693    -0.000000037710    12.000000000000
         C           -0.482841275533     0.392686325307     0.000003062290    12.000000000000
         C            1.842929724467     0.080841125307     0.000000962290    12.000000000000
         H           -2.420106275533     0.325101125307     0.881679962290     1.007825032230
         H           -2.420121275533     0.325158125307    -0.881646037710     1.007825032230
         H           -1.943944275533    -1.150838874693    -0.000033037710     1.007825032230
         H           -0.284537275533     1.467041125307    -0.000011037710     1.007825032230
         H            1.872187724467     1.181090125307     0.000001962290     1.007825032230
         H            2.373035724467    -0.289276874693    -0.882054037710     1.007825032230
         H            2.373032724467    -0.289278874693     0.882056962290     1.007825032230

  Basis Set: AUG-CC-PVTZ
    Blend: AUG-CC-PVTZ
  Basis Set: (AUG-CC-PVTZ AUX)
    Blend: AUG-CC-PVTZ-JKFIT
	 Reference Energy          =    -172.1665239842118069 [Eh]
	 Singles Energy            =      -0.0000000000000000 [Eh]
	 Same-Spin Energy          =      -0.1765143166840434 [Eh]
	 Opposite-Spin Energy      =      -0.6280082569438284 [Eh]
	 Correlation Energy        =      -0.8045225736278718 [Eh]
	 Total Energy              =    -172.9710465578396850 [Eh]

	 ================> DF-SCS-MP2 Energies <==================
	-----------------------------------------------------------
	 SCS Same-Spin Scale       =       0.3333333333333333 [-]
	 SCS Opposite-Spin Scale   =       1.2000000000000000 [-]
	 SCS Same-Spin Energy      =      -0.0588381055613478 [Eh]
	 SCS Opposite-Spin Energy  =      -0.7536099083325941 [Eh]
	 SCS Correlation Energy    =      -0.8124480138939419 [Eh]
	 SCS Total Energy          =    -172.9789719981057488 [Eh]
	-----------------------------------------------------------

  Dipole Moment: [D]
     X:    -0.3650      Y:     1.5800      Z:     0.0000     Total:     1.6217

*** Psi4 exiting successfully. Buy a developer a beer!
