                               Psi4 1.4a3.dev225

  ==> Input File <==

--------------------------------------------------------------------------
#psi4
#
memory 32 gb

molecule  {
0 1
  N        0.4972020    -0.4883560    -0.0000030
  C       -1.8933690    -0.0828130     0.0000000
  C       -0.4636380     0.3576020     0.0000030
  C        1.8471220     0.0589730     0.0000010
  H       -2.4159140     0.3032330     0.8816800
  H       -2.4159290     0.3032900    -0.8816460
  H       -1.9397520    -1.1727070    -0.0000330
  H       -0.2770212     1.4648949    -0.0000113
  H        1.8763800     1.1592220     0.0000020
  H        2.3772280    -0.3111450    -0.8820540
  H        2.3772250    -0.3111470     0.8820570
units angstrom
no_reorient  #important for SAPT in psi4, default
symmetry c1  #important for SAPT in psi4, default
}

set PROPERTIES_ORIGIN ["COM"]
properties('MP2/aug-cc-pvtz', properties = ['dipole'])
--------------------------------------------------------------------------

    Molecular point group: c1
  Charge       = 0
  Multiplicity = 1
  Basis Set: AUG-CC-PVTZ
    Blend: AUG-CC-PVTZ
  Basis Set: (AUG-CC-PVTZ AUX)
    Blend: AUG-CC-PVTZ-JKFIT

    Orbital Energies [Eh]
    ---------------------

    Doubly Occupied:

       1A    -15.556318     2A    -11.279432     3A    -11.243400
       4A    -11.225583     5A     -1.220521     6A     -1.010467
       7A     -0.910242     8A     -0.758144     9A     -0.645230
      10A     -0.611107    11A     -0.593597    12A     -0.565465
      13A     -0.537201    14A     -0.511986    15A     -0.404714
      16A     -0.398020

  @DF-RHF Final Energy:  -172.16812772592525

   => Energetics <=

    Nuclear Repulsion Energy =            117.8122191881321186
    One-Electron Energy =                -465.0178379234679937
    Two-Electron Energy =                 175.0374910094106156
    Total Energy =                       -172.1681277259252454
  Basis Set: (AUG-CC-PVTZ AUX)
    Blend: AUG-CC-PVTZ-RI
    Molecular point group: c1

    Geometry (in Angstrom), charge = 0, multiplicity = 1:

       Center              X                  Y                   Z               Mass
    ------------   -----------------  -----------------  -----------------  -----------------
         N            0.489794008990    -0.464056689898    -0.000003011380    14.003074004430
         C           -1.900776991010    -0.058513689898    -0.000000011380    12.000000000000
         C           -0.471045991010     0.381901310102     0.000002988620    12.000000000000
         C            1.839714008990     0.083272310102     0.000000988620    12.000000000000
         H           -2.423321991010     0.327532310102     0.881679988620     1.007825032230
         H           -2.423336991010     0.327589310102    -0.881646011380     1.007825032230
         H           -1.947159991010    -1.148407689898    -0.000033011380     1.007825032230
         H           -0.284429191010     1.489194210102    -0.000011311380     1.007825032230
         H            1.868972008990     1.183521310102     0.000001988620     1.007825032230
         H            2.369820008990    -0.286845689898    -0.882054011380     1.007825032230
         H            2.369817008990    -0.286847689898     0.882056988620     1.007825032230

  Basis Set: AUG-CC-PVTZ
    Blend: AUG-CC-PVTZ
  Basis Set: (AUG-CC-PVTZ AUX)
    Blend: AUG-CC-PVTZ-JKFIT
	 Reference Energy          =    -172.1681277259252454 [Eh]
	 Singles Energy            =      -0.0000000000000000 [Eh]
	 Same-Spin Energy          =      -0.1761676189642949 [Eh]
	 Opposite-Spin Energy      =      -0.6271673515586591 [Eh]
	 Correlation Energy        =      -0.8033349705229540 [Eh]
	 Total Energy              =    -172.9714626964482136 [Eh]

	 ================> DF-SCS-MP2 Energies <==================
	-----------------------------------------------------------
	 SCS Same-Spin Scale       =       0.3333333333333333 [-]
	 SCS Opposite-Spin Scale   =       1.2000000000000000 [-]
	 SCS Same-Spin Energy      =      -0.0587225396547650 [Eh]
	 SCS Opposite-Spin Energy  =      -0.7526008218703909 [Eh]
	 SCS Correlation Energy    =      -0.8113233615251558 [Eh]
	 SCS Total Energy          =    -172.9794510874503999 [Eh]
	-----------------------------------------------------------

  Dipole Moment: [D]
     X:    -0.3228      Y:     1.5292      Z:     0.0000     Total:     1.5629

*** Psi4 exiting successfully. Buy a developer a beer!
