                               Psi4 1.4a3.dev225

  ==> Input File <==

--------------------------------------------------------------------------
#psi4
#
memory 32 gb

molecule  {
0 1
  N        0.4972020    -0.4883560    -0.0000030
  C       -1.8933690    -0.0828130     0.0000000
  C       -0.4636380     0.3576020     0.0000030
  C        1.8471220     0.0589730     0.0000010
  H       -2.4159140     0.3032330     0.8816800
  H       -2.4159290     0.3032900    -0.8816460
  H       -1.9397520    -1.1727070    -0.0000330
  H       -0.2720355     1.4944777    -0.0000116
  H        1.8763800     1.1592220     0.0000020
  H        2.3772280    -0.3111450    -0.8820540
  H        2.3772250    -0.3111470     0.8820570
units angstrom
no_reorient  #important for SAPT in psi4, default
symmetry c1  #important for SAPT in psi4, default
}

set PROPERTIES_ORIGIN ["COM"]
properties('MP2/aug-cc-pvtz', properties = ['dipole'])
--------------------------------------------------------------------------

    Molecular point group: c1
  Charge       = 0
  Multiplicity = 1
  Basis Set: AUG-CC-PVTZ
    Blend: AUG-CC-PVTZ
  Basis Set: (AUG-CC-PVTZ AUX)
    Blend: AUG-CC-PVTZ-JKFIT

    Orbital Energies [Eh]
    ---------------------

    Doubly Occupied:

       1A    -15.556898     2A    -11.282922     3A    -11.243550
       4A    -11.226162     5A     -1.220588     6A     -1.010422
       7A     -0.910492     8A     -0.752733     9A     -0.643563
      10A     -0.611290    11A     -0.593837    12A     -0.565689
      13A     -0.536829    14A     -0.510935    15A     -0.404417
      16A     -0.398411

  @DF-RHF Final Energy:  -172.16638231001940

   => Energetics <=

    Nuclear Repulsion Energy =            117.6908603018222550
    One-Electron Energy =                -464.7770114218881190
    Two-Electron Energy =                 174.9197688100464916
    Total Energy =                       -172.1663823100194008
  Basis Set: (AUG-CC-PVTZ AUX)
    Blend: AUG-CC-PVTZ-RI
    Molecular point group: c1

    Geometry (in Angstrom), charge = 0, multiplicity = 1:

       Center              X                  Y                   Z               Mass
    ------------   -----------------  -----------------  -----------------  -----------------
         N            0.489705945501    -0.464579217241    -0.000003006081    14.003074004430
         C           -1.900865054499    -0.059036217241    -0.000000006081    12.000000000000
         C           -0.471134054499     0.381378782759     0.000002993919    12.000000000000
         C            1.839625945501     0.082749782759     0.000000993919    12.000000000000
         H           -2.423410054499     0.327009782759     0.881679993919     1.007825032230
         H           -2.423425054499     0.327066782759    -0.881646006081     1.007825032230
         H           -1.947248054499    -1.148930217241    -0.000033006081     1.007825032230
         H           -0.279531554499     1.518254482759    -0.000011606081     1.007825032230
         H            1.868883945501     1.182998782759     0.000001993919     1.007825032230
         H            2.369731945501    -0.287368217241    -0.882054006081     1.007825032230
         H            2.369728945501    -0.287370217241     0.882056993919     1.007825032230

  Basis Set: AUG-CC-PVTZ
    Blend: AUG-CC-PVTZ
  Basis Set: (AUG-CC-PVTZ AUX)
    Blend: AUG-CC-PVTZ-JKFIT
	 Reference Energy          =    -172.1663823100194008 [Eh]
	 Singles Energy            =      -0.0000000000000000 [Eh]
	 Same-Spin Energy          =      -0.1762872666009644 [Eh]
	 Opposite-Spin Energy      =      -0.6274347991039148 [Eh]
	 Correlation Energy        =      -0.8037220657048791 [Eh]
	 Total Energy              =    -172.9701043757242758 [Eh]

	 ================> DF-SCS-MP2 Energies <==================
	-----------------------------------------------------------
	 SCS Same-Spin Scale       =       0.3333333333333333 [-]
	 SCS Opposite-Spin Scale   =       1.2000000000000000 [-]
	 SCS Same-Spin Energy      =      -0.0587624222003214 [Eh]
	 SCS Opposite-Spin Energy  =      -0.7529217589246977 [Eh]
	 SCS Correlation Energy    =      -0.8116841811250192 [Eh]
	 SCS Total Energy          =    -172.9780664911444319 [Eh]
	-----------------------------------------------------------

  Dipole Moment: [D]
     X:    -0.3247      Y:     1.4935      Z:     0.0000     Total:     1.5284

*** Psi4 exiting successfully. Buy a developer a beer!
