                               Psi4 1.3.2 release

  ==> Input File <==

--------------------------------------------------------------------------
#psi4
#
memory 32 gb

molecule  {
0 1
  N       -0.5538137    -0.4193255    -0.0000164
  C        1.8933030    -0.0828010    -0.0000140
  C        0.4635850     0.3576260     0.0000390
  C       -1.8470910     0.0589940    -0.0000070
  H        2.4160690     0.3042180    -0.8811360
  H        2.4155930     0.3023240     0.8822020
  H        1.9396870    -1.1727100    -0.0011150
  H        0.2802710     1.4452080    -0.0000290
  H       -1.8762720     1.1592310    -0.0004570
  H       -2.3769420    -0.3108180     0.8823140
  H       -2.3772210    -0.3115500    -0.8818350
units angstrom
no_reorient  #important for SAPT in psi4, default
symmetry c1  #important for SAPT in psi4, default
}

set PROPERTIES_ORIGIN ["COM"]
properties('MP2/aug-cc-pvtz', properties = ['dipole'])
--------------------------------------------------------------------------

    Molecular point group: c1
  Charge       = 0
  Multiplicity = 1
  Basis Set: AUG-CC-PVTZ
    Blend: AUG-CC-PVTZ
  Basis Set: (AUG-CC-PVTZ AUX)
    Blend: AUG-CC-PVTZ-JKFIT

    Orbital Energies [Eh]
    ---------------------

    Doubly Occupied:

       1A    -15.548856     2A    -11.278400     3A    -11.238761
       4A    -11.229017     5A     -1.232889     6A     -1.020051
       7A     -0.915104     8A     -0.759788     9A     -0.654861
      10A     -0.619950    11A     -0.600383    12A     -0.568777
      13A     -0.544780    14A     -0.518323    15A     -0.393140
      16A     -0.390877

  @DF-RHF Final Energy:  -172.16528712271477

   => Energetics <=

    Nuclear Repulsion Energy =            118.7299044832853951
    One-Electron Energy =                -466.7624707999297016
    Two-Electron Energy =                 175.8672791939295337
    Total Energy =                       -172.1652871227147727
  Basis Set: (AUG-CC-PVTZ AUX)
    Blend: AUG-CC-PVTZ-RI
    Molecular point group: c1

    Geometry (in Angstrom), charge = 0, multiplicity = 1:

       Center              X                  Y                   Z               Mass
    ------------   -----------------  -----------------  -----------------  -----------------
         N           -0.532553707625    -0.411630931632    -0.000015171622    14.003074004430
         C            1.914562992375    -0.075106431632    -0.000012771622    12.000000000000
         C            0.484844992375     0.365320568368     0.000040228378    12.000000000000
         C           -1.825831007625     0.066688568368    -0.000005771622    12.000000000000
         H            2.437328992375     0.311912568368    -0.881134771622     1.007825032230
         H            2.436852992375     0.310018568368     0.882203228378     1.007825032230
         H            1.960946992375    -1.165015431632    -0.001113771622     1.007825032230
         H            0.301530992375     1.452902568368    -0.000027771622     1.007825032230
         H           -1.855012007625     1.166925568368    -0.000455771622     1.007825032230
         H           -2.355682007625    -0.303123431632     0.882315228378     1.007825032230
         H           -2.355961007625    -0.303855431632    -0.881833771622     1.007825032230

  Basis Set: AUG-CC-PVTZ
    Blend: AUG-CC-PVTZ
  Basis Set: (AUG-CC-PVTZ AUX)
    Blend: AUG-CC-PVTZ-JKFIT
	 Reference Energy          =    -172.1652871227147727 [Eh]
	 Singles Energy            =      -0.0000000000000000 [Eh]
	 Same-Spin Energy          =      -0.1764555879092368 [Eh]
	 Opposite-Spin Energy      =      -0.6261269797609395 [Eh]
	 Correlation Energy        =      -0.8025825676701763 [Eh]
	 Total Energy              =    -172.9678696903849584 [Eh]

	 ================> DF-SCS-MP2 Energies <==================
	-----------------------------------------------------------
	 SCS Same-Spin Scale       =       0.3333333333333333 [-]
	 SCS Opposite-Spin Scale   =       1.2000000000000000 [-]
	 SCS Same-Spin Energy      =      -0.0588185293030789 [Eh]
	 SCS Opposite-Spin Energy  =      -0.7513523757131273 [Eh]
	 SCS Correlation Energy    =      -0.8101709050162063 [Eh]
	 SCS Total Energy          =    -172.9754580277309799 [Eh]
	-----------------------------------------------------------

  Dipole Moment: [D]
     X:     0.4463      Y:     1.3309      Z:     0.0002     Total:     1.4038

*** Psi4 exiting successfully. Buy a developer a beer!
