                               Psi4 1.3.2 release

  ==> Input File <==

--------------------------------------------------------------------------
#psi4
#
memory 32 gb

molecule  {
0 1
  N       -0.4034409    -0.5841913     0.0000050
  C        1.8933030    -0.0828010    -0.0000140
  C        0.4635850     0.3576260     0.0000390
  C       -1.8470910     0.0589940    -0.0000070
  H        2.4160690     0.3042180    -0.8811360
  H        2.4155930     0.3023240     0.8822020
  H        1.9396870    -1.1727100    -0.0011150
  H        0.2802710     1.4452080    -0.0000290
  H       -1.8762720     1.1592310    -0.0004570
  H       -2.3769420    -0.3108180     0.8823140
  H       -2.3772210    -0.3115500    -0.8818350
units angstrom
no_reorient  #important for SAPT in psi4, default
symmetry c1  #important for SAPT in psi4, default
}

set PROPERTIES_ORIGIN ["COM"]
properties('MP2/aug-cc-pvtz', properties = ['dipole'])
--------------------------------------------------------------------------

    Molecular point group: c1
  Charge       = 0
  Multiplicity = 1
  Basis Set: AUG-CC-PVTZ
    Blend: AUG-CC-PVTZ
  Basis Set: (AUG-CC-PVTZ AUX)
    Blend: AUG-CC-PVTZ-JKFIT

    Orbital Energies [Eh]
    ---------------------

    Doubly Occupied:

       1A    -15.566694     2A    -11.276828     3A    -11.249799
       4A    -11.219928     5A     -1.208432     6A     -0.996947
       7A     -0.905849     8A     -0.765791     9A     -0.634140
      10A     -0.599218    11A     -0.586026    12A     -0.560816
      13A     -0.532107    14A     -0.503732    15A     -0.413172
      16A     -0.404131

  @DF-RHF Final Energy:  -172.15414375577919

   => Energetics <=

    Nuclear Repulsion Energy =            116.8031788220163207
    One-Electron Energy =                -463.0674230291833737
    Two-Electron Energy =                 174.1101004513878650
    Total Energy =                       -172.1541437557791880
  Basis Set: (AUG-CC-PVTZ AUX)
    Blend: AUG-CC-PVTZ-RI
    Molecular point group: c1

    Geometry (in Angstrom), charge = 0, multiplicity = 1:

       Center              X                  Y                   Z               Mass
    ------------   -----------------  -----------------  -----------------  -----------------
         N           -0.419085233236    -0.536035550053     0.000000976414    14.003074004430
         C            1.877658666764    -0.034645250053    -0.000018023586    12.000000000000
         C            0.447940666764     0.405781749947     0.000034976414    12.000000000000
         C           -1.862735333236     0.107149749947    -0.000011023586    12.000000000000
         H            2.400424666764     0.352373749947    -0.881140023586     1.007825032230
         H            2.399948666764     0.350479749947     0.882197976414     1.007825032230
         H            1.924042666764    -1.124554250053    -0.001119023586     1.007825032230
         H            0.264626666764     1.493363749947    -0.000033023586     1.007825032230
         H           -1.891916333236     1.207386749947    -0.000461023586     1.007825032230
         H           -2.392586333236    -0.262662250053     0.882309976414     1.007825032230
         H           -2.392865333236    -0.263394250053    -0.881839023586     1.007825032230

  Basis Set: AUG-CC-PVTZ
    Blend: AUG-CC-PVTZ
  Basis Set: (AUG-CC-PVTZ AUX)
    Blend: AUG-CC-PVTZ-JKFIT
	 Reference Energy          =    -172.1541437557791880 [Eh]
	 Singles Energy            =      -0.0000000000000000 [Eh]
	 Same-Spin Energy          =      -0.1765173617118717 [Eh]
	 Opposite-Spin Energy      =      -0.6300603778098300 [Eh]
	 Correlation Energy        =      -0.8065777395217018 [Eh]
	 Total Energy              =    -172.9607214953009020 [Eh]

	 ================> DF-SCS-MP2 Energies <==================
	-----------------------------------------------------------
	 SCS Same-Spin Scale       =       0.3333333333333333 [-]
	 SCS Opposite-Spin Scale   =       1.2000000000000000 [-]
	 SCS Same-Spin Energy      =      -0.0588391205706239 [Eh]
	 SCS Opposite-Spin Energy  =      -0.7560724533717961 [Eh]
	 SCS Correlation Energy    =      -0.8149115739424200 [Eh]
	 SCS Total Energy          =    -172.9690553297216127 [Eh]
	-----------------------------------------------------------

  Dipole Moment: [D]
     X:     0.1666      Y:     1.7805      Z:     0.0001     Total:     1.7883

*** Psi4 exiting successfully. Buy a developer a beer!
