                               Psi4 1.3.2 release

  ==> Input File <==

--------------------------------------------------------------------------
#psi4
#
memory 32 gb

molecule  {
0 1
  N       -0.4788565    -0.4409569    -0.0000307
  C        1.8933030    -0.0828010    -0.0000140
  C        0.4635850     0.3576260     0.0000390
  C       -1.8470910     0.0589940    -0.0000070
  H        2.4160690     0.3042180    -0.8811360
  H        2.4155930     0.3023240     0.8822020
  H        1.9396870    -1.1727100    -0.0011150
  H        0.2802710     1.4452080    -0.0000290
  H       -1.8762720     1.1592310    -0.0004570
  H       -2.3769420    -0.3108180     0.8823140
  H       -2.3772210    -0.3115500    -0.8818350
units angstrom
no_reorient  #important for SAPT in psi4, default
symmetry c1  #important for SAPT in psi4, default
}

set PROPERTIES_ORIGIN ["COM"]
properties('MP2/aug-cc-pvtz', properties = ['dipole'])
--------------------------------------------------------------------------

    Molecular point group: c1
  Charge       = 0
  Multiplicity = 1
  Basis Set: AUG-CC-PVTZ
    Blend: AUG-CC-PVTZ
  Basis Set: (AUG-CC-PVTZ AUX)
    Blend: AUG-CC-PVTZ-JKFIT

    Orbital Energies [Eh]
    ---------------------

    Doubly Occupied:

       1A    -15.547539     2A    -11.268656     3A    -11.245608
       4A    -11.223345     5A     -1.235624     6A     -1.009384
       7A     -0.917460     8A     -0.756625     9A     -0.651611
      10A     -0.613255    11A     -0.596099    12A     -0.564881
      13A     -0.539354    14A     -0.517079    15A     -0.409892
      16A     -0.393723

  @DF-RHF Final Energy:  -172.17062185376093

   => Energetics <=

    Nuclear Repulsion Energy =            118.6915092398378277
    One-Electron Energy =                -466.7439942530477310
    Two-Electron Energy =                 175.8818631594489545
    Total Energy =                       -172.1706218537609345
  Basis Set: (AUG-CC-PVTZ AUX)
    Blend: AUG-CC-PVTZ-RI
    Molecular point group: c1

    Geometry (in Angstrom), charge = 0, multiplicity = 1:

       Center              X                  Y                   Z               Mass
    ------------   -----------------  -----------------  -----------------  -----------------
         N           -0.475992420421    -0.427953577462    -0.000025962132    14.003074004430
         C            1.896167079579    -0.069797677462    -0.000009262132    12.000000000000
         C            0.466449079579     0.370629322538     0.000043737868    12.000000000000
         C           -1.844226920421     0.071997322538    -0.000002262132    12.000000000000
         H            2.418933079579     0.317221322538    -0.881131262132     1.007825032230
         H            2.418457079579     0.315327322538     0.882206737868     1.007825032230
         H            1.942551079579    -1.159706677462    -0.001110262132     1.007825032230
         H            0.283135079579     1.458211322538    -0.000024262132     1.007825032230
         H           -1.873407920421     1.172234322538    -0.000452262132     1.007825032230
         H           -2.374077920421    -0.297814677462     0.882318737868     1.007825032230
         H           -2.374356920421    -0.298546677462    -0.881830262132     1.007825032230

  Basis Set: AUG-CC-PVTZ
    Blend: AUG-CC-PVTZ
  Basis Set: (AUG-CC-PVTZ AUX)
    Blend: AUG-CC-PVTZ-JKFIT
	 Reference Energy          =    -172.1706218537609345 [Eh]
	 Singles Energy            =      -0.0000000000000000 [Eh]
	 Same-Spin Energy          =      -0.1752965096755023 [Eh]
	 Opposite-Spin Energy      =      -0.6245488822762235 [Eh]
	 Correlation Energy        =      -0.7998453919517259 [Eh]
	 Total Energy              =    -172.9704672457126549 [Eh]

	 ================> DF-SCS-MP2 Energies <==================
	-----------------------------------------------------------
	 SCS Same-Spin Scale       =       0.3333333333333333 [-]
	 SCS Opposite-Spin Scale   =       1.2000000000000000 [-]
	 SCS Same-Spin Energy      =      -0.0584321698918341 [Eh]
	 SCS Opposite-Spin Energy  =      -0.7494586587314682 [Eh]
	 SCS Correlation Energy    =      -0.8078908286233023 [Eh]
	 SCS Total Energy          =    -172.9785126823842347 [Eh]
	-----------------------------------------------------------

  Dipole Moment: [D]
     X:     0.2248      Y:     1.4205      Z:     0.0002     Total:     1.4381

*** Psi4 exiting successfully. Buy a developer a beer!
