                               Psi4 1.4a3.dev225

  ==> Input File <==

--------------------------------------------------------------------------
#psi4
#
memory 32 gb

molecule  {
0 1
  N        0.4972020    -0.4883560    -0.0000030
  C       -1.8933690    -0.0828130     0.0000000
  C       -0.4636380     0.3576020     0.0000030
  C        1.8471220     0.0589730     0.0000010
  H       -2.4159140     0.3032330     0.8816800
  H       -2.4159290     0.3032900    -0.8816460
  H       -1.9397520    -1.1727070    -0.0000330
  H       -0.2886545     1.3958683    -0.0000104
  H        1.8763800     1.1592220     0.0000020
  H        2.3772280    -0.3111450    -0.8820540
  H        2.3772250    -0.3111470     0.8820570
units angstrom
no_reorient  #important for SAPT in psi4, default
symmetry c1  #important for SAPT in psi4, default
}

set PROPERTIES_ORIGIN ["COM"]
properties('MP2/aug-cc-pvtz', properties = ['dipole'])
--------------------------------------------------------------------------

    Molecular point group: c1
  Charge       = 0
  Multiplicity = 1
  Basis Set: AUG-CC-PVTZ
    Blend: AUG-CC-PVTZ
  Basis Set: (AUG-CC-PVTZ AUX)
    Blend: AUG-CC-PVTZ-JKFIT

    Orbital Energies [Eh]
    ---------------------

    Doubly Occupied:

       1A    -15.555172     2A    -11.271023     3A    -11.243110
       4A    -11.224355     5A     -1.220669     6A     -1.010881
       7A     -0.909769     8A     -0.772743     9A     -0.648822
      10A     -0.610750    11A     -0.593119    12A     -0.565005
      13A     -0.538268    14A     -0.513986    15A     -0.405270
      16A     -0.397242

  @DF-RHF Final Energy:  -172.16826585336787

   => Energetics <=

    Nuclear Repulsion Energy =            118.1138165729565372
    One-Electron Energy =                -465.6037938916840631
    Two-Electron Energy =                 175.3217114653596695
    Total Energy =                       -172.1682658533678705
  Basis Set: (AUG-CC-PVTZ AUX)
    Blend: AUG-CC-PVTZ-RI
    Molecular point group: c1

    Geometry (in Angstrom), charge = 0, multiplicity = 1:

       Center              X                  Y                   Z               Mass
    ------------   -----------------  -----------------  -----------------  -----------------
         N            0.489999490464    -0.462837458253    -0.000003027277    14.003074004430
         C           -1.900571509536    -0.057294458253    -0.000000027277    12.000000000000
         C           -0.470840509536     0.383120541747     0.000002972723    12.000000000000
         C            1.839919490464     0.084491541747     0.000000972723    12.000000000000
         H           -2.423116509536     0.328751541747     0.881679972723     1.007825032230
         H           -2.423131509536     0.328808541747    -0.881646027277     1.007825032230
         H           -1.946954509536    -1.147188458253    -0.000033027277     1.007825032230
         H           -0.295857009536     1.421386841747    -0.000010427277     1.007825032230
         H            1.869177490464     1.184740541747     0.000001972723     1.007825032230
         H            2.370025490464    -0.285626458253    -0.882054027277     1.007825032230
         H            2.370022490464    -0.285628458253     0.882056972723     1.007825032230

  Basis Set: AUG-CC-PVTZ
    Blend: AUG-CC-PVTZ
  Basis Set: (AUG-CC-PVTZ AUX)
    Blend: AUG-CC-PVTZ-JKFIT
	 Reference Energy          =    -172.1682658533678705 [Eh]
	 Singles Energy            =      -0.0000000000000000 [Eh]
	 Same-Spin Energy          =      -0.1759260382433548 [Eh]
	 Opposite-Spin Energy      =      -0.6267025309887115 [Eh]
	 Correlation Energy        =      -0.8026285692320664 [Eh]
	 Total Energy              =    -172.9708944225999403 [Eh]

	 ================> DF-SCS-MP2 Energies <==================
	-----------------------------------------------------------
	 SCS Same-Spin Scale       =       0.3333333333333333 [-]
	 SCS Opposite-Spin Scale   =       1.2000000000000000 [-]
	 SCS Same-Spin Energy      =      -0.0586420127477849 [Eh]
	 SCS Opposite-Spin Energy  =      -0.7520430371864538 [Eh]
	 SCS Correlation Energy    =      -0.8106850499342387 [Eh]
	 SCS Total Energy          =    -172.9789509033021204 [Eh]
	-----------------------------------------------------------

  Dipole Moment: [D]
     X:    -0.3178      Y:     1.6017      Z:     0.0000     Total:     1.6329

*** Psi4 exiting successfully. Buy a developer a beer!
