                               Psi4 1.3.2 release

  ==> Input File <==

--------------------------------------------------------------------------
#psi4
#
memory 32 gb

molecule  {
0 1
  N       -0.4971380    -0.4884030    -0.0000080
  C        1.8933030    -0.0828010    -0.0000140
  C        0.4486734     0.3742641     0.0000394
  C       -1.8470910     0.0589940    -0.0000070
  H        2.4160690     0.3042180    -0.8811360
  H        2.4155930     0.3023240     0.8822020
  H        1.9396870    -1.1727100    -0.0011150
  H        0.2802710     1.4452080    -0.0000290
  H       -1.8762720     1.1592310    -0.0004570
  H       -2.3769420    -0.3108180     0.8823140
  H       -2.3772210    -0.3115500    -0.8818350
units angstrom
no_reorient  #important for SAPT in psi4, default
symmetry c1  #important for SAPT in psi4, default
}

set PROPERTIES_ORIGIN ["COM"]
properties('MP2/aug-cc-pvtz', properties = ['dipole'])
--------------------------------------------------------------------------

    Molecular point group: c1
  Charge       = 0
  Multiplicity = 1
  Basis Set: AUG-CC-PVTZ
    Blend: AUG-CC-PVTZ
  Basis Set: (AUG-CC-PVTZ AUX)
    Blend: AUG-CC-PVTZ-JKFIT

    Orbital Energies [Eh]
    ---------------------

    Doubly Occupied:

       1A    -15.556737     2A    -11.276358     3A    -11.242942
       4A    -11.225132     5A     -1.221367     6A     -1.006300
       7A     -0.908746     8A     -0.767496     9A     -0.645981
      10A     -0.609599    11A     -0.592517    12A     -0.563939
      13A     -0.537950    14A     -0.509249    15A     -0.407394
      16A     -0.398398

  @DF-RHF Final Energy:  -172.16829511018446

   => Energetics <=

    Nuclear Repulsion Energy =            117.8127532962782027
    One-Electron Energy =                -465.0218861837792588
    Two-Electron Energy =                 175.0408377773165682
    Total Energy =                       -172.1682951101844594
  Basis Set: (AUG-CC-PVTZ AUX)
    Blend: AUG-CC-PVTZ-RI
    Molecular point group: c1

    Geometry (in Angstrom), charge = 0, multiplicity = 1:

       Center              X                  Y                   Z               Mass
    ------------   -----------------  -----------------  -----------------  -----------------
         N           -0.486651193605    -0.467254714836    -0.000008917266    14.003074004430
         C            1.903789806395    -0.061652714836    -0.000014917266    12.000000000000
         C            0.459160206395     0.395412385164     0.000038482734    12.000000000000
         C           -1.836604193605     0.080142285164    -0.000007917266    12.000000000000
         H            2.426555806395     0.325366285164    -0.881136917266     1.007825032230
         H            2.426079806395     0.323472285164     0.882201082734     1.007825032230
         H            1.950173806395    -1.151561714836    -0.001115917266     1.007825032230
         H            0.290757806395     1.466356285164    -0.000029917266     1.007825032230
         H           -1.865785193605     1.180379285164    -0.000457917266     1.007825032230
         H           -2.366455193605    -0.289669714836     0.882313082734     1.007825032230
         H           -2.366734193605    -0.290401714836    -0.881835917266     1.007825032230

  Basis Set: AUG-CC-PVTZ
    Blend: AUG-CC-PVTZ
  Basis Set: (AUG-CC-PVTZ AUX)
    Blend: AUG-CC-PVTZ-JKFIT
	 Reference Energy          =    -172.1682951101844594 [Eh]
	 Singles Energy            =      -0.0000000000000000 [Eh]
	 Same-Spin Energy          =      -0.1759407847717171 [Eh]
	 Opposite-Spin Energy      =      -0.6270349683701122 [Eh]
	 Correlation Energy        =      -0.8029757531418293 [Eh]
	 Total Energy              =    -172.9712708633262821 [Eh]

	 ================> DF-SCS-MP2 Energies <==================
	-----------------------------------------------------------
	 SCS Same-Spin Scale       =       0.3333333333333333 [-]
	 SCS Opposite-Spin Scale   =       1.2000000000000000 [-]
	 SCS Same-Spin Energy      =      -0.0586469282572390 [Eh]
	 SCS Opposite-Spin Energy  =      -0.7524419620441346 [Eh]
	 SCS Correlation Energy    =      -0.8110888903013737 [Eh]
	 SCS Total Energy          =    -172.9793840004858225 [Eh]
	-----------------------------------------------------------

  Dipole Moment: [D]
     X:     0.2734      Y:     1.5871      Z:     0.0001     Total:     1.6105

*** Psi4 exiting successfully. Buy a developer a beer!
