                               Psi4 1.4a3.dev225

  ==> Input File <==

--------------------------------------------------------------------------
#psi4
#
memory 32 gb

molecule  {
0 1
  N        0.4972020    -0.4883560    -0.0000030
  C       -1.8933690    -0.0828130     0.0000000
  C       -0.4486270     0.3443858     0.0000029
  C        1.8471220     0.0589730     0.0000010
  H       -2.4159140     0.3032330     0.8816800
  H       -2.4159290     0.3032900    -0.8816460
  H       -1.9397520    -1.1727070    -0.0000330
  H       -0.2803450     1.4451730    -0.0000110
  H        1.8763800     1.1592220     0.0000020
  H        2.3772280    -0.3111450    -0.8820540
  H        2.3772250    -0.3111470     0.8820570
units angstrom
no_reorient  #important for SAPT in psi4, default
symmetry c1  #important for SAPT in psi4, default
}

set PROPERTIES_ORIGIN ["COM"]
properties('MP2/aug-cc-pvtz', properties = ['dipole'])
--------------------------------------------------------------------------

    Molecular point group: c1
  Charge       = 0
  Multiplicity = 1
  Basis Set: AUG-CC-PVTZ
    Blend: AUG-CC-PVTZ
  Basis Set: (AUG-CC-PVTZ AUX)
    Blend: AUG-CC-PVTZ-JKFIT

    Orbital Energies [Eh]
    ---------------------

    Doubly Occupied:

       1A    -15.554138     2A    -11.275488     3A    -11.244073
       4A    -11.224828     5A     -1.228281     6A     -1.007862
       7A     -0.912878     8A     -0.758665     9A     -0.647306
      10A     -0.611851    11A     -0.594448    12A     -0.564677
      13A     -0.538338    14A     -0.510268    15A     -0.403933
      16A     -0.403314

  @DF-RHF Final Energy:  -172.16975236206724

   => Energetics <=

    Nuclear Repulsion Energy =            118.1105410571502148
    One-Electron Energy =                -465.5998955540770226
    Two-Electron Energy =                 175.3196021348595650
    Total Energy =                       -172.1697523620672428
  Basis Set: (AUG-CC-PVTZ AUX)
    Blend: AUG-CC-PVTZ-RI
    Molecular point group: c1

    Geometry (in Angstrom), charge = 0, multiplicity = 1:

       Center              X                  Y                   Z               Mass
    ------------   -----------------  -----------------  -----------------  -----------------
         N            0.486695711498    -0.460928800801    -0.000002995647    14.003074004430
         C           -1.903875288502    -0.055385800801     0.000000004353    12.000000000000
         C           -0.459133288502     0.371812999199     0.000002904353    12.000000000000
         C            1.836615711498     0.086400199199     0.000001004353    12.000000000000
         H           -2.426420288502     0.330660199199     0.881680004353     1.007825032230
         H           -2.426435288502     0.330717199199    -0.881645995647     1.007825032230
         H           -1.950258288502    -1.145279800801    -0.000032995647     1.007825032230
         H           -0.290851288502     1.472600199199    -0.000010995647     1.007825032230
         H            1.865873711498     1.186649199199     0.000002004353     1.007825032230
         H            2.366721711498    -0.283717800801    -0.882053995647     1.007825032230
         H            2.366718711498    -0.283719800801     0.882057004353     1.007825032230

  Basis Set: AUG-CC-PVTZ
    Blend: AUG-CC-PVTZ
  Basis Set: (AUG-CC-PVTZ AUX)
    Blend: AUG-CC-PVTZ-JKFIT
	 Reference Energy          =    -172.1697523620672428 [Eh]
	 Singles Energy            =      -0.0000000000000000 [Eh]
	 Same-Spin Energy          =      -0.1757142342800405 [Eh]
	 Opposite-Spin Energy      =      -0.6260888898633830 [Eh]
	 Correlation Energy        =      -0.8018031241434235 [Eh]
	 Total Energy              =    -172.9715554862106615 [Eh]

	 ================> DF-SCS-MP2 Energies <==================
	-----------------------------------------------------------
	 SCS Same-Spin Scale       =       0.3333333333333333 [-]
	 SCS Opposite-Spin Scale   =       1.2000000000000000 [-]
	 SCS Same-Spin Energy      =      -0.0585714114266802 [Eh]
	 SCS Opposite-Spin Energy  =      -0.7513066678360595 [Eh]
	 SCS Correlation Energy    =      -0.8098780792627397 [Eh]
	 SCS Total Energy          =    -172.9796304413299879 [Eh]
	-----------------------------------------------------------

  Dipole Moment: [D]
     X:    -0.2745      Y:     1.5193      Z:     0.0000     Total:     1.5439

*** Psi4 exiting successfully. Buy a developer a beer!
