                               Psi4 1.3.2 release

  ==> Input File <==

--------------------------------------------------------------------------
#psi4
#
memory 32 gb

molecule  {
0 1
  N       -1.3248030    -1.1740260    -0.2505360
  C        0.8182300    -0.4554710     0.5470430
  C       -0.5904330    -0.1723070     0.0896190
  C        1.8790820     0.1519800    -0.3759300
  C       -1.0326707     1.2727504     0.0962846
  H        0.9506150    -0.0630590     1.5639460
  H        0.9302930    -1.5419040     0.5914080
  H        2.8813100    -0.1399000    -0.0505570
  H        1.8374890     1.2445300    -0.3804150
  H        1.7406910    -0.2009300    -1.4019490
  H       -0.7901170     1.7727720     0.9986380
  H       -0.4789730     1.8177080    -0.7361320
  H       -2.0886730     1.3644810    -0.1460260
  H       -2.2520240    -0.8395090    -0.5445200
units angstrom
no_reorient  #important for SAPT in psi4, default
symmetry c1  #important for SAPT in psi4, default
}

set PROPERTIES_ORIGIN ["COM"]
properties('MP2/aug-cc-pvtz', properties = ['dipole'])
--------------------------------------------------------------------------

    Molecular point group: c1
  Charge       = 0
  Multiplicity = 1
  Basis Set: AUG-CC-PVTZ
    Blend: AUG-CC-PVTZ
  Basis Set: (AUG-CC-PVTZ AUX)
    Blend: AUG-CC-PVTZ-JKFIT

    Orbital Energies [Eh]
    ---------------------

    Doubly Occupied:

       1A    -15.540952     2A    -11.285019     3A    -11.236680
       4A    -11.227298     5A    -11.223080     6A     -1.203962
       7A     -1.043915     8A     -0.982075     9A     -0.876148
      10A     -0.731973    11A     -0.653798    12A     -0.616793
      13A     -0.608721    14A     -0.581299    15A     -0.551074
      16A     -0.523672    17A     -0.500862    18A     -0.489447
      19A     -0.412248    20A     -0.406686

  @DF-RHF Final Energy:  -211.22543092855022

   => Energetics <=

    Nuclear Repulsion Energy =            176.5795422574722124
    One-Electron Energy =                -634.2185445611307841
    Two-Electron Energy =                 246.4135713751083472
    Total Energy =                       -211.2254309285502245
  Basis Set: (AUG-CC-PVTZ AUX)
    Blend: AUG-CC-PVTZ-RI
    Molecular point group: c1

    Geometry (in Angstrom), charge = 0, multiplicity = 1:

       Center              X                  Y                   Z               Mass
    ------------   -----------------  -----------------  -----------------  -----------------
         N           -1.283875836429    -1.125686758845    -0.259955708889    14.003074004430
         C            0.859157163571    -0.407131758845     0.537623291111    12.000000000000
         C           -0.549505836429    -0.123967758845     0.080199291111    12.000000000000
         C            1.920009163571     0.200319241155    -0.385349708889    12.000000000000
         C           -0.991743536429     1.321089641155     0.086864891111    12.000000000000
         H            0.991542163571    -0.014719758845     1.554526291111     1.007825032230
         H            0.971220163571    -1.493564758845     0.581988291111     1.007825032230
         H            2.922237163571    -0.091560758845    -0.059976708889     1.007825032230
         H            1.878416163571     1.292869241155    -0.389834708889     1.007825032230
         H            1.781618163571    -0.152590758845    -1.411368708889     1.007825032230
         H           -0.749189836429     1.821111241155     0.989218291111     1.007825032230
         H           -0.438045836429     1.866047241155    -0.745551708889     1.007825032230
         H           -2.047745836429     1.412820241155    -0.155445708889     1.007825032230
         H           -2.211096836429    -0.791169758845    -0.553939708889     1.007825032230

  Basis Set: AUG-CC-PVTZ
    Blend: AUG-CC-PVTZ
  Basis Set: (AUG-CC-PVTZ AUX)
    Blend: AUG-CC-PVTZ-JKFIT
	 Reference Energy          =    -211.2254309285502245 [Eh]
	 Singles Energy            =      -0.0000000000000000 [Eh]
	 Same-Spin Energy          =      -0.2205399277874170 [Eh]
	 Opposite-Spin Energy      =      -0.7821590980707260 [Eh]
	 Correlation Energy        =      -1.0026990258581430 [Eh]
	 Total Energy              =    -212.2281299544083595 [Eh]

	 ================> DF-SCS-MP2 Energies <==================
	-----------------------------------------------------------
	 SCS Same-Spin Scale       =       0.3333333333333333 [-]
	 SCS Opposite-Spin Scale   =       1.2000000000000000 [-]
	 SCS Same-Spin Energy      =      -0.0735133092624723 [Eh]
	 SCS Opposite-Spin Energy  =      -0.9385909176848712 [Eh]
	 SCS Correlation Energy    =      -1.0121042269473435 [Eh]
	 SCS Total Energy          =    -212.2375351554975680 [Eh]
	-----------------------------------------------------------

  Dipole Moment: [D]
     X:     0.3354      Y:     2.3901      Z:     0.2675     Total:     2.4283

*** Psi4 exiting successfully. Buy a developer a beer!
