                               Psi4 1.3.2 release

  ==> Input File <==

--------------------------------------------------------------------------
#psi4
#
memory 32 gb

molecule  {
0 1
  N       -1.3248030    -1.1740260    -0.2505360
  C        0.8182300    -0.4554710     0.5470430
  C       -0.5904330    -0.1723070     0.0896190
  C        1.8790820     0.1519800    -0.3759300
  C       -1.0978455     1.2579000     0.2847832
  H        0.9506150    -0.0630590     1.5639460
  H        0.9302930    -1.5419040     0.5914080
  H        2.8813100    -0.1399000    -0.0505570
  H        1.8374890     1.2445300    -0.3804150
  H        1.7406910    -0.2009300    -1.4019490
  H       -0.7901170     1.7727720     0.9986380
  H       -0.4789730     1.8177080    -0.7361320
  H       -2.0886730     1.3644810    -0.1460260
  H       -2.2520240    -0.8395090    -0.5445200
units angstrom
no_reorient  #important for SAPT in psi4, default
symmetry c1  #important for SAPT in psi4, default
}

set PROPERTIES_ORIGIN ["COM"]
properties('MP2/aug-cc-pvtz', properties = ['dipole'])
--------------------------------------------------------------------------

    Molecular point group: c1
  Charge       = 0
  Multiplicity = 1
  Basis Set: AUG-CC-PVTZ
    Blend: AUG-CC-PVTZ
  Basis Set: (AUG-CC-PVTZ AUX)
    Blend: AUG-CC-PVTZ-JKFIT

    Orbital Energies [Eh]
    ---------------------

    Doubly Occupied:

       1A    -15.540870     2A    -11.290389     3A    -11.245667
       4A    -11.228241     5A    -11.222259     6A     -1.204357
       7A     -1.044099     8A     -0.987455     9A     -0.876444
      10A     -0.736454    11A     -0.665710    12A     -0.647674
      13A     -0.605911    14A     -0.576020    15A     -0.532951
      16A     -0.516490    17A     -0.495165    18A     -0.485452
      19A     -0.419062    20A     -0.392752

  @DF-RHF Final Energy:  -211.17191698292760

   => Energetics <=

    Nuclear Repulsion Energy =            176.1507401082429567
    One-Electron Energy =                -633.2184684055359867
    Two-Electron Energy =                 245.8958113143654032
    Total Energy =                       -211.1719169829275984
  Basis Set: (AUG-CC-PVTZ AUX)
    Blend: AUG-CC-PVTZ-RI
    Molecular point group: c1

    Geometry (in Angstrom), charge = 0, multiplicity = 1:

       Center              X                  Y                   Z               Mass
    ------------   -----------------  -----------------  -----------------  -----------------
         N           -1.272871768699    -1.123179427677    -0.291781680910    14.003074004430
         C            0.870161231301    -0.404624427677     0.505797319090    12.000000000000
         C           -0.538501768699    -0.121460427677     0.048373319090    12.000000000000
         C            1.931013231301     0.202826572323    -0.417175680910    12.000000000000
         C           -1.045914268699     1.308746572323     0.243537519090    12.000000000000
         H            1.002546231301    -0.012212427677     1.522700319090     1.007825032230
         H            0.982224231301    -1.491057427677     0.550162319090     1.007825032230
         H            2.933241231301    -0.089053427677    -0.091802680910     1.007825032230
         H            1.889420231301     1.295376572323    -0.421660680910     1.007825032230
         H            1.792622231301    -0.150083427677    -1.443194680910     1.007825032230
         H           -0.738185768699     1.823618572323     0.957392319090     1.007825032230
         H           -0.427041768699     1.868554572323    -0.777377680910     1.007825032230
         H           -2.036741768699     1.415327572323    -0.187271680910     1.007825032230
         H           -2.200092768699    -0.788662427677    -0.585765680910     1.007825032230

  Basis Set: AUG-CC-PVTZ
    Blend: AUG-CC-PVTZ
  Basis Set: (AUG-CC-PVTZ AUX)
    Blend: AUG-CC-PVTZ-JKFIT
	 Reference Energy          =    -211.1719169829275984 [Eh]
	 Singles Energy            =      -0.0000000000000000 [Eh]
	 Same-Spin Energy          =      -0.2213130734696551 [Eh]
	 Opposite-Spin Energy      =      -0.7847310057921753 [Eh]
	 Correlation Energy        =      -1.0060440792618304 [Eh]
	 Total Energy              =    -212.1779610621894392 [Eh]

	 ================> DF-SCS-MP2 Energies <==================
	-----------------------------------------------------------
	 SCS Same-Spin Scale       =       0.3333333333333333 [-]
	 SCS Opposite-Spin Scale   =       1.2000000000000000 [-]
	 SCS Same-Spin Energy      =      -0.0737710244898850 [Eh]
	 SCS Opposite-Spin Energy  =      -0.9416772069506103 [Eh]
	 SCS Correlation Energy    =      -1.0154482314404953 [Eh]
	 SCS Total Energy          =    -212.1873652143680999 [Eh]
	-----------------------------------------------------------

  Dipole Moment: [D]
     X:     0.2888      Y:     2.3492      Z:     0.3846     Total:     2.3979

*** Psi4 exiting successfully. Buy a developer a beer!
