                               Psi4 1.3.2 release

  ==> Input File <==

--------------------------------------------------------------------------
#psi4
#
memory 32 gb

molecule  {
0 1
  N       -1.3248030    -1.1740260    -0.2505360
  C        0.8182300    -0.4554710     0.5470430
  C       -0.5904330    -0.1723070     0.0896190
  C        1.8790820     0.1519800    -0.3759300
  C       -1.0652581     1.2653252     0.1905339
  H        0.9506150    -0.0630590     1.5639460
  H        0.9302930    -1.5419040     0.5914080
  H        2.8813100    -0.1399000    -0.0505570
  H        1.8374890     1.2445300    -0.3804150
  H        1.7406910    -0.2009300    -1.4019490
  H       -0.7901170     1.7727720     0.9986380
  H       -0.4789730     1.8177080    -0.7361320
  H       -2.0886730     1.3644810    -0.1460260
  H       -2.2520240    -0.8395090    -0.5445200
units angstrom
no_reorient  #important for SAPT in psi4, default
symmetry c1  #important for SAPT in psi4, default
}

set PROPERTIES_ORIGIN ["COM"]
properties('MP2/aug-cc-pvtz', properties = ['dipole'])
--------------------------------------------------------------------------

    Molecular point group: c1
  Charge       = 0
  Multiplicity = 1
  Basis Set: AUG-CC-PVTZ
    Blend: AUG-CC-PVTZ
  Basis Set: (AUG-CC-PVTZ AUX)
    Blend: AUG-CC-PVTZ-JKFIT

    Orbital Energies [Eh]
    ---------------------

    Doubly Occupied:

       1A    -15.540740     2A    -11.286891     3A    -11.239767
       4A    -11.227672     5A    -11.222645     6A     -1.204031
       7A     -1.043873     8A     -0.984050     9A     -0.876111
      10A     -0.733562    11A     -0.655648    12A     -0.635428
      13A     -0.607126    14A     -0.577724    15A     -0.538966
      16A     -0.522956    17A     -0.499622    18A     -0.488526
      19A     -0.415848    20A     -0.400202

  @DF-RHF Final Energy:  -211.20693558750560

   => Energetics <=

    Nuclear Repulsion Energy =            176.4042099856418133
    One-Electron Energy =                -633.8195100689114270
    Two-Electron Energy =                 246.2083644957639876
    Total Energy =                       -211.2069355875055976
  Basis Set: (AUG-CC-PVTZ AUX)
    Blend: AUG-CC-PVTZ-RI
    Molecular point group: c1

    Geometry (in Angstrom), charge = 0, multiplicity = 1:

       Center              X                  Y                   Z               Mass
    ------------   -----------------  -----------------  -----------------  -----------------
         N           -1.278373802564    -1.124433093261    -0.275868694899    14.003074004430
         C            0.864659197436    -0.405878093261     0.521710305101    12.000000000000
         C           -0.544003802564    -0.122714093261     0.064286305101    12.000000000000
         C            1.925511197436     0.201572906739    -0.401262694899    12.000000000000
         C           -1.018828902564     1.314918106739     0.165201205101    12.000000000000
         H            0.997044197436    -0.013466093261     1.538613305101     1.007825032230
         H            0.976722197436    -1.492311093261     0.566075305101     1.007825032230
         H            2.927739197436    -0.090307093261    -0.075889694899     1.007825032230
         H            1.883918197436     1.294122906739    -0.405747694899     1.007825032230
         H            1.787120197436    -0.151337093261    -1.427281694899     1.007825032230
         H           -0.743687802564     1.822364906739     0.973305305101     1.007825032230
         H           -0.432543802564     1.867300906739    -0.761464694899     1.007825032230
         H           -2.042243802564     1.414073906739    -0.171358694899     1.007825032230
         H           -2.205594802564    -0.789916093261    -0.569852694899     1.007825032230

  Basis Set: AUG-CC-PVTZ
    Blend: AUG-CC-PVTZ
  Basis Set: (AUG-CC-PVTZ AUX)
    Blend: AUG-CC-PVTZ-JKFIT
	 Reference Energy          =    -211.2069355875055976 [Eh]
	 Singles Energy            =      -0.0000000000000000 [Eh]
	 Same-Spin Energy          =      -0.2207993714845453 [Eh]
	 Opposite-Spin Energy      =      -0.7829860510029676 [Eh]
	 Correlation Energy        =      -1.0037854224875129 [Eh]
	 Total Energy              =    -212.2107210099931081 [Eh]

	 ================> DF-SCS-MP2 Energies <==================
	-----------------------------------------------------------
	 SCS Same-Spin Scale       =       0.3333333333333333 [-]
	 SCS Opposite-Spin Scale   =       1.2000000000000000 [-]
	 SCS Same-Spin Energy      =      -0.0735997904948484 [Eh]
	 SCS Opposite-Spin Energy  =      -0.9395832612035611 [Eh]
	 SCS Correlation Energy    =      -1.0131830516984095 [Eh]
	 SCS Total Energy          =    -212.2201186392040029 [Eh]
	-----------------------------------------------------------

  Dipole Moment: [D]
     X:     0.3111      Y:     2.3796      Z:     0.3310     Total:     2.4225

*** Psi4 exiting successfully. Buy a developer a beer!
