                               Psi4 1.3.2 release

  ==> Input File <==

--------------------------------------------------------------------------
#psi4
#
memory 32 gb

molecule  {
0 1
  N       -1.3248030    -1.1740260    -0.2505360
  C        0.8182300    -0.4554710     0.5470430
  C       -0.5904330    -0.1723070     0.0896190
  C        1.8790820     0.1519800    -0.3759300
  C       -1.0163770     1.2764630     0.0491600
  H        0.9506150    -0.0630590     1.5639460
  H        0.9302930    -1.5419040     0.5914080
  H        2.8813100    -0.1399000    -0.0505570
  H        1.8374890     1.2445300    -0.3804150
  H        1.7406910    -0.2009300    -1.4019490
  H       -0.7901170     1.7727720     0.9986380
  H       -0.4789730     1.8177080    -0.7361320
  H       -2.0886730     1.3644810    -0.1460260
  H       -2.2520240    -0.8395090    -0.5445200
units angstrom
no_reorient  #important for SAPT in psi4, default
symmetry c1  #important for SAPT in psi4, default
}

set PROPERTIES_ORIGIN ["COM"]
properties('MP2/aug-cc-pvtz', properties = ['dipole'])
--------------------------------------------------------------------------

    Molecular point group: c1
  Charge       = 0
  Multiplicity = 1
  Basis Set: AUG-CC-PVTZ
    Blend: AUG-CC-PVTZ
  Basis Set: (AUG-CC-PVTZ AUX)
    Blend: AUG-CC-PVTZ-JKFIT

    Orbital Energies [Eh]
    ---------------------

    Doubly Occupied:

       1A    -15.541202     2A    -11.284761     3A    -11.236223
       4A    -11.227194     5A    -11.223310     6A     -1.204044
       7A     -1.044040     8A     -0.981674     9A     -0.876325
      10A     -0.731627    11A     -0.653599    12A     -0.617376
      13A     -0.604344    14A     -0.583242    15A     -0.554066
      16A     -0.522657    17A     -0.500712    18A     -0.489533
      19A     -0.411374    20A     -0.408596

  @DF-RHF Final Energy:  -211.22779051265130

   => Energetics <=

    Nuclear Repulsion Energy =            176.6400087782639616
    One-Electron Energy =                -634.3438006848533632
    Two-Electron Energy =                 246.4760013939381054
    Total Energy =                       -211.2277905126512962
  Basis Set: (AUG-CC-PVTZ AUX)
    Blend: AUG-CC-PVTZ-RI
    Molecular point group: c1

    Geometry (in Angstrom), charge = 0, multiplicity = 1:

       Center              X                  Y                   Z               Mass
    ------------   -----------------  -----------------  -----------------  -----------------
         N           -1.286626853361    -1.126313591637    -0.251999224325    14.003074004430
         C            0.856406146639    -0.407758591637     0.545579775675    12.000000000000
         C           -0.552256853361    -0.124594591637     0.088155775675    12.000000000000
         C            1.917258146639     0.199692408363    -0.377393224325    12.000000000000
         C           -0.978200853361     1.324175408363     0.047696775675    12.000000000000
         H            0.988791146639    -0.015346591637     1.562482775675     1.007825032230
         H            0.968469146639    -1.494191591637     0.589944775675     1.007825032230
         H            2.919486146639    -0.092187591637    -0.052020224325     1.007825032230
         H            1.875665146639     1.292242408363    -0.381878224325     1.007825032230
         H            1.778867146639    -0.153217591637    -1.403412224325     1.007825032230
         H           -0.751940853361     1.820484408363     0.997174775675     1.007825032230
         H           -0.440796853361     1.865420408363    -0.737595224325     1.007825032230
         H           -2.050496853361     1.412193408363    -0.147489224325     1.007825032230
         H           -2.213847853361    -0.791796591637    -0.545983224325     1.007825032230

  Basis Set: AUG-CC-PVTZ
    Blend: AUG-CC-PVTZ
  Basis Set: (AUG-CC-PVTZ AUX)
    Blend: AUG-CC-PVTZ-JKFIT
	 Reference Energy          =    -211.2277905126512962 [Eh]
	 Singles Energy            =      -0.0000000000000000 [Eh]
	 Same-Spin Energy          =      -0.2205060923096462 [Eh]
	 Opposite-Spin Energy      =      -0.7820854755973625 [Eh]
	 Correlation Energy        =      -1.0025915679070088 [Eh]
	 Total Energy              =    -212.2303820805583143 [Eh]

	 ================> DF-SCS-MP2 Energies <==================
	-----------------------------------------------------------
	 SCS Same-Spin Scale       =       0.3333333333333333 [-]
	 SCS Opposite-Spin Scale   =       1.2000000000000000 [-]
	 SCS Same-Spin Energy      =      -0.0735020307698821 [Eh]
	 SCS Opposite-Spin Energy  =      -0.9385025707168350 [Eh]
	 SCS Correlation Energy    =      -1.0120046014867170 [Eh]
	 SCS Total Energy          =    -212.2397951141380190 [Eh]
	-----------------------------------------------------------

  Dipole Moment: [D]
     X:     0.3466      Y:     2.3859      Z:     0.2345     Total:     2.4223

*** Psi4 exiting successfully. Buy a developer a beer!
