                               Psi4 1.3.2 release

  ==> Input File <==

--------------------------------------------------------------------------
#psi4
#
memory 32 gb

molecule  {
0 1
  N       -1.3248030    -1.1740260    -0.2505360
  C        0.8182300    -0.4554710     0.5470430
  C       -0.5904330    -0.1723070     0.0896190
  C        1.8790820     0.1519800    -0.3759300
  C       -1.0489644     1.2690378     0.1434093
  H        0.9506150    -0.0630590     1.5639460
  H        0.9302930    -1.5419040     0.5914080
  H        2.8813100    -0.1399000    -0.0505570
  H        1.8374890     1.2445300    -0.3804150
  H        1.7406910    -0.2009300    -1.4019490
  H       -0.7901170     1.7727720     0.9986380
  H       -0.4789730     1.8177080    -0.7361320
  H       -2.0886730     1.3644810    -0.1460260
  H       -2.2520240    -0.8395090    -0.5445200
units angstrom
no_reorient  #important for SAPT in psi4, default
symmetry c1  #important for SAPT in psi4, default
}

set PROPERTIES_ORIGIN ["COM"]
properties('MP2/aug-cc-pvtz', properties = ['dipole'])
--------------------------------------------------------------------------

    Molecular point group: c1
  Charge       = 0
  Multiplicity = 1
  Basis Set: AUG-CC-PVTZ
    Blend: AUG-CC-PVTZ
  Basis Set: (AUG-CC-PVTZ AUX)
    Blend: AUG-CC-PVTZ-JKFIT

    Orbital Energies [Eh]
    ---------------------

    Doubly Occupied:

       1A    -15.540799     2A    -11.285736     3A    -11.237862
       4A    -11.227459     5A    -11.222858     6A     -1.203960
       7A     -1.043860     8A     -0.982876     9A     -0.876079
      10A     -0.732621    11A     -0.654408    12A     -0.625172
      13A     -0.608211    14A     -0.579132    15A     -0.545320
      16A     -0.523935    17A     -0.500555    18A     -0.489118
      19A     -0.414046    20A     -0.403593

  @DF-RHF Final Energy:  -211.21838165203371

   => Energetics <=

    Nuclear Repulsion Energy =            176.5012512473798836
    One-Electron Energy =                -634.0440654112371703
    Two-Electron Energy =                 246.3244325118236020
    Total Energy =                       -211.2183816520337132
  Basis Set: (AUG-CC-PVTZ AUX)
    Blend: AUG-CC-PVTZ-RI
    Molecular point group: c1

    Geometry (in Angstrom), charge = 0, multiplicity = 1:

       Center              X                  Y                   Z               Mass
    ------------   -----------------  -----------------  -----------------  -----------------
         N           -1.281124819496    -1.125059926053    -0.267912210336    14.003074004430
         C            0.861908180504    -0.406504926053     0.529666789664    12.000000000000
         C           -0.546754819496    -0.123340926053     0.072242789664    12.000000000000
         C            1.922760180504     0.200946073947    -0.393306210336    12.000000000000
         C           -1.005286219496     1.318003873947     0.126033089664    12.000000000000
         H            0.994293180504    -0.014092926053     1.546569789664     1.007825032230
         H            0.973971180504    -1.492937926053     0.574031789664     1.007825032230
         H            2.924988180504    -0.090933926053    -0.067933210336     1.007825032230
         H            1.881167180504     1.293496073947    -0.397791210336     1.007825032230
         H            1.784369180504    -0.151963926053    -1.419325210336     1.007825032230
         H           -0.746438819496     1.821738073947     0.981261789664     1.007825032230
         H           -0.435294819496     1.866674073947    -0.753508210336     1.007825032230
         H           -2.044994819496     1.413447073947    -0.163402210336     1.007825032230
         H           -2.208345819496    -0.790542926053    -0.561896210336     1.007825032230

  Basis Set: AUG-CC-PVTZ
    Blend: AUG-CC-PVTZ
  Basis Set: (AUG-CC-PVTZ AUX)
    Blend: AUG-CC-PVTZ-JKFIT
	 Reference Energy          =    -211.2183816520337132 [Eh]
	 Singles Energy            =      -0.0000000000000000 [Eh]
	 Same-Spin Energy          =      -0.2206379990955046 [Eh]
	 Opposite-Spin Energy      =      -0.7824592063895885 [Eh]
	 Correlation Energy        =      -1.0030972054850931 [Eh]
	 Total Energy              =    -212.2214788575188038 [Eh]

	 ================> DF-SCS-MP2 Energies <==================
	-----------------------------------------------------------
	 SCS Same-Spin Scale       =       0.3333333333333333 [-]
	 SCS Opposite-Spin Scale   =       1.2000000000000000 [-]
	 SCS Same-Spin Energy      =      -0.0735459996985015 [Eh]
	 SCS Opposite-Spin Energy  =      -0.9389510476675063 [Eh]
	 SCS Correlation Energy    =      -1.0124970473660078 [Eh]
	 SCS Total Energy          =    -212.2308786993997103 [Eh]
	-----------------------------------------------------------

  Dipole Moment: [D]
     X:     0.3234      Y:     2.3878      Z:     0.3000     Total:     2.4282

*** Psi4 exiting successfully. Buy a developer a beer!
