                               Psi4 1.3.2 release

  ==> Input File <==

--------------------------------------------------------------------------
#psi4
#
memory 32 gb

molecule  {
0 1
  N       -1.3248030    -1.1740260    -0.2505360
  C        0.8182300    -0.4554710     0.5470430
  C       -0.5904330    -0.1723070     0.0896190
  C        1.8790820     0.1519800    -0.3759300
  C       -1.0815518     1.2616126     0.2376586
  H        0.9506150    -0.0630590     1.5639460
  H        0.9302930    -1.5419040     0.5914080
  H        2.8813100    -0.1399000    -0.0505570
  H        1.8374890     1.2445300    -0.3804150
  H        1.7406910    -0.2009300    -1.4019490
  H       -0.7901170     1.7727720     0.9986380
  H       -0.4789730     1.8177080    -0.7361320
  H       -2.0886730     1.3644810    -0.1460260
  H       -2.2520240    -0.8395090    -0.5445200
units angstrom
no_reorient  #important for SAPT in psi4, default
symmetry c1  #important for SAPT in psi4, default
}

set PROPERTIES_ORIGIN ["COM"]
properties('MP2/aug-cc-pvtz', properties = ['dipole'])
--------------------------------------------------------------------------

    Molecular point group: c1
  Charge       = 0
  Multiplicity = 1
  Basis Set: AUG-CC-PVTZ
    Blend: AUG-CC-PVTZ
  Basis Set: (AUG-CC-PVTZ AUX)
    Blend: AUG-CC-PVTZ-JKFIT

    Orbital Energies [Eh]
    ---------------------

    Doubly Occupied:

       1A    -15.540767     2A    -11.288455     3A    -11.242380
       4A    -11.227935     5A    -11.222444     6A     -1.204168
       7A     -1.043954     8A     -0.985581     9A     -0.876234
      10A     -0.734823    11A     -0.658857    12A     -0.643793
      13A     -0.606381    14A     -0.576799    15A     -0.534687
      16A     -0.520118    17A     -0.497803    18A     -0.487485
      19A     -0.417540    20A     -0.396584

  @DF-RHF Final Energy:  -211.19135785675863

   => Energetics <=

    Nuclear Repulsion Energy =            176.2876123840180185
    One-Electron Energy =                -633.5443661931092265
    Two-Electron Energy =                 246.0653959523325796
    Total Energy =                       -211.1913578567586285
  Basis Set: (AUG-CC-PVTZ AUX)
    Blend: AUG-CC-PVTZ-RI
    Molecular point group: c1

    Geometry (in Angstrom), charge = 0, multiplicity = 1:

       Center              X                  Y                   Z               Mass
    ------------   -----------------  -----------------  -----------------  -----------------
         N           -1.275622785632    -1.123806260469    -0.283825196346    14.003074004430
         C            0.867410214368    -0.405251260469     0.513753803654    12.000000000000
         C           -0.541252785632    -0.122087260469     0.056329803654    12.000000000000
         C            1.928262214368     0.202199739531    -0.409219196346    12.000000000000
         C           -1.032371585632     1.311832339531     0.204369403654    12.000000000000
         H            0.999795214368    -0.012839260469     1.530656803654     1.007825032230
         H            0.979473214368    -1.491684260469     0.558118803654     1.007825032230
         H            2.930490214368    -0.089680260469    -0.083846196346     1.007825032230
         H            1.886669214368     1.294749739531    -0.413704196346     1.007825032230
         H            1.789871214368    -0.150710260469    -1.435238196346     1.007825032230
         H           -0.740936785632     1.822991739531     0.965348803654     1.007825032230
         H           -0.429792785632     1.867927739531    -0.769421196346     1.007825032230
         H           -2.039492785632     1.414700739531    -0.179315196346     1.007825032230
         H           -2.202843785632    -0.789289260469    -0.577809196346     1.007825032230

  Basis Set: AUG-CC-PVTZ
    Blend: AUG-CC-PVTZ
  Basis Set: (AUG-CC-PVTZ AUX)
    Blend: AUG-CC-PVTZ-JKFIT
	 Reference Energy          =    -211.1913578567586285 [Eh]
	 Singles Energy            =      -0.0000000000000000 [Eh]
	 Same-Spin Energy          =      -0.2210240886292025 [Eh]
	 Opposite-Spin Energy      =      -0.7837419347713690 [Eh]
	 Correlation Energy        =      -1.0047660234005715 [Eh]
	 Total Energy              =    -212.1961238801592060 [Eh]

	 ================> DF-SCS-MP2 Energies <==================
	-----------------------------------------------------------
	 SCS Same-Spin Scale       =       0.3333333333333333 [-]
	 SCS Opposite-Spin Scale   =       1.2000000000000000 [-]
	 SCS Same-Spin Energy      =      -0.0736746962097342 [Eh]
	 SCS Opposite-Spin Energy  =      -0.9404903217256427 [Eh]
	 SCS Correlation Energy    =      -1.0141650179353769 [Eh]
	 SCS Total Energy          =    -212.2055228746939974 [Eh]
	-----------------------------------------------------------

  Dipole Moment: [D]
     X:     0.2992      Y:     2.3664      Z:     0.3596     Total:     2.4122

*** Psi4 exiting successfully. Buy a developer a beer!
