                               Psi4 1.3.2 release

  ==> Input File <==

--------------------------------------------------------------------------
#psi4
#
memory 32 gb

molecule  {
0 1
  N        1.9514160     0.5241040     0.0000050
  C        1.2282460    -0.6072470    -0.0000030
  C       -0.1789070    -0.5171830    -0.0000110
  C       -0.7103380     0.7755800     0.0000000
  N       -0.0279430     1.9332850     0.0000050
  C        1.2911430     1.7045360     0.0000120
  N       -1.1651470    -1.4838950    -0.0000170
  C       -2.2855240    -0.7743080     0.0000440
  N       -2.0747130     0.5813540    -0.0000230
  N        1.8664710    -1.8000490    -0.0000060
  H        1.9266830     2.5875900     0.0000020
  H       -3.2831410    -1.1955370     0.0000680
  H       -2.7752454     1.3134302    -0.2500840
  H        2.8756040    -1.8180060     0.0000090
  H        1.3377970    -2.6593590     0.0000020
units angstrom
no_reorient  #important for SAPT in psi4, default
symmetry c1  #important for SAPT in psi4, default
}

set PROPERTIES_ORIGIN ["COM"]
properties('MP2/aug-cc-pvtz', properties = ['dipole'])
--------------------------------------------------------------------------

    Molecular point group: c1
  Charge       = 0
  Multiplicity = 1
  Basis Set: AUG-CC-PVTZ
    Blend: AUG-CC-PVTZ
  Basis Set: (AUG-CC-PVTZ AUX)
    Blend: AUG-CC-PVTZ-JKFIT

    Orbital Energies [Eh]
    ---------------------

    Doubly Occupied:

       1A    -15.635676     2A    -15.585719     3A    -15.572214
       4A    -15.559548     5A    -15.551905     6A    -11.338884
       7A    -11.326337     8A    -11.317889     9A    -11.312483
      10A    -11.253016    11A     -1.365445    12A     -1.297168
      13A     -1.245306    14A     -1.183690    15A     -1.150680
      16A     -1.032000    17A     -0.894315    18A     -0.874524
      19A     -0.840467    20A     -0.776614    21A     -0.737406
      22A     -0.698689    23A     -0.675542    24A     -0.641088
      25A     -0.628225    26A     -0.611721    27A     -0.589259
      28A     -0.557344    29A     -0.496907    30A     -0.496732
      31A     -0.452874    32A     -0.424574    33A     -0.410729
      34A     -0.373388    35A     -0.307761

  @DF-RHF Final Energy:  -464.67895874800354

   => Energetics <=

    Nuclear Repulsion Energy =            501.6676864361934918
    One-Electron Energy =               -1626.2610467455035632
    Two-Electron Energy =                 659.9144015613065903
    Total Energy =                       -464.6789587480035379
  Basis Set: (AUG-CC-PVTZ AUX)
    Blend: AUG-CC-PVTZ-RI
    Molecular point group: c1

    Geometry (in Angstrom), charge = 0, multiplicity = 1:

       Center              X                  Y                   Z               Mass
    ------------   -----------------  -----------------  -----------------  -----------------
         N            1.952003586166     0.511092797252     0.001870612780    14.003074004430
         C            1.228833586166    -0.620258202748     0.001862612780    12.000000000000
         C           -0.178319413834    -0.530194202748     0.001854612780    12.000000000000
         C           -0.709750413834     0.762568797252     0.001865612780    12.000000000000
         N           -0.027355413834     1.920273797252     0.001870612780    14.003074004430
         C            1.291730586166     1.691524797252     0.001877612780    12.000000000000
         N           -1.164559413834    -1.496906202748     0.001848612780    14.003074004430
         C           -2.284936413834    -0.787319202748     0.001909612780    12.000000000000
         N           -2.074125413834     0.568342797252     0.001842612780    14.003074004430
         N            1.867058586166    -1.813060202748     0.001859612780    14.003074004430
         H            1.927270586166     2.574578797252     0.001867612780     1.007825032230
         H           -3.282553413834    -1.208548202748     0.001933612780     1.007825032230
         H           -2.774657813834     1.300418997252    -0.248218387220     1.007825032230
         H            2.876191586166    -1.831017202748     0.001874612780     1.007825032230
         H            1.338384586166    -2.672370202748     0.001867612780     1.007825032230

  Basis Set: AUG-CC-PVTZ
    Blend: AUG-CC-PVTZ
  Basis Set: (AUG-CC-PVTZ AUX)
    Blend: AUG-CC-PVTZ-JKFIT
	 Reference Energy          =    -464.6789587480035379 [Eh]
	 Singles Energy            =      -0.0000000000000000 [Eh]
	 Same-Spin Energy          =      -0.5065001041252690 [Eh]
	 Opposite-Spin Energy      =      -1.4767038688759591 [Eh]
	 Correlation Energy        =      -1.9832039730012281 [Eh]
	 Total Energy              =    -466.6621627210047905 [Eh]

	 ================> DF-SCS-MP2 Energies <==================
	-----------------------------------------------------------
	 SCS Same-Spin Scale       =       0.3333333333333333 [-]
	 SCS Opposite-Spin Scale   =       1.2000000000000000 [-]
	 SCS Same-Spin Energy      =      -0.1688333680417563 [Eh]
	 SCS Opposite-Spin Energy  =      -1.7720446426511509 [Eh]
	 SCS Correlation Energy    =      -1.9408780106929073 [Eh]
	 SCS Total Energy          =    -466.6198367586964650 [Eh]
	-----------------------------------------------------------

  Dipole Moment: [D]
     X:    -2.2210      Y:    -1.2084      Z:    -0.3721     Total:     2.5557

*** Psi4 exiting successfully. Buy a developer a beer!
