                               Psi4 1.3.2 release

  ==> Input File <==

--------------------------------------------------------------------------
#psi4
#
memory 32 gb

molecule  {
0 1
  N        1.9514160     0.5241040     0.0000050
  C        1.2282460    -0.6072470    -0.0000030
  C       -0.1789070    -0.5171830    -0.0000110
  C       -0.7103380     0.7755800     0.0000000
  N       -0.0279430     1.9332850     0.0000050
  C        1.2911430     1.7045360     0.0000120
  N       -1.1651470    -1.4838950    -0.0000170
  C       -2.2855240    -0.7743080     0.0000440
  N       -2.0747130     0.5813540    -0.0000230
  N        1.8664710    -1.8000490    -0.0000060
  H        1.9266830     2.5875900     0.0000020
  H       -3.2831410    -1.1955370     0.0000680
  H       -2.7752481     1.3134357    -0.1500840
  H        2.8756040    -1.8180060     0.0000090
  H        1.3377970    -2.6593590     0.0000020
units angstrom
no_reorient  #important for SAPT in psi4, default
symmetry c1  #important for SAPT in psi4, default
}

set PROPERTIES_ORIGIN ["COM"]
properties('MP2/aug-cc-pvtz', properties = ['dipole'])
--------------------------------------------------------------------------

    Molecular point group: c1
  Charge       = 0
  Multiplicity = 1
  Basis Set: AUG-CC-PVTZ
    Blend: AUG-CC-PVTZ
  Basis Set: (AUG-CC-PVTZ AUX)
    Blend: AUG-CC-PVTZ-JKFIT

    Orbital Energies [Eh]
    ---------------------

    Doubly Occupied:

       1A    -15.634997     2A    -15.585661     3A    -15.571899
       4A    -15.559464     5A    -15.551768     6A    -11.338835
       7A    -11.326556     8A    -11.318052     9A    -11.312426
      10A    -11.252884    11A     -1.365946    12A     -1.297242
      13A     -1.245272    14A     -1.184865    15A     -1.150941
      16A     -1.032034    17A     -0.894570    18A     -0.875072
      19A     -0.844168    20A     -0.777771    21A     -0.738001
      22A     -0.699319    23A     -0.675557    24A     -0.639416
      25A     -0.630449    26A     -0.612522    27A     -0.589540
      28A     -0.557768    29A     -0.496929    30A     -0.496801
      31A     -0.452757    32A     -0.424376    33A     -0.410696
      34A     -0.373205    35A     -0.307680

  @DF-RHF Final Energy:  -464.68107712064688

   => Energetics <=

    Nuclear Repulsion Energy =            501.7585104025658893
    One-Electron Energy =               -1626.4282935163951151
    Two-Electron Energy =                 659.9887059931822932
    Total Energy =                       -464.6810771206469326
  Basis Set: (AUG-CC-PVTZ AUX)
    Blend: AUG-CC-PVTZ-RI
    Molecular point group: c1

    Geometry (in Angstrom), charge = 0, multiplicity = 1:

       Center              X                  Y                   Z               Mass
    ------------   -----------------  -----------------  -----------------  -----------------
         N            1.952003606314     0.511092756209     0.001124376951    14.003074004430
         C            1.228833606314    -0.620258243791     0.001116376951    12.000000000000
         C           -0.178319393686    -0.530194243791     0.001108376951    12.000000000000
         C           -0.709750393686     0.762568756209     0.001119376951    12.000000000000
         N           -0.027355393686     1.920273756209     0.001124376951    14.003074004430
         C            1.291730606314     1.691524756209     0.001131376951    12.000000000000
         N           -1.164559393686    -1.496906243791     0.001102376951    14.003074004430
         C           -2.284936393686    -0.787319243791     0.001163376951    12.000000000000
         N           -2.074125393686     0.568342756209     0.001096376951    14.003074004430
         N            1.867058606314    -1.813060243791     0.001113376951    14.003074004430
         H            1.927270606314     2.574578756209     0.001121376951     1.007825032230
         H           -3.282553393686    -1.208548243791     0.001187376951     1.007825032230
         H           -2.774660493686     1.300424456209    -0.148964623049     1.007825032230
         H            2.876191606314    -1.831017243791     0.001128376951     1.007825032230
         H            1.338384606314    -2.672370243791     0.001121376951     1.007825032230

  Basis Set: AUG-CC-PVTZ
    Blend: AUG-CC-PVTZ
  Basis Set: (AUG-CC-PVTZ AUX)
    Blend: AUG-CC-PVTZ-JKFIT
	 Reference Energy          =    -464.6810771206468758 [Eh]
	 Singles Energy            =      -0.0000000000000000 [Eh]
	 Same-Spin Energy          =      -0.5063751395898822 [Eh]
	 Opposite-Spin Energy      =      -1.4764021027578995 [Eh]
	 Correlation Energy        =      -1.9827772423477819 [Eh]
	 Total Energy              =    -466.6638543629946412 [Eh]

	 ================> DF-SCS-MP2 Energies <==================
	-----------------------------------------------------------
	 SCS Same-Spin Scale       =       0.3333333333333333 [-]
	 SCS Opposite-Spin Scale   =       1.2000000000000000 [-]
	 SCS Same-Spin Energy      =      -0.1687917131966274 [Eh]
	 SCS Opposite-Spin Energy  =      -1.7716825233094793 [Eh]
	 SCS Correlation Energy    =      -1.9404742365061067 [Eh]
	 SCS Total Energy          =    -466.6215513571530096 [Eh]
	-----------------------------------------------------------

  Dipole Moment: [D]
     X:    -2.2430      Y:    -1.1926      Z:    -0.2246     Total:     2.5502

*** Psi4 exiting successfully. Buy a developer a beer!
