                               Psi4 1.3.2 release

  ==> Input File <==

--------------------------------------------------------------------------
#psi4
#
memory 32 gb

molecule  {
0 1
  N        1.9514160     0.5241040     0.0000050
  C        1.2282460    -0.6072470    -0.0000030
  C       -0.1789070    -0.5171830    -0.0000110
  C       -0.7103380     0.7755800     0.0000000
  N       -0.0279430     1.9332850     0.0000050
  C        1.2911430     1.7045360     0.0000120
  N       -1.1651470    -1.4838950    -0.0000170
  C       -2.2855240    -0.7743080     0.0000440
  N       -2.0747130     0.5813540    -0.0000230
  N        1.8664710    -1.8000490    -0.0000060
  H        1.9266828     2.5875897    -0.1999980
  H       -3.2831410    -1.1955370     0.0000680
  H       -2.7752520     1.3134440    -0.0000840
  H        2.8756040    -1.8180060     0.0000090
  H        1.3377970    -2.6593590     0.0000020
units angstrom
no_reorient  #important for SAPT in psi4, default
symmetry c1  #important for SAPT in psi4, default
}

set PROPERTIES_ORIGIN ["COM"]
properties('MP2/aug-cc-pvtz', properties = ['dipole'])
--------------------------------------------------------------------------

    Molecular point group: c1
  Charge       = 0
  Multiplicity = 1
  Basis Set: AUG-CC-PVTZ
    Blend: AUG-CC-PVTZ
  Basis Set: (AUG-CC-PVTZ AUX)
    Blend: AUG-CC-PVTZ-JKFIT

    Orbital Energies [Eh]
    ---------------------

    Doubly Occupied:

       1A    -15.634740     2A    -15.585691     3A    -15.571867
       4A    -15.559672     5A    -15.551876     6A    -11.338961
       7A    -11.326871     8A    -11.318354     9A    -11.314190
      10A    -11.253050    11A     -1.366412    12A     -1.297392
      13A     -1.245356    14A     -1.185716    15A     -1.151249
      16A     -1.031891    17A     -0.894498    18A     -0.874421
      19A     -0.846503    20A     -0.778128    21A     -0.737946
      22A     -0.698724    23A     -0.675651    24A     -0.638277
      25A     -0.631840    26A     -0.613063    27A     -0.587921
      28A     -0.557516    29A     -0.500884    30A     -0.492131
      31A     -0.452191    32A     -0.424314    33A     -0.410834
      34A     -0.373116    35A     -0.307608

  @DF-RHF Final Energy:  -464.67915128501056

   => Energetics <=

    Nuclear Repulsion Energy =            501.7386197512523722
    One-Electron Energy =               -1626.3778376871796354
    Two-Electron Energy =                 659.9600666509167013
    Total Energy =                       -464.6791512850105619
  Basis Set: (AUG-CC-PVTZ AUX)
    Blend: AUG-CC-PVTZ-RI
    Molecular point group: c1

    Geometry (in Angstrom), charge = 0, multiplicity = 1:

       Center              X                  Y                   Z               Mass
    ------------   -----------------  -----------------  -----------------  -----------------
         N            1.952003636910     0.511092696510     0.001497494865    14.003074004430
         C            1.228833636910    -0.620258303490     0.001489494865    12.000000000000
         C           -0.178319363090    -0.530194303490     0.001481494865    12.000000000000
         C           -0.709750363090     0.762568696510     0.001492494865    12.000000000000
         N           -0.027355363090     1.920273696510     0.001497494865    14.003074004430
         C            1.291730636910     1.691524696510     0.001504494865    12.000000000000
         N           -1.164559363090    -1.496906303490     0.001475494865    14.003074004430
         C           -2.284936363090    -0.787319303490     0.001536494865    12.000000000000
         N           -2.074125363090     0.568342696510     0.001469494865    14.003074004430
         N            1.867058636910    -1.813060303490     0.001486494865    14.003074004430
         H            1.927270436910     2.574578396510    -0.198505505135     1.007825032230
         H           -3.282553363090    -1.208548303490     0.001560494865     1.007825032230
         H           -2.774664363090     1.300432696510     0.001408494865     1.007825032230
         H            2.876191636910    -1.831017303490     0.001501494865     1.007825032230
         H            1.338384636910    -2.672370303490     0.001494494865     1.007825032230

  Basis Set: AUG-CC-PVTZ
    Blend: AUG-CC-PVTZ
  Basis Set: (AUG-CC-PVTZ AUX)
    Blend: AUG-CC-PVTZ-JKFIT
	 Reference Energy          =    -464.6791512850105619 [Eh]
	 Singles Energy            =      -0.0000000000000000 [Eh]
	 Same-Spin Energy          =      -0.5065082994705261 [Eh]
	 Opposite-Spin Energy      =      -1.4765996432951340 [Eh]
	 Correlation Energy        =      -1.9831079427656602 [Eh]
	 Total Energy              =    -466.6622592277762465 [Eh]

	 ================> DF-SCS-MP2 Energies <==================
	-----------------------------------------------------------
	 SCS Same-Spin Scale       =       0.3333333333333333 [-]
	 SCS Opposite-Spin Scale   =       1.2000000000000000 [-]
	 SCS Same-Spin Energy      =      -0.1688360998235087 [Eh]
	 SCS Opposite-Spin Energy  =      -1.7719195719541607 [Eh]
	 SCS Correlation Energy    =      -1.9407556717776695 [Eh]
	 SCS Total Energy          =    -466.6199069567882134 [Eh]
	-----------------------------------------------------------

  Dipole Moment: [D]
     X:    -2.2786      Y:    -1.2098      Z:    -0.0942     Total:     2.5815

*** Psi4 exiting successfully. Buy a developer a beer!
