                               Psi4 1.3.2 release

  ==> Input File <==

--------------------------------------------------------------------------
#psi4
#
memory 32 gb

molecule  {
0 1
  N        1.9514160     0.5241040     0.0000050
  C        1.2282460    -0.6072470    -0.0000030
  C       -0.1789070    -0.5171830    -0.0000110
  C       -0.7103380     0.7755800     0.0000000
  N       -0.0279430     1.9332850     0.0000050
  C        1.2911430     1.7045360     0.0000120
  N       -1.1651470    -1.4838950    -0.0000170
  C       -2.2855240    -0.7743080     0.0000440
  N       -2.0747130     0.5813540    -0.0000230
  N        1.8664710    -1.8000490    -0.0000060
  H        1.9266830     2.5875900     0.0000020
  H       -3.2831410    -1.1955370     0.0000680
  H       -2.7752520     1.3134440    -0.0000840
  H        2.8756040    -1.8180060     0.0000090
  H        1.3377970    -2.6593590     0.0000020
units angstrom
no_reorient  #important for SAPT in psi4, default
symmetry c1  #important for SAPT in psi4, default
}

set PROPERTIES_ORIGIN ["COM"]
properties('MP2/aug-cc-pvtz', properties = ['dipole'])
--------------------------------------------------------------------------

    Molecular point group: c1
  Charge       = 0
  Multiplicity = 1
  Basis Set: AUG-CC-PVTZ
    Blend: AUG-CC-PVTZ
  Basis Set: (AUG-CC-PVTZ AUX)
    Blend: AUG-CC-PVTZ-JKFIT

    Orbital Energies [Eh]
    ---------------------

    Doubly Occupied:

       1A    -15.634604     2A    -15.585627     3A    -15.571713
       4A    -15.559413     5A    -15.551686     6A    -11.338805
       7A    -11.326687     8A    -11.318149     9A    -11.312390
      10A    -11.252807    11A     -1.366248    12A     -1.297286
      13A     -1.245252    14A     -1.185580    15A     -1.151086
      16A     -1.032055    17A     -0.894748    18A     -0.875456
      19A     -0.846358    20A     -0.778411    21A     -0.738319
      22A     -0.699653    23A     -0.675560    24A     -0.637677
      25A     -0.632546    26A     -0.612935    27A     -0.589685
      28A     -0.558007    29A     -0.496965    30A     -0.496809
      31A     -0.452687    32A     -0.424260    33A     -0.410675
      34A     -0.373096    35A     -0.307633

  @DF-RHF Final Energy:  -464.68205480708616

   => Energetics <=

    Nuclear Repulsion Energy =            501.8114084721964900
    One-Electron Energy =               -1626.5251892399944609
    Two-Electron Energy =                 660.0317259607118103
    Total Energy =                       -464.6820548070861605
  Basis Set: (AUG-CC-PVTZ AUX)
    Blend: AUG-CC-PVTZ-RI
    Molecular point group: c1

    Geometry (in Angstrom), charge = 0, multiplicity = 1:

       Center              X                  Y                   Z               Mass
    ------------   -----------------  -----------------  -----------------  -----------------
         N            1.952003635417     0.511092694272     0.000005023206    14.003074004430
         C            1.228833635417    -0.620258305728    -0.000002976794    12.000000000000
         C           -0.178319364583    -0.530194305728    -0.000010976794    12.000000000000
         C           -0.709750364583     0.762568694272     0.000000023206    12.000000000000
         N           -0.027355364583     1.920273694272     0.000005023206    14.003074004430
         C            1.291730635417     1.691524694272     0.000012023206    12.000000000000
         N           -1.164559364583    -1.496906305728    -0.000016976794    14.003074004430
         C           -2.284936364583    -0.787319305728     0.000044023206    12.000000000000
         N           -2.074125364583     0.568342694272    -0.000022976794    14.003074004430
         N            1.867058635417    -1.813060305728    -0.000005976794    14.003074004430
         H            1.927270635417     2.574578694272     0.000002023206     1.007825032230
         H           -3.282553364583    -1.208548305728     0.000068023206     1.007825032230
         H           -2.774664364583     1.300432694272    -0.000083976794     1.007825032230
         H            2.876191635417    -1.831017305728     0.000009023206     1.007825032230
         H            1.338384635417    -2.672370305728     0.000002023206     1.007825032230

  Basis Set: AUG-CC-PVTZ
    Blend: AUG-CC-PVTZ
  Basis Set: (AUG-CC-PVTZ AUX)
    Blend: AUG-CC-PVTZ-JKFIT
	 Reference Energy          =    -464.6820548070861605 [Eh]
	 Singles Energy            =      -0.0000000000000000 [Eh]
	 Same-Spin Energy          =      -0.5063050703480583 [Eh]
	 Opposite-Spin Energy      =      -1.4762476150743349 [Eh]
	 Correlation Energy        =      -1.9825526854223932 [Eh]
	 Total Energy              =    -466.6646074925085372 [Eh]

	 ================> DF-SCS-MP2 Energies <==================
	-----------------------------------------------------------
	 SCS Same-Spin Scale       =       0.3333333333333333 [-]
	 SCS Opposite-Spin Scale   =       1.2000000000000000 [-]
	 SCS Same-Spin Energy      =      -0.1687683567826861 [Eh]
	 SCS Opposite-Spin Energy  =      -1.7714971380892017 [Eh]
	 SCS Correlation Energy    =      -1.9402654948718878 [Eh]
	 SCS Total Energy          =    -466.6223203019580410 [Eh]
	-----------------------------------------------------------

  Dipole Moment: [D]
     X:    -2.2559      Y:    -1.1833      Z:    -0.0000     Total:     2.5474

*** Psi4 exiting successfully. Buy a developer a beer!
