                               Psi4 1.3.2 release

  ==> Input File <==

--------------------------------------------------------------------------
#psi4
#
memory 32 gb

molecule  {
0 1
  N        1.9514160     0.5241040     0.0000050
  C        1.2282460    -0.6072470    -0.0000030
  C       -0.1789070    -0.5171830    -0.0000110
  C       -0.7103380     0.7755800     0.0000000
  N       -0.0279430     1.9332850     0.0000050
  C        1.2911430     1.7045360     0.0000120
  N       -1.1651470    -1.4838950    -0.0000170
  C       -2.2855240    -0.7743080     0.0000440
  N       -2.0747130     0.5813540    -0.0000230
  N        1.8664705    -1.8000495     0.0999940
  H        1.9266830     2.5875900     0.0000020
  H       -3.2831410    -1.1955370     0.0000680
  H       -2.7752520     1.3134440    -0.0000840
  H        2.8756040    -1.8180060     0.0000090
  H        1.3377970    -2.6593590     0.0000020
units angstrom
no_reorient  #important for SAPT in psi4, default
symmetry c1  #important for SAPT in psi4, default
}

set PROPERTIES_ORIGIN ["COM"]
properties('MP2/aug-cc-pvtz', properties = ['dipole'])
--------------------------------------------------------------------------

    Molecular point group: c1
  Charge       = 0
  Multiplicity = 1
  Basis Set: AUG-CC-PVTZ
    Blend: AUG-CC-PVTZ
  Basis Set: (AUG-CC-PVTZ AUX)
    Blend: AUG-CC-PVTZ-JKFIT

    Orbital Energies [Eh]
    ---------------------

    Doubly Occupied:

       1A    -15.634926     2A    -15.586086     3A    -15.571941
       4A    -15.560161     5A    -15.552329     6A    -11.338819
       7A    -11.327099     8A    -11.318589     9A    -11.312680
      10A    -11.253343    11A     -1.366606    12A     -1.297139
      13A     -1.244638    14A     -1.185515    15A     -1.151104
      16A     -1.032265    17A     -0.894487    18A     -0.875546
      19A     -0.846598    20A     -0.777415    21A     -0.736616
      22A     -0.698421    23A     -0.674722    24A     -0.638535
      25A     -0.631772    26A     -0.612286    27A     -0.589936
      28A     -0.557542    29A     -0.497328    30A     -0.497030
      31A     -0.453054    32A     -0.424865    33A     -0.410973
      34A     -0.373532    35A     -0.308430

  @DF-RHF Final Energy:  -464.68134570111374

   => Energetics <=

    Nuclear Repulsion Energy =            501.6984321445625596
    One-Electron Energy =               -1626.2949032925137089
    Two-Electron Energy =                 659.9151254468374646
    Total Energy =                       -464.6813457011137416
  Basis Set: (AUG-CC-PVTZ AUX)
    Blend: AUG-CC-PVTZ-RI
    Molecular point group: c1

    Geometry (in Angstrom), charge = 0, multiplicity = 1:

       Center              X                  Y                   Z               Mass
    ------------   -----------------  -----------------  -----------------  -----------------
         N            1.952003687260     0.511092746114    -0.010363438788    14.003074004430
         C            1.228833687260    -0.620258253886    -0.010371438788    12.000000000000
         C           -0.178319312740    -0.530194253886    -0.010379438788    12.000000000000
         C           -0.709750312740     0.762568746114    -0.010368438788    12.000000000000
         N           -0.027355312740     1.920273746114    -0.010363438788    14.003074004430
         C            1.291730687260     1.691524746114    -0.010356438788    12.000000000000
         N           -1.164559312740    -1.496906253886    -0.010385438788    14.003074004430
         C           -2.284936312740    -0.787319253886    -0.010324438788    12.000000000000
         N           -2.074125312740     0.568342746114    -0.010391438788    14.003074004430
         N            1.867058187260    -1.813060753886     0.089625561212    14.003074004430
         H            1.927270687260     2.574578746114    -0.010366438788     1.007825032230
         H           -3.282553312740    -1.208548253886    -0.010300438788     1.007825032230
         H           -2.774664312740     1.300432746114    -0.010452438788     1.007825032230
         H            2.876191687260    -1.831017253886    -0.010359438788     1.007825032230
         H            1.338384687260    -2.672370253886    -0.010366438788     1.007825032230

  Basis Set: AUG-CC-PVTZ
    Blend: AUG-CC-PVTZ
  Basis Set: (AUG-CC-PVTZ AUX)
    Blend: AUG-CC-PVTZ-JKFIT
	 Reference Energy          =    -464.6813457011137416 [Eh]
	 Singles Energy            =      -0.0000000000000000 [Eh]
	 Same-Spin Energy          =      -0.5063912929193125 [Eh]
	 Opposite-Spin Energy      =      -1.4764923339249225 [Eh]
	 Correlation Energy        =      -1.9828836268442349 [Eh]
	 Total Energy              =    -466.6642293279579690 [Eh]

	 ================> DF-SCS-MP2 Energies <==================
	-----------------------------------------------------------
	 SCS Same-Spin Scale       =       0.3333333333333333 [-]
	 SCS Opposite-Spin Scale   =       1.2000000000000000 [-]
	 SCS Same-Spin Energy      =      -0.1687970976397708 [Eh]
	 SCS Opposite-Spin Energy  =      -1.7717908007099070 [Eh]
	 SCS Correlation Energy    =      -1.9405878983496778 [Eh]
	 SCS Total Energy          =    -466.6219335994634321 [Eh]
	-----------------------------------------------------------

  Dipole Moment: [D]
     X:    -2.2951      Y:    -1.1298      Z:    -0.2519     Total:     2.5705

*** Psi4 exiting successfully. Buy a developer a beer!
