                               Psi4 1.3.2 release

  ==> Input File <==

--------------------------------------------------------------------------
#psi4
#
memory 32 gb

molecule  {
0 1
  N        1.9514160     0.5241040     0.0000050
  C        1.2282460    -0.6072470    -0.0000030
  C       -0.1789070    -0.5171830    -0.0000110
  C       -0.7103380     0.7755800     0.0000000
  N       -0.0279430     1.9332850     0.0000050
  C        1.2911430     1.7045360     0.0000120
  N       -1.1651477    -1.4838964     0.1999830
  C       -2.2855240    -0.7743080     0.0000440
  N       -2.0747130     0.5813540    -0.0000230
  N        1.8664710    -1.8000490    -0.0000060
  H        1.9266830     2.5875900     0.0000020
  H       -3.2831410    -1.1955370     0.0000680
  H       -2.7752520     1.3134440    -0.0000840
  H        2.8756040    -1.8180060     0.0000090
  H        1.3377970    -2.6593590     0.0000020
units angstrom
no_reorient  #important for SAPT in psi4, default
symmetry c1  #important for SAPT in psi4, default
}

set PROPERTIES_ORIGIN ["COM"]
properties('MP2/aug-cc-pvtz', properties = ['dipole'])
--------------------------------------------------------------------------

    Molecular point group: c1
  Charge       = 0
  Multiplicity = 1
  Basis Set: AUG-CC-PVTZ
    Blend: AUG-CC-PVTZ
  Basis Set: (AUG-CC-PVTZ AUX)
    Blend: AUG-CC-PVTZ-JKFIT

    Orbital Energies [Eh]
    ---------------------

    Doubly Occupied:

       1A    -15.635423     2A    -15.585509     3A    -15.574522
       4A    -15.559839     5A    -15.551790     6A    -11.338513
       7A    -11.329934     8A    -11.318817     9A    -11.312546
      10A    -11.253652    11A     -1.364368    12A     -1.297038
      13A     -1.244530    14A     -1.182106    15A     -1.150961
      16A     -1.031143    17A     -0.894643    18A     -0.874243
      19A     -0.846795    20A     -0.778397    21A     -0.737599
      22A     -0.699061    23A     -0.673240    24A     -0.636874
      25A     -0.630587    26A     -0.611933    27A     -0.589169
      28A     -0.556982    29A     -0.502187    30A     -0.492890
      31A     -0.453101    32A     -0.423199    33A     -0.409053
      34A     -0.372842    35A     -0.306558

  @DF-RHF Final Energy:  -464.67233727580009

   => Energetics <=

    Nuclear Repulsion Energy =            501.2891050397101935
    One-Electron Energy =               -1625.4827986704688101
    Two-Electron Energy =                 659.5213563549584705
    Total Energy =                       -464.6723372758001460
  Basis Set: (AUG-CC-PVTZ AUX)
    Blend: AUG-CC-PVTZ-RI
    Molecular point group: c1

    Geometry (in Angstrom), charge = 0, multiplicity = 1:

       Center              X                  Y                   Z               Mass
    ------------   -----------------  -----------------  -----------------  -----------------
         N            1.952003707997     0.511092839430    -0.020731900782    14.003074004430
         C            1.228833707997    -0.620258160570    -0.020739900782    12.000000000000
         C           -0.178319292003    -0.530194160570    -0.020747900782    12.000000000000
         C           -0.709750292003     0.762568839430    -0.020736900782    12.000000000000
         N           -0.027355292003     1.920273839430    -0.020731900782    14.003074004430
         C            1.291730707997     1.691524839430    -0.020724900782    12.000000000000
         N           -1.164559992003    -1.496907560570     0.179246099218    14.003074004430
         C           -2.284936292003    -0.787319160570    -0.020692900782    12.000000000000
         N           -2.074125292003     0.568342839430    -0.020759900782    14.003074004430
         N            1.867058707997    -1.813060160570    -0.020742900782    14.003074004430
         H            1.927270707997     2.574578839430    -0.020734900782     1.007825032230
         H           -3.282553292003    -1.208548160570    -0.020668900782     1.007825032230
         H           -2.774664292003     1.300432839430    -0.020820900782     1.007825032230
         H            2.876191707997    -1.831017160570    -0.020727900782     1.007825032230
         H            1.338384707997    -2.672370160570    -0.020734900782     1.007825032230

  Basis Set: AUG-CC-PVTZ
    Blend: AUG-CC-PVTZ
  Basis Set: (AUG-CC-PVTZ AUX)
    Blend: AUG-CC-PVTZ-JKFIT
	 Reference Energy          =    -464.6723372758000892 [Eh]
	 Singles Energy            =      -0.0000000000000000 [Eh]
	 Same-Spin Energy          =      -0.5067655975712644 [Eh]
	 Opposite-Spin Energy      =      -1.4775850007154931 [Eh]
	 Correlation Energy        =      -1.9843505982867575 [Eh]
	 Total Energy              =    -466.6566878740868560 [Eh]

	 ================> DF-SCS-MP2 Energies <==================
	-----------------------------------------------------------
	 SCS Same-Spin Scale       =       0.3333333333333333 [-]
	 SCS Opposite-Spin Scale   =       1.2000000000000000 [-]
	 SCS Same-Spin Energy      =      -0.1689218658570881 [Eh]
	 SCS Opposite-Spin Energy  =      -1.7731020008585918 [Eh]
	 SCS Correlation Energy    =      -1.9420238667156799 [Eh]
	 SCS Total Energy          =    -466.6143611425157474 [Eh]
	-----------------------------------------------------------

  Dipole Moment: [D]
     X:    -2.2423      Y:    -1.1647      Z:    -0.2643     Total:     2.5405

*** Psi4 exiting successfully. Buy a developer a beer!
