                               Psi4 1.3.2 release

  ==> Input File <==

--------------------------------------------------------------------------
#psi4
#
memory 32 gb

molecule  {
0 1
  N        1.9514160     0.5241040     0.0000050
  C        1.2282460    -0.6072470    -0.0000030
  C       -0.1789070    -0.5171830    -0.0000110
  C       -0.7103380     0.7755800     0.0000000
  N       -0.0279430     1.9332850     0.0000050
  C        1.2911430     1.7045360     0.0000120
  N       -1.1651470    -1.4838950    -0.0000170
  C       -2.2855240    -0.7743080     0.0000440
  N       -2.0747130     0.5813540    -0.0000230
  N        1.8664710    -1.8000490    -0.0000060
  H        1.9266830     2.5875900     0.0000020
  H       -3.2831410    -1.1955370     0.0000680
  H       -2.7752441     1.3134275    -0.3000840
  H        2.8756040    -1.8180060     0.0000090
  H        1.3377970    -2.6593590     0.0000020
units angstrom
no_reorient  #important for SAPT in psi4, default
symmetry c1  #important for SAPT in psi4, default
}

set PROPERTIES_ORIGIN ["COM"]
properties('MP2/aug-cc-pvtz', properties = ['dipole'])
--------------------------------------------------------------------------

    Molecular point group: c1
  Charge       = 0
  Multiplicity = 1
  Basis Set: AUG-CC-PVTZ
    Blend: AUG-CC-PVTZ
  Basis Set: (AUG-CC-PVTZ AUX)
    Blend: AUG-CC-PVTZ-JKFIT

    Orbital Energies [Eh]
    ---------------------

    Doubly Occupied:

       1A    -15.636128     2A    -15.585757     3A    -15.572419
       4A    -15.559601     5A    -15.551994     6A    -11.338917
       7A    -11.326196     8A    -11.317783     9A    -11.312519
      10A    -11.253104    11A     -1.365125    12A     -1.297121
      13A     -1.245328    14A     -1.182947    15A     -1.150500
      16A     -1.031978    17A     -0.894172    18A     -0.874221
      19A     -0.838088    20A     -0.775810    21A     -0.736978
      22A     -0.698232    23A     -0.675524    24A     -0.641845
      25A     -0.627142    26A     -0.611127    27A     -0.589047
      28A     -0.557054    29A     -0.496912    30A     -0.496656
      31A     -0.452949    32A     -0.424703    33A     -0.410749
      34A     -0.373506    35A     -0.307814

  @DF-RHF Final Energy:  -464.67725888749783

   => Energetics <=

    Nuclear Repulsion Energy =            501.6074803069983545
    One-Electron Energy =               -1626.1495823698251115
    Two-Electron Energy =                 659.8648431753290424
    Total Energy =                       -464.6772588874978283
  Basis Set: (AUG-CC-PVTZ AUX)
    Blend: AUG-CC-PVTZ-RI
    Molecular point group: c1

    Geometry (in Angstrom), charge = 0, multiplicity = 1:

       Center              X                  Y                   Z               Mass
    ------------   -----------------  -----------------  -----------------  -----------------
         N            1.952003576465     0.511092817400     0.002243730695    14.003074004430
         C            1.228833576465    -0.620258182600     0.002235730695    12.000000000000
         C           -0.178319423535    -0.530194182600     0.002227730695    12.000000000000
         C           -0.709750423535     0.762568817400     0.002238730695    12.000000000000
         N           -0.027355423535     1.920273817400     0.002243730695    14.003074004430
         C            1.291730576465     1.691524817400     0.002250730695    12.000000000000
         N           -1.164559423535    -1.496906182600     0.002221730695    14.003074004430
         C           -2.284936423535    -0.787319182600     0.002282730695    12.000000000000
         N           -2.074125423535     0.568342817400     0.002215730695    14.003074004430
         N            1.867058576465    -1.813060182600     0.002232730695    14.003074004430
         H            1.927270576465     2.574578817400     0.002240730695     1.007825032230
         H           -3.282553423535    -1.208548182600     0.002306730695     1.007825032230
         H           -2.774656523535     1.300416317400    -0.297845269305     1.007825032230
         H            2.876191576465    -1.831017182600     0.002247730695     1.007825032230
         H            1.338384576465    -2.672370182600     0.002240730695     1.007825032230

  Basis Set: AUG-CC-PVTZ
    Blend: AUG-CC-PVTZ
  Basis Set: (AUG-CC-PVTZ AUX)
    Blend: AUG-CC-PVTZ-JKFIT
	 Reference Energy          =    -464.6772588874978283 [Eh]
	 Singles Energy            =      -0.0000000000000000 [Eh]
	 Same-Spin Energy          =      -0.5065859935147198 [Eh]
	 Opposite-Spin Energy      =      -1.4769245134089251 [Eh]
	 Correlation Energy        =      -1.9835105069236447 [Eh]
	 Total Energy              =    -466.6607693944214930 [Eh]

	 ================> DF-SCS-MP2 Energies <==================
	-----------------------------------------------------------
	 SCS Same-Spin Scale       =       0.3333333333333333 [-]
	 SCS Opposite-Spin Scale   =       1.2000000000000000 [-]
	 SCS Same-Spin Energy      =      -0.1688619978382399 [Eh]
	 SCS Opposite-Spin Energy  =      -1.7723094160907100 [Eh]
	 SCS Correlation Energy    =      -1.9411714139289500 [Eh]
	 SCS Total Energy          =    -466.6184303014267698 [Eh]
	-----------------------------------------------------------

  Dipole Moment: [D]
     X:    -2.2065      Y:    -1.2188      Z:    -0.4448     Total:     2.5597

*** Psi4 exiting successfully. Buy a developer a beer!
