                               Psi4 1.3.2 release

  ==> Input File <==

--------------------------------------------------------------------------
#psi4
#
memory 32 gb

molecule  {
0 1
  N        1.9514160     0.5241040     0.0000050
  C        1.2282460    -0.6072470    -0.0000030
  C       -0.1789070    -0.5171830    -0.0000110
  C       -0.7103380     0.7755800     0.0000000
  N       -0.0279430     1.9332850     0.0000050
  C        1.2911430     1.7045360     0.0000120
  N       -1.1651470    -1.4838950    -0.0000170
  C       -2.2855240    -0.7743080     0.0000440
  N       -2.0747130     0.5813540    -0.0000230
  N        1.8664710    -1.8000490    -0.0000060
  H        1.9266828     2.5875898    -0.1499980
  H       -3.2831410    -1.1955370     0.0000680
  H       -2.7752520     1.3134440    -0.0000840
  H        2.8756040    -1.8180060     0.0000090
  H        1.3377970    -2.6593590     0.0000020
units angstrom
no_reorient  #important for SAPT in psi4, default
symmetry c1  #important for SAPT in psi4, default
}

set PROPERTIES_ORIGIN ["COM"]
properties('MP2/aug-cc-pvtz', properties = ['dipole'])
--------------------------------------------------------------------------

    Molecular point group: c1
  Charge       = 0
  Multiplicity = 1
  Basis Set: AUG-CC-PVTZ
    Blend: AUG-CC-PVTZ
  Basis Set: (AUG-CC-PVTZ AUX)
    Blend: AUG-CC-PVTZ-JKFIT

    Orbital Energies [Eh]
    ---------------------

    Doubly Occupied:

       1A    -15.634680     2A    -15.585662     3A    -15.571800
       4A    -15.559558     5A    -15.551792     6A    -11.338892
       7A    -11.326790     8A    -11.318264     9A    -11.313409
      10A    -11.252944    11A     -1.366340    12A     -1.297345
      13A     -1.245310    14A     -1.185656    15A     -1.151177
      16A     -1.031959    17A     -0.894597    18A     -0.874866
      19A     -0.846440    20A     -0.778246    21A     -0.738102
      22A     -0.699124    23A     -0.675611    24A     -0.638039
      25A     -0.632119    26A     -0.613006    27A     -0.588688
      28A     -0.557732    29A     -0.499961    30A     -0.493383
      31A     -0.452414    32A     -0.424291    33A     -0.410764
      34A     -0.373106    35A     -0.307618

  @DF-RHF Final Energy:  -464.68045472151704

   => Energetics <=

    Nuclear Repulsion Energy =            501.7701365968031837
    One-Electron Energy =               -1626.4418097893528738
    Two-Electron Energy =                 659.9912184710325391
    Total Energy =                       -464.6804547215170942
  Basis Set: (AUG-CC-PVTZ AUX)
    Blend: AUG-CC-PVTZ-RI
    Molecular point group: c1

    Geometry (in Angstrom), charge = 0, multiplicity = 1:

       Center              X                  Y                   Z               Mass
    ------------   -----------------  -----------------  -----------------  -----------------
         N            1.952003636910     0.511092695764     0.001124376951    14.003074004430
         C            1.228833636910    -0.620258304236     0.001116376951    12.000000000000
         C           -0.178319363090    -0.530194304236     0.001108376951    12.000000000000
         C           -0.709750363090     0.762568695764     0.001119376951    12.000000000000
         N           -0.027355363090     1.920273695764     0.001124376951    14.003074004430
         C            1.291730636910     1.691524695764     0.001131376951    12.000000000000
         N           -1.164559363090    -1.496906304236     0.001102376951    14.003074004430
         C           -2.284936363090    -0.787319304236     0.001163376951    12.000000000000
         N           -2.074125363090     0.568342695764     0.001096376951    14.003074004430
         N            1.867058636910    -1.813060304236     0.001113376951    14.003074004430
         H            1.927270436910     2.574578495764    -0.148878623049     1.007825032230
         H           -3.282553363090    -1.208548304236     0.001187376951     1.007825032230
         H           -2.774664363090     1.300432695764     0.001035376951     1.007825032230
         H            2.876191636910    -1.831017304236     0.001128376951     1.007825032230
         H            1.338384636910    -2.672370304236     0.001121376951     1.007825032230

  Basis Set: AUG-CC-PVTZ
    Blend: AUG-CC-PVTZ
  Basis Set: (AUG-CC-PVTZ AUX)
    Blend: AUG-CC-PVTZ-JKFIT
	 Reference Energy          =    -464.6804547215170373 [Eh]
	 Singles Energy            =      -0.0000000000000000 [Eh]
	 Same-Spin Energy          =      -0.5064194954621790 [Eh]
	 Opposite-Spin Energy      =      -1.4764389210301345 [Eh]
	 Correlation Energy        =      -1.9828584164923135 [Eh]
	 Total Energy              =    -466.6633131380093573 [Eh]

	 ================> DF-SCS-MP2 Energies <==================
	-----------------------------------------------------------
	 SCS Same-Spin Scale       =       0.3333333333333333 [-]
	 SCS Opposite-Spin Scale   =       1.2000000000000000 [-]
	 SCS Same-Spin Energy      =      -0.1688064984873930 [Eh]
	 SCS Opposite-Spin Energy  =      -1.7717267052361614 [Eh]
	 SCS Correlation Energy    =      -1.9405332037235543 [Eh]
	 SCS Total Energy          =    -466.6209879252405699 [Eh]
	-----------------------------------------------------------

  Dipole Moment: [D]
     X:    -2.2687      Y:    -1.1982      Z:    -0.0709     Total:     2.5666

*** Psi4 exiting successfully. Buy a developer a beer!
