                               Psi4 1.3.2 release

  ==> Input File <==

--------------------------------------------------------------------------
#psi4
#
memory 32 gb

molecule  {
0 1
  N        1.9514160     0.5241040     0.0000050
  C        1.2282460    -0.6072470    -0.0000030
  C       -0.1789070    -0.5171830    -0.0000110
  C       -0.7103380     0.7755800     0.0000000
  N       -0.0279430     1.9332850     0.0000050
  C        1.2911430     1.7045360     0.0000120
  N       -1.1651470    -1.4838950    -0.0000170
  C       -2.2855240    -0.7743080     0.0000440
  N       -2.0747140     0.5813534     0.0999770
  N        1.8664710    -1.8000490    -0.0000060
  H        1.9266830     2.5875900     0.0000020
  H       -3.2831410    -1.1955370     0.0000680
  H       -2.7752520     1.3134440    -0.0000840
  H        2.8756040    -1.8180060     0.0000090
  H        1.3377970    -2.6593590     0.0000020
units angstrom
no_reorient  #important for SAPT in psi4, default
symmetry c1  #important for SAPT in psi4, default
}

set PROPERTIES_ORIGIN ["COM"]
properties('MP2/aug-cc-pvtz', properties = ['dipole'])
--------------------------------------------------------------------------

    Molecular point group: c1
  Charge       = 0
  Multiplicity = 1
  Basis Set: AUG-CC-PVTZ
    Blend: AUG-CC-PVTZ
  Basis Set: (AUG-CC-PVTZ AUX)
    Blend: AUG-CC-PVTZ-JKFIT

    Orbital Energies [Eh]
    ---------------------

    Doubly Occupied:

       1A    -15.634508     2A    -15.585788     3A    -15.572396
       4A    -15.559673     5A    -15.552003     6A    -11.338987
       7A    -11.327064     8A    -11.318552     9A    -11.312638
      10A    -11.253173    11A     -1.365194    12A     -1.297269
      13A     -1.245445    14A     -1.185174    15A     -1.151138
      16A     -1.031968    17A     -0.894177    18A     -0.875273
      19A     -0.844491    20A     -0.777796    21A     -0.737880
      22A     -0.699068    23A     -0.675391    24A     -0.638463
      25A     -0.631601    26A     -0.612306    27A     -0.589338
      28A     -0.557987    29A     -0.497905    30A     -0.496008
      31A     -0.452990    32A     -0.424994    33A     -0.410887
      34A     -0.373426    35A     -0.307744

  @DF-RHF Final Energy:  -464.68012436342241

   => Energetics <=

    Nuclear Repulsion Energy =            501.6673285980445485
    One-Electron Energy =               -1626.2375156389421136
    Two-Electron Energy =                 659.8900626774751572
    Total Energy =                       -464.6801243634223511
  Basis Set: (AUG-CC-PVTZ AUX)
    Blend: AUG-CC-PVTZ-RI
    Molecular point group: c1

    Geometry (in Angstrom), charge = 0, multiplicity = 1:

       Center              X                  Y                   Z               Mass
    ------------   -----------------  -----------------  -----------------  -----------------
         N            1.952003739102     0.511092756482    -0.010363438788    14.003074004430
         C            1.228833739102    -0.620258243518    -0.010371438788    12.000000000000
         C           -0.178319260898    -0.530194243518    -0.010379438788    12.000000000000
         C           -0.709750260898     0.762568756482    -0.010368438788    12.000000000000
         N           -0.027355260898     1.920273756482    -0.010363438788    14.003074004430
         C            1.291730739102     1.691524756482    -0.010356438788    12.000000000000
         N           -1.164559260898    -1.496906243518    -0.010385438788    14.003074004430
         C           -2.284936260898    -0.787319243518    -0.010324438788    12.000000000000
         N           -2.074126260898     0.568342156482     0.089608561212    14.003074004430
         N            1.867058739102    -1.813060243518    -0.010374438788    14.003074004430
         H            1.927270739102     2.574578756482    -0.010366438788     1.007825032230
         H           -3.282553260898    -1.208548243518    -0.010300438788     1.007825032230
         H           -2.774664260898     1.300432756482    -0.010452438788     1.007825032230
         H            2.876191739102    -1.831017243518    -0.010359438788     1.007825032230
         H            1.338384739102    -2.672370243518    -0.010366438788     1.007825032230

  Basis Set: AUG-CC-PVTZ
    Blend: AUG-CC-PVTZ
  Basis Set: (AUG-CC-PVTZ AUX)
    Blend: AUG-CC-PVTZ-JKFIT
	 Reference Energy          =    -464.6801243634224079 [Eh]
	 Singles Energy            =      -0.0000000000000000 [Eh]
	 Same-Spin Energy          =      -0.5063361729136278 [Eh]
	 Opposite-Spin Energy      =      -1.4764326220064405 [Eh]
	 Correlation Energy        =      -1.9827687949200683 [Eh]
	 Total Energy              =    -466.6628931583424560 [Eh]

	 ================> DF-SCS-MP2 Energies <==================
	-----------------------------------------------------------
	 SCS Same-Spin Scale       =       0.3333333333333333 [-]
	 SCS Opposite-Spin Scale   =       1.2000000000000000 [-]
	 SCS Same-Spin Energy      =      -0.1687787243045426 [Eh]
	 SCS Opposite-Spin Energy  =      -1.7717191464077287 [Eh]
	 SCS Correlation Energy    =      -1.9404978707122713 [Eh]
	 SCS Total Energy          =    -466.6206222341346574 [Eh]
	-----------------------------------------------------------

  Dipole Moment: [D]
     X:    -2.2212      Y:    -1.2042      Z:    -0.1005     Total:     2.5286

*** Psi4 exiting successfully. Buy a developer a beer!
