                               Psi4 1.3.2 release

  ==> Input File <==

--------------------------------------------------------------------------
#psi4
#
memory 32 gb

molecule  {
0 1
  N        1.9514160     0.5241040     0.0000050
  C        1.2282460    -0.6072470    -0.0000030
  C       -0.1789070    -0.5171830    -0.0000110
  C       -0.7103380     0.7755800     0.0000000
  N       -0.0279430     1.9332850     0.0000050
  C        1.2911430     1.7045360     0.0000120
  N       -1.1651470    -1.4838950    -0.0000170
  C       -2.2855240    -0.7743080     0.0000440
  N       -2.0747130     0.5813540    -0.0000230
  N        1.8664710    -1.8000490    -0.0000060
  H        1.9266830     2.5875900     0.0000020
  H       -3.2831410    -1.1955370     0.0000680
  H       -2.7752520     1.3134440    -0.0000840
  H        2.8756040    -1.8180060     0.0000090
  H        1.3377979    -2.6593593    -0.1499980
units angstrom
no_reorient  #important for SAPT in psi4, default
symmetry c1  #important for SAPT in psi4, default
}

set PROPERTIES_ORIGIN ["COM"]
properties('MP2/aug-cc-pvtz', properties = ['dipole'])
--------------------------------------------------------------------------

    Molecular point group: c1
  Charge       = 0
  Multiplicity = 1
  Basis Set: AUG-CC-PVTZ
    Blend: AUG-CC-PVTZ
  Basis Set: (AUG-CC-PVTZ AUX)
    Blend: AUG-CC-PVTZ-JKFIT

    Orbital Energies [Eh]
    ---------------------

    Doubly Occupied:

       1A    -15.634647     2A    -15.586214     3A    -15.571690
       4A    -15.559617     5A    -15.551820     6A    -11.338635
       7A    -11.326738     8A    -11.318223     9A    -11.312412
      10A    -11.252895    11A     -1.366295    12A     -1.297153
      13A     -1.244767    14A     -1.185337    15A     -1.150740
      16A     -1.031970    17A     -0.894375    18A     -0.875389
      19A     -0.846325    20A     -0.777273    21A     -0.738091
      22A     -0.698466    23A     -0.674550    24A     -0.637715
      25A     -0.632437    26A     -0.612663    27A     -0.589697
      28A     -0.557551    29A     -0.497389    30A     -0.496269
      31A     -0.452730    32A     -0.424303    33A     -0.410743
      34A     -0.373165    35A     -0.307818

  @DF-RHF Final Energy:  -464.68135925367631

   => Energetics <=

    Nuclear Repulsion Energy =            501.7587252358135856
    One-Electron Energy =               -1626.4279702861260830
    Two-Electron Energy =                 659.9878857966360783
    Total Energy =                       -464.6813592536763053
  Basis Set: (AUG-CC-PVTZ AUX)
    Blend: AUG-CC-PVTZ-RI
    Molecular point group: c1

    Geometry (in Angstrom), charge = 0, multiplicity = 1:

       Center              X                  Y                   Z               Mass
    ------------   -----------------  -----------------  -----------------  -----------------
         N            1.952003628701     0.511092696510     0.001124376951    14.003074004430
         C            1.228833628701    -0.620258303490     0.001116376951    12.000000000000
         C           -0.178319371299    -0.530194303490     0.001108376951    12.000000000000
         C           -0.709750371299     0.762568696510     0.001119376951    12.000000000000
         N           -0.027355371299     1.920273696510     0.001124376951    14.003074004430
         C            1.291730628701     1.691524696510     0.001131376951    12.000000000000
         N           -1.164559371299    -1.496906303490     0.001102376951    14.003074004430
         C           -2.284936371299    -0.787319303490     0.001163376951    12.000000000000
         N           -2.074125371299     0.568342696510     0.001096376951    14.003074004430
         N            1.867058628701    -1.813060303490     0.001113376951    14.003074004430
         H            1.927270628701     2.574578696510     0.001121376951     1.007825032230
         H           -3.282553371299    -1.208548303490     0.001187376951     1.007825032230
         H           -2.774664371299     1.300432696510     0.001035376951     1.007825032230
         H            2.876191628701    -1.831017303490     0.001128376951     1.007825032230
         H            1.338385528701    -2.672370603490    -0.148878623049     1.007825032230

  Basis Set: AUG-CC-PVTZ
    Blend: AUG-CC-PVTZ
  Basis Set: (AUG-CC-PVTZ AUX)
    Blend: AUG-CC-PVTZ-JKFIT
	 Reference Energy          =    -464.6813592536763053 [Eh]
	 Singles Energy            =      -0.0000000000000000 [Eh]
	 Same-Spin Energy          =      -0.5063814191895778 [Eh]
	 Opposite-Spin Energy      =      -1.4764307381654731 [Eh]
	 Correlation Energy        =      -1.9828121573550508 [Eh]
	 Total Energy              =    -466.6641714110313615 [Eh]

	 ================> DF-SCS-MP2 Energies <==================
	-----------------------------------------------------------
	 SCS Same-Spin Scale       =       0.3333333333333333 [-]
	 SCS Opposite-Spin Scale   =       1.2000000000000000 [-]
	 SCS Same-Spin Energy      =      -0.1687938063965259 [Eh]
	 SCS Opposite-Spin Energy  =      -1.7717168857985677 [Eh]
	 SCS Correlation Energy    =      -1.9405106921950936 [Eh]
	 SCS Total Energy          =    -466.6218699458714241 [Eh]
	-----------------------------------------------------------

  Dipole Moment: [D]
     X:    -2.2628      Y:    -1.1641      Z:    -0.2130     Total:     2.5535

*** Psi4 exiting successfully. Buy a developer a beer!
