                               Psi4 1.3.2 release

  ==> Input File <==

--------------------------------------------------------------------------
#psi4
#
memory 32 gb

molecule  {
0 1
  N        1.9514160     0.5241040     0.0000050
  C        1.2282460    -0.6072470    -0.0000030
  C       -0.1789070    -0.5171830    -0.0000110
  C       -0.7103380     0.7755800     0.0000000
  N       -0.0279430     1.9332850     0.0000050
  C        1.2911430     1.7045360     0.0000120
  N       -1.1651470    -1.4838950    -0.0000170
  C       -2.2855240    -0.7743080     0.0000440
  N       -2.0747130     0.5813540    -0.0000230
  N        1.8664710    -1.8000490    -0.0000060
  H        1.9266827     2.5875896    -0.2999980
  H       -3.2831410    -1.1955370     0.0000680
  H       -2.7752520     1.3134440    -0.0000840
  H        2.8756040    -1.8180060     0.0000090
  H        1.3377970    -2.6593590     0.0000020
units angstrom
no_reorient  #important for SAPT in psi4, default
symmetry c1  #important for SAPT in psi4, default
}

set PROPERTIES_ORIGIN ["COM"]
properties('MP2/aug-cc-pvtz', properties = ['dipole'])
--------------------------------------------------------------------------

    Molecular point group: c1
  Charge       = 0
  Multiplicity = 1
  Basis Set: AUG-CC-PVTZ
    Blend: AUG-CC-PVTZ
  Basis Set: (AUG-CC-PVTZ AUX)
    Blend: AUG-CC-PVTZ-JKFIT

    Orbital Energies [Eh]
    ---------------------

    Doubly Occupied:

       1A    -15.634913     2A    -15.585778     3A    -15.572060
       4A    -15.560002     5A    -15.552124     6A    -11.339161
       7A    -11.327100     8A    -11.318611     9A    -11.316370
      10A    -11.253350    11A     -1.366619    12A     -1.297531
      13A     -1.245492    14A     -1.185889    15A     -1.151456
      16A     -1.031726    17A     -0.894288    18A     -0.873221
      19A     -0.846685    20A     -0.777835    21A     -0.737548
      22A     -0.697645    23A     -0.675768    24A     -0.638825
      25A     -0.631216    26A     -0.613230    27A     -0.585781
      28A     -0.556883    29A     -0.502575    30A     -0.489524
      31A     -0.451498    32A     -0.424377    33A     -0.411037
      34A     -0.373146    35A     -0.307589

  @DF-RHF Final Energy:  -464.67518085710435

   => Energetics <=

    Nuclear Repulsion Energy =            501.6512269313424213
    One-Electron Energy =               -1626.1991102578847403
    Two-Electron Energy =                 659.8727024694380816
    Total Energy =                       -464.6751808571043512
  Basis Set: (AUG-CC-PVTZ AUX)
    Blend: AUG-CC-PVTZ-RI
    Molecular point group: c1

    Geometry (in Angstrom), charge = 0, multiplicity = 1:

       Center              X                  Y                   Z               Mass
    ------------   -----------------  -----------------  -----------------  -----------------
         N            1.952003637656     0.511092697256     0.002243730695    14.003074004430
         C            1.228833637656    -0.620258302744     0.002235730695    12.000000000000
         C           -0.178319362344    -0.530194302744     0.002227730695    12.000000000000
         C           -0.709750362344     0.762568697256     0.002238730695    12.000000000000
         N           -0.027355362344     1.920273697256     0.002243730695    14.003074004430
         C            1.291730637656     1.691524697256     0.002250730695    12.000000000000
         N           -1.164559362344    -1.496906302744     0.002221730695    14.003074004430
         C           -2.284936362344    -0.787319302744     0.002282730695    12.000000000000
         N           -2.074125362344     0.568342697256     0.002215730695    14.003074004430
         N            1.867058637656    -1.813060302744     0.002232730695    14.003074004430
         H            1.927270337656     2.574578297256    -0.297759269305     1.007825032230
         H           -3.282553362344    -1.208548302744     0.002306730695     1.007825032230
         H           -2.774664362344     1.300432697256     0.002154730695     1.007825032230
         H            2.876191637656    -1.831017302744     0.002247730695     1.007825032230
         H            1.338384637656    -2.672370302744     0.002240730695     1.007825032230

  Basis Set: AUG-CC-PVTZ
    Blend: AUG-CC-PVTZ
  Basis Set: (AUG-CC-PVTZ AUX)
    Blend: AUG-CC-PVTZ-JKFIT
	 Reference Energy          =    -464.6751808571043512 [Eh]
	 Singles Energy            =      -0.0000000000000000 [Eh]
	 Same-Spin Energy          =      -0.5067592942135042 [Eh]
	 Opposite-Spin Energy      =      -1.4770938082084986 [Eh]
	 Correlation Energy        =      -1.9838531024220027 [Eh]
	 Total Energy              =    -466.6590339595263686 [Eh]

	 ================> DF-SCS-MP2 Energies <==================
	-----------------------------------------------------------
	 SCS Same-Spin Scale       =       0.3333333333333333 [-]
	 SCS Opposite-Spin Scale   =       1.2000000000000000 [-]
	 SCS Same-Spin Energy      =      -0.1689197647378347 [Eh]
	 SCS Opposite-Spin Energy  =      -1.7725125698501982 [Eh]
	 SCS Correlation Energy    =      -1.9414323345880329 [Eh]
	 SCS Total Energy          =    -466.6166131916924087 [Eh]
	-----------------------------------------------------------

  Dipole Moment: [D]
     X:    -2.3065      Y:    -1.2427      Z:    -0.1396     Total:     2.6236

*** Psi4 exiting successfully. Buy a developer a beer!
