                               Psi4 1.3.2 release

  ==> Input File <==

--------------------------------------------------------------------------
#psi4
#
memory 32 gb

molecule  {
0 1
  N        1.9514160     0.5241040     0.0000050
  C        1.2282460    -0.6072470    -0.0000030
  C       -0.1789070    -0.5171830    -0.0000110
  C       -0.7103380     0.7755800     0.0000000
  N       -0.0279430     1.9332850     0.0000050
  C        1.2911430     1.7045360     0.0000120
  N       -1.1651470    -1.4838950    -0.0000170
  C       -2.2855240    -0.7743080     0.0000440
  N       -2.0747130     0.5813540    -0.0000230
  N        1.8664710    -1.8000490    -0.0000060
  H        1.9266830     2.5875900     0.0000020
  H       -3.2831410    -1.1955370     0.0000680
  H       -2.7752520     1.3134440    -0.0000840
  H        2.8756040    -1.8180060     0.0000090
  H        1.3377984    -2.6593595    -0.2499980
units angstrom
no_reorient  #important for SAPT in psi4, default
symmetry c1  #important for SAPT in psi4, default
}

set PROPERTIES_ORIGIN ["COM"]
properties('MP2/aug-cc-pvtz', properties = ['dipole'])
--------------------------------------------------------------------------

    Molecular point group: c1
  Charge       = 0
  Multiplicity = 1
  Basis Set: AUG-CC-PVTZ
    Blend: AUG-CC-PVTZ
  Basis Set: (AUG-CC-PVTZ AUX)
    Blend: AUG-CC-PVTZ-JKFIT

    Orbital Energies [Eh]
    ---------------------

    Doubly Occupied:

       1A    -15.634717     2A    -15.587236     3A    -15.571648
       4A    -15.559961     5A    -15.552049     6A    -11.338351
       7A    -11.326824     8A    -11.318345     9A    -11.312448
      10A    -11.253042    11A     -1.366373    12A     -1.296946
      13A     -1.243967    14A     -1.184932    15A     -1.150138
      16A     -1.031825    17A     -0.893778    18A     -0.875280
      19A     -0.846272    20A     -0.775456    21A     -0.737727
      22A     -0.696613    23A     -0.672511    24A     -0.637777
      25A     -0.632231    26A     -0.612121    27A     -0.589691
      28A     -0.556766    29A     -0.497675    30A     -0.495776
      31A     -0.452802    32A     -0.424374    33A     -0.410859
      34A     -0.373285    35A     -0.308130

  @DF-RHF Final Energy:  -464.67970211838201

   => Energetics <=

    Nuclear Repulsion Energy =            501.6683391824017804
    One-Electron Energy =               -1626.2602271066507456
    Two-Electron Energy =                 659.9121858058670114
    Total Energy =                       -464.6797021183820107
  Basis Set: (AUG-CC-PVTZ AUX)
    Blend: AUG-CC-PVTZ-RI
    Molecular point group: c1

    Geometry (in Angstrom), charge = 0, multiplicity = 1:

       Center              X                  Y                   Z               Mass
    ------------   -----------------  -----------------  -----------------  -----------------
         N            1.952003624970     0.511092698003     0.001870612780    14.003074004430
         C            1.228833624970    -0.620258301997     0.001862612780    12.000000000000
         C           -0.178319375030    -0.530194301997     0.001854612780    12.000000000000
         C           -0.709750375030     0.762568698003     0.001865612780    12.000000000000
         N           -0.027355375030     1.920273698003     0.001870612780    14.003074004430
         C            1.291730624970     1.691524698003     0.001877612780    12.000000000000
         N           -1.164559375030    -1.496906301997     0.001848612780    14.003074004430
         C           -2.284936375030    -0.787319301997     0.001909612780    12.000000000000
         N           -2.074125375030     0.568342698003     0.001842612780    14.003074004430
         N            1.867058624970    -1.813060301997     0.001859612780    14.003074004430
         H            1.927270624970     2.574578698003     0.001867612780     1.007825032230
         H           -3.282553375030    -1.208548301997     0.001933612780     1.007825032230
         H           -2.774664375030     1.300432698003     0.001781612780     1.007825032230
         H            2.876191624970    -1.831017301997     0.001874612780     1.007825032230
         H            1.338386024970    -2.672370801997    -0.248132387220     1.007825032230

  Basis Set: AUG-CC-PVTZ
    Blend: AUG-CC-PVTZ
  Basis Set: (AUG-CC-PVTZ AUX)
    Blend: AUG-CC-PVTZ-JKFIT
	 Reference Energy          =    -464.6797021183820107 [Eh]
	 Singles Energy            =      -0.0000000000000000 [Eh]
	 Same-Spin Energy          =      -0.5065156955568317 [Eh]
	 Opposite-Spin Energy      =      -1.4767655948404119 [Eh]
	 Correlation Energy        =      -1.9832812903972437 [Eh]
	 Total Energy              =    -466.6629834087792688 [Eh]

	 ================> DF-SCS-MP2 Energies <==================
	-----------------------------------------------------------
	 SCS Same-Spin Scale       =       0.3333333333333333 [-]
	 SCS Opposite-Spin Scale   =       1.2000000000000000 [-]
	 SCS Same-Spin Energy      =      -0.1688385651856106 [Eh]
	 SCS Opposite-Spin Energy  =      -1.7721187138084942 [Eh]
	 SCS Correlation Energy    =      -1.9409572789941048 [Eh]
	 SCS Total Energy          =    -466.6206593973761301 [Eh]
	-----------------------------------------------------------

  Dipole Moment: [D]
     X:    -2.2745      Y:    -1.1311      Z:    -0.3513     Total:     2.5644

*** Psi4 exiting successfully. Buy a developer a beer!
