                               Psi4 1.3.2 release

  ==> Input File <==

--------------------------------------------------------------------------
#psi4
#
memory 32 gb

molecule  {
0 1
  N        1.9514160     0.5241040     0.0000050
  C        1.2282460    -0.6072470    -0.0000030
  C       -0.1789070    -0.5171830    -0.0000110
  C       -0.7103380     0.7755800     0.0000000
  N       -0.0279430     1.9332850     0.0000050
  C        1.2911430     1.7045360     0.0000120
  N       -1.1651470    -1.4838950    -0.0000170
  C       -2.2855240    -0.7743080     0.0000440
  N       -2.0747130     0.5813540    -0.0000230
  N        1.8664710    -1.8000490    -0.0000060
  H        1.9266830     2.5875900     0.0000020
  H       -3.2831388    -1.1955359     0.0500680
  H       -2.7752520     1.3134440    -0.0000840
  H        2.8756040    -1.8180060     0.0000090
  H        1.3377970    -2.6593590     0.0000020
units angstrom
no_reorient  #important for SAPT in psi4, default
symmetry c1  #important for SAPT in psi4, default
}

set PROPERTIES_ORIGIN ["COM"]
properties('MP2/aug-cc-pvtz', properties = ['dipole'])
--------------------------------------------------------------------------

    Molecular point group: c1
  Charge       = 0
  Multiplicity = 1
  Basis Set: AUG-CC-PVTZ
    Blend: AUG-CC-PVTZ
  Basis Set: (AUG-CC-PVTZ AUX)
    Blend: AUG-CC-PVTZ-JKFIT

    Orbital Energies [Eh]
    ---------------------

    Doubly Occupied:

       1A    -15.634594     2A    -15.585644     3A    -15.571746
       4A    -15.559422     5A    -15.551700     6A    -11.338826
       7A    -11.326763     8A    -11.318167     9A    -11.312409
      10A    -11.252828    11A     -1.366252    12A     -1.297299
      13A     -1.245267    14A     -1.185591    15A     -1.151099
      16A     -1.032039    17A     -0.894682    18A     -0.875466
      19A     -0.846314    20A     -0.778358    21A     -0.738311
      22A     -0.699593    23A     -0.675566    24A     -0.637891
      25A     -0.632309    26A     -0.612846    27A     -0.589630
      28A     -0.557978    29A     -0.497066    30A     -0.496726
      31A     -0.452698    32A     -0.424266    33A     -0.410688
      34A     -0.373102    35A     -0.307644

  @DF-RHF Final Energy:  -464.68190602702913

   => Energetics <=

    Nuclear Repulsion Energy =            501.8068842942282686
    One-Electron Energy =               -1626.5160241741368736
    Two-Electron Energy =                 660.0272338528795899
    Total Energy =                       -464.6819060270290720
  Basis Set: (AUG-CC-PVTZ AUX)
    Blend: AUG-CC-PVTZ-RI
    Molecular point group: c1

    Geometry (in Angstrom), charge = 0, multiplicity = 1:

       Center              X                  Y                   Z               Mass
    ------------   -----------------  -----------------  -----------------  -----------------
         N            1.952003619000     0.511092686063    -0.000368094708    14.003074004430
         C            1.228833619000    -0.620258313937    -0.000376094708    12.000000000000
         C           -0.178319381000    -0.530194313937    -0.000384094708    12.000000000000
         C           -0.709750381000     0.762568686063    -0.000373094708    12.000000000000
         N           -0.027355381000     1.920273686063    -0.000368094708    14.003074004430
         C            1.291730619000     1.691524686063    -0.000361094708    12.000000000000
         N           -1.164559381000    -1.496906313937    -0.000390094708    14.003074004430
         C           -2.284936381000    -0.787319313937    -0.000329094708    12.000000000000
         N           -2.074125381000     0.568342686063    -0.000396094708    14.003074004430
         N            1.867058619000    -1.813060313937    -0.000379094708    14.003074004430
         H            1.927270619000     2.574578686063    -0.000371094708     1.007825032230
         H           -3.282551181000    -1.208547213937     0.049694905292     1.007825032230
         H           -2.774664381000     1.300432686063    -0.000457094708     1.007825032230
         H            2.876191619000    -1.831017313937    -0.000364094708     1.007825032230
         H            1.338384619000    -2.672370313937    -0.000371094708     1.007825032230

  Basis Set: AUG-CC-PVTZ
    Blend: AUG-CC-PVTZ
  Basis Set: (AUG-CC-PVTZ AUX)
    Blend: AUG-CC-PVTZ-JKFIT
	 Reference Energy          =    -464.6819060270291288 [Eh]
	 Singles Energy            =      -0.0000000000000000 [Eh]
	 Same-Spin Energy          =      -0.5063161316596964 [Eh]
	 Opposite-Spin Energy      =      -1.4762668440939990 [Eh]
	 Correlation Energy        =      -1.9825829757536955 [Eh]
	 Total Energy              =    -466.6644890027828296 [Eh]

	 ================> DF-SCS-MP2 Energies <==================
	-----------------------------------------------------------
	 SCS Same-Spin Scale       =       0.3333333333333333 [-]
	 SCS Opposite-Spin Scale   =       1.2000000000000000 [-]
	 SCS Same-Spin Energy      =      -0.1687720438865654 [Eh]
	 SCS Opposite-Spin Energy  =      -1.7715202129127987 [Eh]
	 SCS Correlation Energy    =      -1.9402922567993641 [Eh]
	 SCS Total Energy          =    -466.6221982838284816 [Eh]
	-----------------------------------------------------------

  Dipole Moment: [D]
     X:    -2.2530      Y:    -1.1827      Z:     0.0348     Total:     2.5448

*** Psi4 exiting successfully. Buy a developer a beer!
