                               Psi4 1.3.2 release

  ==> Input File <==

--------------------------------------------------------------------------
#psi4
#
memory 32 gb

molecule  {
0 1
  N        1.9514160     0.5241040     0.0000050
  C        1.2282460    -0.6072470    -0.0000030
  C       -0.1789070    -0.5171830    -0.0000110
  C       -0.7103380     0.7755800     0.0000000
  N       -0.0279430     1.9332850     0.0000050
  C        1.2911430     1.7045360     0.0000120
  N       -1.1651470    -1.4838950    -0.0000170
  C       -2.2855240    -0.7743080     0.0000440
  N       -2.0747130     0.5813540    -0.0000230
  N        1.8664710    -1.8000490    -0.0000060
  H        1.9266830     2.5875900     0.0000020
  H       -3.2831410    -1.1955370     0.0000680
  H       -2.7752507     1.3134412    -0.0500840
  H        2.8756040    -1.8180060     0.0000090
  H        1.3377970    -2.6593590     0.0000020
units angstrom
no_reorient  #important for SAPT in psi4, default
symmetry c1  #important for SAPT in psi4, default
}

set PROPERTIES_ORIGIN ["COM"]
properties('MP2/aug-cc-pvtz', properties = ['dipole'])
--------------------------------------------------------------------------

    Molecular point group: c1
  Charge       = 0
  Multiplicity = 1
  Basis Set: AUG-CC-PVTZ
    Blend: AUG-CC-PVTZ
  Basis Set: (AUG-CC-PVTZ AUX)
    Blend: AUG-CC-PVTZ-JKFIT

    Orbital Energies [Eh]
    ---------------------

    Doubly Occupied:

       1A    -15.634648     2A    -15.585631     3A    -15.571734
       4A    -15.559419     5A    -15.551696     6A    -11.338808
       7A    -11.326672     8A    -11.318138     9A    -11.312394
      10A    -11.252816    11A     -1.366213    12A     -1.297281
      13A     -1.245254    14A     -1.185499    15A     -1.151070
      16A     -1.032053    17A     -0.894727    18A     -0.875410
      19A     -0.846112    20A     -0.778340    21A     -0.738284
      22A     -0.699617    23A     -0.675560    24A     -0.637944
      25A     -0.632237    26A     -0.612891    27A     -0.589669
      28A     -0.557981    29A     -0.496961    30A     -0.496809
      31A     -0.452695    32A     -0.424273    33A     -0.410677
      34A     -0.373108    35A     -0.307638

  @DF-RHF Final Energy:  -464.68195439994463

   => Energetics <=

    Nuclear Repulsion Energy =            501.8054642832803438
    One-Electron Energy =               -1626.5143202994947842
    Two-Electron Energy =                 660.0269016162698108
    Total Energy =                       -464.6819543999446296
  Basis Set: (AUG-CC-PVTZ AUX)
    Blend: AUG-CC-PVTZ-RI
    Molecular point group: c1

    Geometry (in Angstrom), charge = 0, multiplicity = 1:

       Center              X                  Y                   Z               Mass
    ------------   -----------------  -----------------  -----------------  -----------------
         N            1.952003625716     0.511092715166     0.000378141121    14.003074004430
         C            1.228833625716    -0.620258284834     0.000370141121    12.000000000000
         C           -0.178319374284    -0.530194284834     0.000362141121    12.000000000000
         C           -0.709750374284     0.762568715166     0.000373141121    12.000000000000
         N           -0.027355374284     1.920273715166     0.000378141121    14.003074004430
         C            1.291730625716     1.691524715166     0.000385141121    12.000000000000
         N           -1.164559374284    -1.496906284834     0.000356141121    14.003074004430
         C           -2.284936374284    -0.787319284834     0.000417141121    12.000000000000
         N           -2.074125374284     0.568342715166     0.000350141121    14.003074004430
         N            1.867058625716    -1.813060284834     0.000367141121    14.003074004430
         H            1.927270625716     2.574578715166     0.000375141121     1.007825032230
         H           -3.282553374284    -1.208548284834     0.000441141121     1.007825032230
         H           -2.774663074284     1.300429915166    -0.049710858879     1.007825032230
         H            2.876191625716    -1.831017284834     0.000382141121     1.007825032230
         H            1.338384625716    -2.672370284834     0.000375141121     1.007825032230

  Basis Set: AUG-CC-PVTZ
    Blend: AUG-CC-PVTZ
  Basis Set: (AUG-CC-PVTZ AUX)
    Blend: AUG-CC-PVTZ-JKFIT
	 Reference Energy          =    -464.6819543999446296 [Eh]
	 Singles Energy            =      -0.0000000000000000 [Eh]
	 Same-Spin Energy          =      -0.5063128385215891 [Eh]
	 Opposite-Spin Energy      =      -1.4762640601763786 [Eh]
	 Correlation Energy        =      -1.9825768986979677 [Eh]
	 Total Energy              =    -466.6645312986426006 [Eh]

	 ================> DF-SCS-MP2 Energies <==================
	-----------------------------------------------------------
	 SCS Same-Spin Scale       =       0.3333333333333333 [-]
	 SCS Opposite-Spin Scale   =       1.2000000000000000 [-]
	 SCS Same-Spin Energy      =      -0.1687709461738630 [Eh]
	 SCS Opposite-Spin Energy  =      -1.7715168722116543 [Eh]
	 SCS Correlation Energy    =      -1.9402878183855174 [Eh]
	 SCS Total Energy          =    -466.6222422183301433 [Eh]
	-----------------------------------------------------------

  Dipole Moment: [D]
     X:    -2.2544      Y:    -1.1843      Z:    -0.0751     Total:     2.5477

*** Psi4 exiting successfully. Buy a developer a beer!
