                               Psi4 1.3.2 release

  ==> Input File <==

--------------------------------------------------------------------------
#psi4
#
memory 32 gb

molecule  {
0 1
  N        1.9514160     0.5241040     0.0000050
  C        1.2282460    -0.6072470    -0.0000030
  C       -0.1789070    -0.5171830    -0.0000110
  C       -0.7103380     0.7755800     0.0000000
  N       -0.0279430     1.9332850     0.0000050
  C        1.2911430     1.7045360     0.0000120
  N       -1.1651473    -1.4838957     0.0999830
  C       -2.2855240    -0.7743080     0.0000440
  N       -2.0747130     0.5813540    -0.0000230
  N        1.8664710    -1.8000490    -0.0000060
  H        1.9266830     2.5875900     0.0000020
  H       -3.2831410    -1.1955370     0.0000680
  H       -2.7752520     1.3134440    -0.0000840
  H        2.8756040    -1.8180060     0.0000090
  H        1.3377970    -2.6593590     0.0000020
units angstrom
no_reorient  #important for SAPT in psi4, default
symmetry c1  #important for SAPT in psi4, default
}

set PROPERTIES_ORIGIN ["COM"]
properties('MP2/aug-cc-pvtz', properties = ['dipole'])
--------------------------------------------------------------------------

    Molecular point group: c1
  Charge       = 0
  Multiplicity = 1
  Basis Set: AUG-CC-PVTZ
    Blend: AUG-CC-PVTZ
  Basis Set: (AUG-CC-PVTZ AUX)
    Blend: AUG-CC-PVTZ-JKFIT

    Orbital Energies [Eh]
    ---------------------

    Doubly Occupied:

       1A    -15.634810     2A    -15.585598     3A    -15.572426
       4A    -15.559521     5A    -15.551713     6A    -11.338732
       7A    -11.327507     8A    -11.318318     9A    -11.312428
      10A    -11.253026    11A     -1.365758    12A     -1.297221
      13A     -1.245065    14A     -1.184725    15A     -1.151061
      16A     -1.031821    17A     -0.894716    18A     -0.875139
      19A     -0.846467    20A     -0.778405    21A     -0.738125
      22A     -0.699486    23A     -0.674968    24A     -0.637496
      25A     -0.632028    26A     -0.612702    27A     -0.589566
      28A     -0.557757    29A     -0.499381    30A     -0.494726
      31A     -0.452806    32A     -0.423954    33A     -0.410292
      34A     -0.373032    35A     -0.307359

  @DF-RHF Final Energy:  -464.67964907408822

   => Energetics <=

    Nuclear Repulsion Energy =            501.6796303802915986
    One-Electron Energy =               -1626.2622884716611225
    Two-Electron Energy =                 659.9030090172811924
    Total Energy =                       -464.6796490740882746
  Basis Set: (AUG-CC-PVTZ AUX)
    Blend: AUG-CC-PVTZ-RI
    Molecular point group: c1

    Geometry (in Angstrom), charge = 0, multiplicity = 1:

       Center              X                  Y                   Z               Mass
    ------------   -----------------  -----------------  -----------------  -----------------
         N            1.952003666523     0.511092766851    -0.010363438788    14.003074004430
         C            1.228833666523    -0.620258233149    -0.010371438788    12.000000000000
         C           -0.178319333477    -0.530194233149    -0.010379438788    12.000000000000
         C           -0.709750333477     0.762568766851    -0.010368438788    12.000000000000
         N           -0.027355333477     1.920273766851    -0.010363438788    14.003074004430
         C            1.291730666523     1.691524766851    -0.010356438788    12.000000000000
         N           -1.164559633477    -1.496906933149     0.089614561212    14.003074004430
         C           -2.284936333477    -0.787319233149    -0.010324438788    12.000000000000
         N           -2.074125333477     0.568342766851    -0.010391438788    14.003074004430
         N            1.867058666523    -1.813060233149    -0.010374438788    14.003074004430
         H            1.927270666523     2.574578766851    -0.010366438788     1.007825032230
         H           -3.282553333477    -1.208548233149    -0.010300438788     1.007825032230
         H           -2.774664333477     1.300432766851    -0.010452438788     1.007825032230
         H            2.876191666523    -1.831017233149    -0.010359438788     1.007825032230
         H            1.338384666523    -2.672370233149    -0.010366438788     1.007825032230

  Basis Set: AUG-CC-PVTZ
    Blend: AUG-CC-PVTZ
  Basis Set: (AUG-CC-PVTZ AUX)
    Blend: AUG-CC-PVTZ-JKFIT
	 Reference Energy          =    -464.6796490740882177 [Eh]
	 Singles Energy            =      -0.0000000000000000 [Eh]
	 Same-Spin Energy          =      -0.5064189568403517 [Eh]
	 Opposite-Spin Energy      =      -1.4765572030128538 [Eh]
	 Correlation Energy        =      -1.9829761598532054 [Eh]
	 Total Energy              =    -466.6626252339414123 [Eh]

	 ================> DF-SCS-MP2 Energies <==================
	-----------------------------------------------------------
	 SCS Same-Spin Scale       =       0.3333333333333333 [-]
	 SCS Opposite-Spin Scale   =       1.2000000000000000 [-]
	 SCS Same-Spin Energy      =      -0.1688063189467839 [Eh]
	 SCS Opposite-Spin Energy  =      -1.7718686436154245 [Eh]
	 SCS Correlation Energy    =      -1.9406749625622084 [Eh]
	 SCS Total Energy          =    -466.6203240366504019 [Eh]
	-----------------------------------------------------------

  Dipole Moment: [D]
     X:    -2.2526      Y:    -1.1785      Z:    -0.1332     Total:     2.5457

*** Psi4 exiting successfully. Buy a developer a beer!
