                               Psi4 1.3.2 release

  ==> Input File <==

--------------------------------------------------------------------------
#psi4
#
memory 32 gb

molecule  {
0 1
  N        1.9514160     0.5241040     0.0000050
  C        1.2282460    -0.6072470    -0.0000030
  C       -0.1789070    -0.5171830    -0.0000110
  C       -0.7103380     0.7755800     0.0000000
  N       -0.0279430     1.9332850     0.0000050
  C        1.2911430     1.7045360     0.0000120
  N       -1.1651470    -1.4838950    -0.0000170
  C       -2.2855240    -0.7743080     0.0000440
  N       -2.0747130     0.5813540    -0.0000230
  N        1.8664710    -1.8000490    -0.0000060
  H        1.9266830     2.5875900     0.0000020
  H       -3.2831345    -1.1955337     0.1500680
  H       -2.7752520     1.3134440    -0.0000840
  H        2.8756040    -1.8180060     0.0000090
  H        1.3377970    -2.6593590     0.0000020
units angstrom
no_reorient  #important for SAPT in psi4, default
symmetry c1  #important for SAPT in psi4, default
}

set PROPERTIES_ORIGIN ["COM"]
properties('MP2/aug-cc-pvtz', properties = ['dipole'])
--------------------------------------------------------------------------

    Molecular point group: c1
  Charge       = 0
  Multiplicity = 1
  Basis Set: AUG-CC-PVTZ
    Blend: AUG-CC-PVTZ
  Basis Set: (AUG-CC-PVTZ AUX)
    Blend: AUG-CC-PVTZ-JKFIT

    Orbital Energies [Eh]
    ---------------------

    Doubly Occupied:

       1A    -15.634517     2A    -15.585782     3A    -15.572003
       4A    -15.559492     5A    -15.551805     6A    -11.338988
       7A    -11.327366     8A    -11.318305     9A    -11.312559
      10A    -11.252996    11A     -1.366293    12A     -1.297401
      13A     -1.245386    14A     -1.185682    15A     -1.151199
      16A     -1.031912    17A     -0.894181    18A     -0.875545
      19A     -0.845963    20A     -0.777947    21A     -0.738250
      22A     -0.699116    23A     -0.675613    24A     -0.639123
      25A     -0.630930    26A     -0.612128    27A     -0.589164
      28A     -0.557736    29A     -0.497431    30A     -0.496506
      31A     -0.452783    32A     -0.424312    33A     -0.410795
      34A     -0.373155    35A     -0.307734

  @DF-RHF Final Energy:  -464.68067075627357

   => Energetics <=

    Nuclear Repulsion Energy =            501.7710426975314135
    One-Electron Energy =               -1626.4432309071421514
    Two-Electron Energy =                 659.9915174533372237
    Total Energy =                       -464.6806707562735710
  Basis Set: (AUG-CC-PVTZ AUX)
    Blend: AUG-CC-PVTZ-RI
    Molecular point group: c1

    Geometry (in Angstrom), charge = 0, multiplicity = 1:

       Center              X                  Y                   Z               Mass
    ------------   -----------------  -----------------  -----------------  -----------------
         N            1.952003586912     0.511092669646    -0.001114330538    14.003074004430
         C            1.228833586912    -0.620258330354    -0.001122330538    12.000000000000
         C           -0.178319413088    -0.530194330354    -0.001130330538    12.000000000000
         C           -0.709750413088     0.762568669646    -0.001119330538    12.000000000000
         N           -0.027355413088     1.920273669646    -0.001114330538    14.003074004430
         C            1.291730586912     1.691524669646    -0.001107330538    12.000000000000
         N           -1.164559413088    -1.496906330354    -0.001136330538    14.003074004430
         C           -2.284936413088    -0.787319330354    -0.001075330538    12.000000000000
         N           -2.074125413088     0.568342669646    -0.001142330538    14.003074004430
         N            1.867058586912    -1.813060330354    -0.001125330538    14.003074004430
         H            1.927270586912     2.574578669646    -0.001117330538     1.007825032230
         H           -3.282546913088    -1.208545030354     0.148948669462     1.007825032230
         H           -2.774664413088     1.300432669646    -0.001203330538     1.007825032230
         H            2.876191586912    -1.831017330354    -0.001110330538     1.007825032230
         H            1.338384586912    -2.672370330354    -0.001117330538     1.007825032230

  Basis Set: AUG-CC-PVTZ
    Blend: AUG-CC-PVTZ
  Basis Set: (AUG-CC-PVTZ AUX)
    Blend: AUG-CC-PVTZ-JKFIT
	 Reference Energy          =    -464.6806707562735710 [Eh]
	 Singles Energy            =      -0.0000000000000000 [Eh]
	 Same-Spin Energy          =      -0.5064044382896485 [Eh]
	 Opposite-Spin Energy      =      -1.4764303438057151 [Eh]
	 Correlation Energy        =      -1.9828347820953636 [Eh]
	 Total Energy              =    -466.6635055383689519 [Eh]

	 ================> DF-SCS-MP2 Energies <==================
	-----------------------------------------------------------
	 SCS Same-Spin Scale       =       0.3333333333333333 [-]
	 SCS Opposite-Spin Scale   =       1.2000000000000000 [-]
	 SCS Same-Spin Energy      =      -0.1688014794298828 [Eh]
	 SCS Opposite-Spin Energy  =      -1.7717164125668581 [Eh]
	 SCS Correlation Energy    =      -1.9405178919967410 [Eh]
	 SCS Total Energy          =    -466.6211886482703335 [Eh]
	-----------------------------------------------------------

  Dipole Moment: [D]
     X:    -2.2306      Y:    -1.1781      Z:     0.1041     Total:     2.5248

*** Psi4 exiting successfully. Buy a developer a beer!
