                               Psi4 1.3.2 release

  ==> Input File <==

--------------------------------------------------------------------------
#psi4
#
memory 32 gb

molecule  {
0 1
  N        1.9514160     0.5241040     0.0000050
  C        1.2282460    -0.6072470    -0.0000030
  C       -0.1789070    -0.5171830    -0.0000110
  C       -0.7103380     0.7755800     0.0000000
  N       -0.0279430     1.9332850     0.0000050
  C        1.2911430     1.7045360     0.0000120
  N       -1.1651480    -1.4838971     0.2999830
  C       -2.2855240    -0.7743080     0.0000440
  N       -2.0747130     0.5813540    -0.0000230
  N        1.8664710    -1.8000490    -0.0000060
  H        1.9266830     2.5875900     0.0000020
  H       -3.2831410    -1.1955370     0.0000680
  H       -2.7752520     1.3134440    -0.0000840
  H        2.8756040    -1.8180060     0.0000090
  H        1.3377970    -2.6593590     0.0000020
units angstrom
no_reorient  #important for SAPT in psi4, default
symmetry c1  #important for SAPT in psi4, default
}

set PROPERTIES_ORIGIN ["COM"]
properties('MP2/aug-cc-pvtz', properties = ['dipole'])
--------------------------------------------------------------------------

    Molecular point group: c1
  Charge       = 0
  Multiplicity = 1
  Basis Set: AUG-CC-PVTZ
    Blend: AUG-CC-PVTZ
  Basis Set: (AUG-CC-PVTZ AUX)
    Blend: AUG-CC-PVTZ-JKFIT

    Orbital Energies [Eh]
    ---------------------

    Doubly Occupied:

       1A    -15.636424     2A    -15.585355     3A    -15.577864
       4A    -15.560352     5A    -15.551910     6A    -11.338154
       7A    -11.333855     8A    -11.319632     9A    -11.312752
      10A    -11.254596    11A     -1.362296    12A     -1.296762
      13A     -1.243720    14A     -1.177611    15A     -1.150696
      16A     -1.030087    17A     -0.894575    18A     -0.872928
      19A     -0.847346    20A     -0.778408    21A     -0.736876
      22A     -0.698560    23A     -0.670600    24A     -0.635676
      25A     -0.628503    26A     -0.610423    27A     -0.588337
      28A     -0.555606    29A     -0.505224    30A     -0.491350
      31A     -0.453404    32A     -0.422353    33A     -0.406790
      34A     -0.372525    35A     -0.305297

  @DF-RHF Final Energy:  -464.65989694305171

   => Energetics <=

    Nuclear Repulsion Energy =            500.6539857644547169
    One-Electron Energy =               -1624.2140761551534069
    Two-Electron Energy =                 658.9001934476468705
    Total Energy =                       -464.6598969430517627
  Basis Set: (AUG-CC-PVTZ AUX)
    Blend: AUG-CC-PVTZ-RI
    Molecular point group: c1

    Geometry (in Angstrom), charge = 0, multiplicity = 1:

       Center              X                  Y                   Z               Mass
    ------------   -----------------  -----------------  -----------------  -----------------
         N            1.952003739102     0.511092912009    -0.031100362776    14.003074004430
         C            1.228833739102    -0.620258087991    -0.031108362776    12.000000000000
         C           -0.178319260898    -0.530194087991    -0.031116362776    12.000000000000
         C           -0.709750260898     0.762568912009    -0.031105362776    12.000000000000
         N           -0.027355260898     1.920273912009    -0.031100362776    14.003074004430
         C            1.291730739102     1.691524912009    -0.031093362776    12.000000000000
         N           -1.164560260898    -1.496908187991     0.268877637224    14.003074004430
         C           -2.284936260898    -0.787319087991    -0.031061362776    12.000000000000
         N           -2.074125260898     0.568342912009    -0.031128362776    14.003074004430
         N            1.867058739102    -1.813060087991    -0.031111362776    14.003074004430
         H            1.927270739102     2.574578912009    -0.031103362776     1.007825032230
         H           -3.282553260898    -1.208548087991    -0.031037362776     1.007825032230
         H           -2.774664260898     1.300432912009    -0.031189362776     1.007825032230
         H            2.876191739102    -1.831017087991    -0.031096362776     1.007825032230
         H            1.338384739102    -2.672370087991    -0.031103362776     1.007825032230

  Basis Set: AUG-CC-PVTZ
    Blend: AUG-CC-PVTZ
  Basis Set: (AUG-CC-PVTZ AUX)
    Blend: AUG-CC-PVTZ-JKFIT
	 Reference Energy          =    -464.6598969430517059 [Eh]
	 Singles Energy            =      -0.0000000000000000 [Eh]
	 Same-Spin Energy          =      -0.5073529622955699 [Eh]
	 Opposite-Spin Energy      =      -1.4794266453976679 [Eh]
	 Correlation Energy        =      -1.9867796076932378 [Eh]
	 Total Energy              =    -466.6466765507449281 [Eh]

	 ================> DF-SCS-MP2 Energies <==================
	-----------------------------------------------------------
	 SCS Same-Spin Scale       =       0.3333333333333333 [-]
	 SCS Opposite-Spin Scale   =       1.2000000000000000 [-]
	 SCS Same-Spin Energy      =      -0.1691176540985233 [Eh]
	 SCS Opposite-Spin Energy  =      -1.7753119744772015 [Eh]
	 SCS Correlation Energy    =      -1.9444296285757248 [Eh]
	 SCS Total Energy          =    -466.6043265716274391 [Eh]
	-----------------------------------------------------------

  Dipole Moment: [D]
     X:    -2.2240      Y:    -1.1438      Z:    -0.3905     Total:     2.5312

*** Psi4 exiting successfully. Buy a developer a beer!
