                               Psi4 1.3.2 release

  ==> Input File <==

--------------------------------------------------------------------------
#psi4
#
memory 32 gb

molecule  {
0 1
  N        1.9514160     0.5241040     0.0000050
  C        1.2282460    -0.6072470    -0.0000030
  C       -0.1789070    -0.5171830    -0.0000110
  C       -0.7103380     0.7755800     0.0000000
  N       -0.0279430     1.9332850     0.0000050
  C        1.2911430     1.7045360     0.0000120
  N       -1.1651475    -1.4838960     0.1499830
  C       -2.2855240    -0.7743080     0.0000440
  N       -2.0747130     0.5813540    -0.0000230
  N        1.8664710    -1.8000490    -0.0000060
  H        1.9266830     2.5875900     0.0000020
  H       -3.2831410    -1.1955370     0.0000680
  H       -2.7752520     1.3134440    -0.0000840
  H        2.8756040    -1.8180060     0.0000090
  H        1.3377970    -2.6593590     0.0000020
units angstrom
no_reorient  #important for SAPT in psi4, default
symmetry c1  #important for SAPT in psi4, default
}

set PROPERTIES_ORIGIN ["COM"]
properties('MP2/aug-cc-pvtz', properties = ['dipole'])
--------------------------------------------------------------------------

    Molecular point group: c1
  Charge       = 0
  Multiplicity = 1
  Basis Set: AUG-CC-PVTZ
    Blend: AUG-CC-PVTZ
  Basis Set: (AUG-CC-PVTZ AUX)
    Blend: AUG-CC-PVTZ-JKFIT

    Orbital Energies [Eh]
    ---------------------

    Doubly Occupied:

       1A    -15.635066     2A    -15.585561     3A    -15.573308
       4A    -15.559654     5A    -15.551745     6A    -11.338640
       7A    -11.328525     8A    -11.318527     9A    -11.312477
      10A    -11.253292    11A     -1.365165    12A     -1.297143
      13A     -1.244837    14A     -1.183643    15A     -1.151024
      16A     -1.031534    17A     -0.894682    18A     -0.874756
      19A     -0.846603    20A     -0.778400    21A     -0.737896
      22A     -0.699295    23A     -0.674238    24A     -0.637249
      25A     -0.631408    26A     -0.612394    27A     -0.589409
      28A     -0.557438    29A     -0.500748    30A     -0.493769
      31A     -0.452940    32A     -0.423612    33A     -0.409791
      34A     -0.372953    35A     -0.307021

  @DF-RHF Final Energy:  -464.67661841526331

   => Energetics <=

    Nuclear Repulsion Energy =            501.5160296929651054
    One-Electron Energy =               -1625.9358061213833935
    Two-Electron Energy =                 659.7431580131550390
    Total Energy =                       -464.6766184152633059
  Basis Set: (AUG-CC-PVTZ AUX)
    Blend: AUG-CC-PVTZ-RI
    Molecular point group: c1

    Geometry (in Angstrom), charge = 0, multiplicity = 1:

       Center              X                  Y                   Z               Mass
    ------------   -----------------  -----------------  -----------------  -----------------
         N            1.952003687260     0.511092797956    -0.015547669785    14.003074004430
         C            1.228833687260    -0.620258202044    -0.015555669785    12.000000000000
         C           -0.178319312740    -0.530194202044    -0.015563669785    12.000000000000
         C           -0.709750312740     0.762568797956    -0.015552669785    12.000000000000
         N           -0.027355312740     1.920273797956    -0.015547669785    14.003074004430
         C            1.291730687260     1.691524797956    -0.015540669785    12.000000000000
         N           -1.164559812740    -1.496907202044     0.134430330215    14.003074004430
         C           -2.284936312740    -0.787319202044    -0.015508669785    12.000000000000
         N           -2.074125312740     0.568342797956    -0.015575669785    14.003074004430
         N            1.867058687260    -1.813060202044    -0.015558669785    14.003074004430
         H            1.927270687260     2.574578797956    -0.015550669785     1.007825032230
         H           -3.282553312740    -1.208548202044    -0.015484669785     1.007825032230
         H           -2.774664312740     1.300432797956    -0.015636669785     1.007825032230
         H            2.876191687260    -1.831017202044    -0.015543669785     1.007825032230
         H            1.338384687260    -2.672370202044    -0.015550669785     1.007825032230

  Basis Set: AUG-CC-PVTZ
    Blend: AUG-CC-PVTZ
  Basis Set: (AUG-CC-PVTZ AUX)
    Blend: AUG-CC-PVTZ-JKFIT
	 Reference Energy          =    -464.6766184152633059 [Eh]
	 Singles Energy            =      -0.0000000000000000 [Eh]
	 Same-Spin Energy          =      -0.5065626679762143 [Eh]
	 Opposite-Spin Energy      =      -1.4769725184242004 [Eh]
	 Correlation Energy        =      -1.9835351864004147 [Eh]
	 Total Energy              =    -466.6601536016636942 [Eh]

	 ================> DF-SCS-MP2 Energies <==================
	-----------------------------------------------------------
	 SCS Same-Spin Scale       =       0.3333333333333333 [-]
	 SCS Opposite-Spin Scale   =       1.2000000000000000 [-]
	 SCS Same-Spin Energy      =      -0.1688542226587381 [Eh]
	 SCS Opposite-Spin Energy  =      -1.7723670221090404 [Eh]
	 SCS Correlation Energy    =      -1.9412212447677786 [Eh]
	 SCS Total Energy          =    -466.6178396600311089 [Eh]
	-----------------------------------------------------------

  Dipole Moment: [D]
     X:    -2.2483      Y:    -1.1726      Z:    -0.1992     Total:     2.5436

*** Psi4 exiting successfully. Buy a developer a beer!
