                               Psi4 1.3.2 release

  ==> Input File <==

--------------------------------------------------------------------------
#psi4
#
memory 32 gb

molecule  {
0 1
  N        1.9514160     0.5241040     0.0000050
  C        1.2282460    -0.6072470    -0.0000030
  C       -0.1789070    -0.5171830    -0.0000110
  C       -0.7103380     0.7755800     0.0000000
  N       -0.0279430     1.9332850     0.0000050
  C        1.2911430     1.7045360     0.0000120
  N       -1.1651470    -1.4838950    -0.0000170
  C       -2.2855240    -0.7743080     0.0000440
  N       -2.0747130     0.5813540    -0.0000230
  N        1.8664699    -1.8000499     0.1999940
  H        1.9266830     2.5875900     0.0000020
  H       -3.2831410    -1.1955370     0.0000680
  H       -2.7752520     1.3134440    -0.0000840
  H        2.8756040    -1.8180060     0.0000090
  H        1.3377970    -2.6593590     0.0000020
units angstrom
no_reorient  #important for SAPT in psi4, default
symmetry c1  #important for SAPT in psi4, default
}

set PROPERTIES_ORIGIN ["COM"]
properties('MP2/aug-cc-pvtz', properties = ['dipole'])
--------------------------------------------------------------------------

    Molecular point group: c1
  Charge       = 0
  Multiplicity = 1
  Basis Set: AUG-CC-PVTZ
    Blend: AUG-CC-PVTZ
  Basis Set: (AUG-CC-PVTZ AUX)
    Blend: AUG-CC-PVTZ-JKFIT

    Orbital Energies [Eh]
    ---------------------

    Doubly Occupied:

       1A    -15.635831     2A    -15.587738     3A    -15.572581
       4A    -15.562259     5A    -15.554139     6A    -11.338877
       7A    -11.328255     8A    -11.319822     9A    -11.313493
      10A    -11.254862    11A     -1.367617    12A     -1.296828
      13A     -1.242795    14A     -1.185245    15A     -1.151000
      16A     -1.032851    17A     -0.893850    18A     -0.875846
      19A     -0.847288    20A     -0.774812    21A     -0.732153
      22A     -0.695368    23A     -0.671493    24A     -0.640316
      25A     -0.630087    26A     -0.609976    27A     -0.590534
      28A     -0.556212    29A     -0.498347    30A     -0.497682
      31A     -0.454082    32A     -0.426643    33A     -0.411798
      34A     -0.374797    35A     -0.310670

  @DF-RHF Final Energy:  -464.67862295044682

   => Energetics <=

    Nuclear Repulsion Energy =            501.3650939831846358
    One-Electron Energy =               -1625.6151356334701177
    Two-Electron Energy =                 659.5714186998386594
    Total Energy =                       -464.6786229504468793
  Basis Set: (AUG-CC-PVTZ AUX)
    Blend: AUG-CC-PVTZ-RI
    Molecular point group: c1

    Geometry (in Angstrom), charge = 0, multiplicity = 1:

       Center              X                  Y                   Z               Mass
    ------------   -----------------  -----------------  -----------------  -----------------
         N            1.952003749470     0.511092787588    -0.020731900782    14.003074004430
         C            1.228833749470    -0.620258212412    -0.020739900782    12.000000000000
         C           -0.178319250530    -0.530194212412    -0.020747900782    12.000000000000
         C           -0.709750250530     0.762568787588    -0.020736900782    12.000000000000
         N           -0.027355250530     1.920273787588    -0.020731900782    14.003074004430
         C            1.291730749470     1.691524787588    -0.020724900782    12.000000000000
         N           -1.164559250530    -1.496906212412    -0.020753900782    14.003074004430
         C           -2.284936250530    -0.787319212412    -0.020692900782    12.000000000000
         N           -2.074125250530     0.568342787588    -0.020759900782    14.003074004430
         N            1.867057649470    -1.813061112412     0.179257099218    14.003074004430
         H            1.927270749470     2.574578787588    -0.020734900782     1.007825032230
         H           -3.282553250530    -1.208548212412    -0.020668900782     1.007825032230
         H           -2.774664250530     1.300432787588    -0.020820900782     1.007825032230
         H            2.876191749470    -1.831017212412    -0.020727900782     1.007825032230
         H            1.338384749470    -2.672370212412    -0.020734900782     1.007825032230

  Basis Set: AUG-CC-PVTZ
    Blend: AUG-CC-PVTZ
  Basis Set: (AUG-CC-PVTZ AUX)
    Blend: AUG-CC-PVTZ-JKFIT
	 Reference Energy          =    -464.6786229504468224 [Eh]
	 Singles Energy            =      -0.0000000000000000 [Eh]
	 Same-Spin Energy          =      -0.5066568814109884 [Eh]
	 Opposite-Spin Energy      =      -1.4772840747896043 [Eh]
	 Correlation Energy        =      -1.9839409562005927 [Eh]
	 Total Energy              =    -466.6625639066473923 [Eh]

	 ================> DF-SCS-MP2 Energies <==================
	-----------------------------------------------------------
	 SCS Same-Spin Scale       =       0.3333333333333333 [-]
	 SCS Opposite-Spin Scale   =       1.2000000000000000 [-]
	 SCS Same-Spin Energy      =      -0.1688856271369961 [Eh]
	 SCS Opposite-Spin Energy  =      -1.7727408897475252 [Eh]
	 SCS Correlation Energy    =      -1.9416265168845213 [Eh]
	 SCS Total Energy          =    -466.6202494673313481 [Eh]
	-----------------------------------------------------------

  Dipole Moment: [D]
     X:    -2.4063      Y:    -0.9778      Z:    -0.4976     Total:     2.6446

*** Psi4 exiting successfully. Buy a developer a beer!
