                               Psi4 1.3.2 release

  ==> Input File <==

--------------------------------------------------------------------------
#psi4
#
memory 32 gb

molecule  {
0 1
  N        1.9514160     0.5241040     0.0000050
  C        1.2282460    -0.6072470    -0.0000030
  C       -0.1789070    -0.5171830    -0.0000110
  C       -0.7103380     0.7755800     0.0000000
  N       -0.0279430     1.9332850     0.0000050
  C        1.2911430     1.7045360     0.0000120
  N       -1.1651470    -1.4838950    -0.0000170
  C       -2.2855240    -0.7743080     0.0000440
  N       -2.0747130     0.5813540    -0.0000230
  N        1.8664710    -1.8000490    -0.0000060
  H        1.9266830     2.5875900     0.0000020
  H       -3.2831410    -1.1955370     0.0000680
  H       -2.7752520     1.3134440    -0.0000840
  H        2.8756040    -1.8180060     0.0000090
  H        1.3377981    -2.6593594    -0.1999980
units angstrom
no_reorient  #important for SAPT in psi4, default
symmetry c1  #important for SAPT in psi4, default
}

set PROPERTIES_ORIGIN ["COM"]
properties('MP2/aug-cc-pvtz', properties = ['dipole'])
--------------------------------------------------------------------------

    Molecular point group: c1
  Charge       = 0
  Multiplicity = 1
  Basis Set: AUG-CC-PVTZ
    Blend: AUG-CC-PVTZ
  Basis Set: (AUG-CC-PVTZ AUX)
    Blend: AUG-CC-PVTZ-JKFIT

    Orbital Energies [Eh]
    ---------------------

    Doubly Occupied:

       1A    -15.634678     2A    -15.586665     3A    -15.571672
       4A    -15.559770     5A    -15.551922     6A    -11.338508
       7A    -11.326777     8A    -11.318277     9A    -11.312428
      10A    -11.252961    11A     -1.366330    12A     -1.297059
      13A     -1.244407    14A     -1.185155    15A     -1.150474
      16A     -1.031905    17A     -0.894104    18A     -0.875340
      19A     -0.846301    20A     -0.776447    21A     -0.737925
      22A     -0.697614    23A     -0.673694    24A     -0.637743
      25A     -0.632349    26A     -0.612435    27A     -0.589698
      28A     -0.557204    29A     -0.497535    30A     -0.496033
      31A     -0.452763    32A     -0.424335    33A     -0.410795
      34A     -0.373218    35A     -0.307957

  @DF-RHF Final Energy:  -464.68069625355866

   => Energetics <=

    Nuclear Repulsion Energy =            501.7186808131255589
    One-Electron Energy =               -1626.3538008781602002
    Two-Electron Energy =                 659.9544238114760901
    Total Energy =                       -464.6806962535586081
  Basis Set: (AUG-CC-PVTZ AUX)
    Blend: AUG-CC-PVTZ-RI
    Molecular point group: c1

    Geometry (in Angstrom), charge = 0, multiplicity = 1:

       Center              X                  Y                   Z               Mass
    ------------   -----------------  -----------------  -----------------  -----------------
         N            1.952003627209     0.511092697256     0.001497494865    14.003074004430
         C            1.228833627209    -0.620258302744     0.001489494865    12.000000000000
         C           -0.178319372791    -0.530194302744     0.001481494865    12.000000000000
         C           -0.709750372791     0.762568697256     0.001492494865    12.000000000000
         N           -0.027355372791     1.920273697256     0.001497494865    14.003074004430
         C            1.291730627209     1.691524697256     0.001504494865    12.000000000000
         N           -1.164559372791    -1.496906302744     0.001475494865    14.003074004430
         C           -2.284936372791    -0.787319302744     0.001536494865    12.000000000000
         N           -2.074125372791     0.568342697256     0.001469494865    14.003074004430
         N            1.867058627209    -1.813060302744     0.001486494865    14.003074004430
         H            1.927270627209     2.574578697256     0.001494494865     1.007825032230
         H           -3.282553372791    -1.208548302744     0.001560494865     1.007825032230
         H           -2.774664372791     1.300432697256     0.001408494865     1.007825032230
         H            2.876191627209    -1.831017302744     0.001501494865     1.007825032230
         H            1.338385727209    -2.672370702744    -0.198505505135     1.007825032230

  Basis Set: AUG-CC-PVTZ
    Blend: AUG-CC-PVTZ
  Basis Set: (AUG-CC-PVTZ AUX)
    Blend: AUG-CC-PVTZ-JKFIT
	 Reference Energy          =    -464.6806962535586649 [Eh]
	 Singles Energy            =      -0.0000000000000000 [Eh]
	 Same-Spin Energy          =      -0.5064404203989656 [Eh]
	 Opposite-Spin Energy      =      -1.4765760631720810 [Eh]
	 Correlation Energy        =      -1.9830164835710467 [Eh]
	 Total Energy              =    -466.6637127371296856 [Eh]

	 ================> DF-SCS-MP2 Energies <==================
	-----------------------------------------------------------
	 SCS Same-Spin Scale       =       0.3333333333333333 [-]
	 SCS Opposite-Spin Scale   =       1.2000000000000000 [-]
	 SCS Same-Spin Energy      =      -0.1688134734663219 [Eh]
	 SCS Opposite-Spin Energy  =      -1.7718912758064971 [Eh]
	 SCS Correlation Energy    =      -1.9407047492728189 [Eh]
	 SCS Total Energy          =    -466.6214010028314760 [Eh]
	-----------------------------------------------------------

  Dipole Moment: [D]
     X:    -2.2680      Y:    -1.1495      Z:    -0.2827     Total:     2.5583

*** Psi4 exiting successfully. Buy a developer a beer!
