                               Psi4 1.3.2 release

  ==> Input File <==

--------------------------------------------------------------------------
#psi4
#
memory 32 gb

molecule  {
0 1
  N        1.9514160     0.5241040     0.0000050
  C        1.2282460    -0.6072470    -0.0000030
  C       -0.1789070    -0.5171830    -0.0000110
  C       -0.7103380     0.7755800     0.0000000
  N       -0.0279430     1.9332850     0.0000050
  C        1.2911430     1.7045360     0.0000120
  N       -1.1651470    -1.4838950    -0.0000170
  C       -2.2855240    -0.7743080     0.0000440
  N       -2.0747130     0.5813540    -0.0000230
  N        1.8664710    -1.8000490    -0.0000060
  H        1.9266830     2.5875900     0.0000020
  H       -3.2831410    -1.1955370     0.0000680
  H       -2.7752494     1.3134385    -0.1000840
  H        2.8756040    -1.8180060     0.0000090
  H        1.3377970    -2.6593590     0.0000020
units angstrom
no_reorient  #important for SAPT in psi4, default
symmetry c1  #important for SAPT in psi4, default
}

set PROPERTIES_ORIGIN ["COM"]
properties('MP2/aug-cc-pvtz', properties = ['dipole'])
--------------------------------------------------------------------------

    Molecular point group: c1
  Charge       = 0
  Multiplicity = 1
  Basis Set: AUG-CC-PVTZ
    Blend: AUG-CC-PVTZ
  Basis Set: (AUG-CC-PVTZ AUX)
    Blend: AUG-CC-PVTZ-JKFIT

    Orbital Energies [Eh]
    ---------------------

    Doubly Occupied:

       1A    -15.634779     2A    -15.585642     3A    -15.571797
       4A    -15.559436     5A    -15.551723     6A    -11.338818
       7A    -11.326628     8A    -11.318106     9A    -11.312406
      10A    -11.252842    11A     -1.366112    12A     -1.297266
      13A     -1.245261    14A     -1.185257    15A     -1.151022
      16A     -1.032046    17A     -0.894665    18A     -0.875278
      19A     -0.845376    20A     -0.778128    21A     -0.738179
      22A     -0.699506    23A     -0.675559    24A     -0.638599
      25A     -0.631461    26A     -0.612755    27A     -0.589622
      28A     -0.557901    29A     -0.496948    30A     -0.496808
      31A     -0.452718    32A     -0.424312    33A     -0.410684
      34A     -0.373145    35A     -0.307654

  @DF-RHF Final Energy:  -464.68164085994886

   => Energetics <=

    Nuclear Repulsion Energy =            501.7877312337636226
    One-Electron Energy =               -1626.4818660755483961
    Two-Electron Energy =                 660.0124939818358598
    Total Energy =                       -464.6816408599488568
  Basis Set: (AUG-CC-PVTZ AUX)
    Blend: AUG-CC-PVTZ-RI
    Molecular point group: c1

    Geometry (in Angstrom), charge = 0, multiplicity = 1:

       Center              X                  Y                   Z               Mass
    ------------   -----------------  -----------------  -----------------  -----------------
         N            1.952003616015     0.511092735315     0.000751259036    14.003074004430
         C            1.228833616015    -0.620258264685     0.000743259036    12.000000000000
         C           -0.178319383985    -0.530194264685     0.000735259036    12.000000000000
         C           -0.709750383985     0.762568735315     0.000746259036    12.000000000000
         N           -0.027355383985     1.920273735315     0.000751259036    14.003074004430
         C            1.291730616015     1.691524735315     0.000758259036    12.000000000000
         N           -1.164559383985    -1.496906264685     0.000729259036    14.003074004430
         C           -2.284936383985    -0.787319264685     0.000790259036    12.000000000000
         N           -2.074125383985     0.568342735315     0.000723259036    14.003074004430
         N            1.867058616015    -1.813060264685     0.000740259036    14.003074004430
         H            1.927270616015     2.574578735315     0.000748259036     1.007825032230
         H           -3.282553383985    -1.208548264685     0.000814259036     1.007825032230
         H           -2.774661783985     1.300427235315    -0.099337740964     1.007825032230
         H            2.876191616015    -1.831017264685     0.000755259036     1.007825032230
         H            1.338384616015    -2.672370264685     0.000748259036     1.007825032230

  Basis Set: AUG-CC-PVTZ
    Blend: AUG-CC-PVTZ
  Basis Set: (AUG-CC-PVTZ AUX)
    Blend: AUG-CC-PVTZ-JKFIT
	 Reference Energy          =    -464.6816408599488568 [Eh]
	 Singles Energy            =      -0.0000000000000000 [Eh]
	 Same-Spin Energy          =      -0.5063361745906267 [Eh]
	 Opposite-Spin Energy      =      -1.4763145463648635 [Eh]
	 Correlation Energy        =      -1.9826507209554902 [Eh]
	 Total Energy              =    -466.6642915809043188 [Eh]

	 ================> DF-SCS-MP2 Energies <==================
	-----------------------------------------------------------
	 SCS Same-Spin Scale       =       0.3333333333333333 [-]
	 SCS Opposite-Spin Scale   =       1.2000000000000000 [-]
	 SCS Same-Spin Energy      =      -0.1687787248635422 [Eh]
	 SCS Opposite-Spin Energy  =      -1.7715774556378361 [Eh]
	 SCS Correlation Energy    =      -1.9403561805013783 [Eh]
	 SCS Total Energy          =    -466.6219970404502533 [Eh]
	-----------------------------------------------------------

  Dipole Moment: [D]
     X:    -2.2501      Y:    -1.1874      Z:    -0.1500     Total:     2.5486

*** Psi4 exiting successfully. Buy a developer a beer!
