                               Psi4 1.3.2 release

  ==> Input File <==

--------------------------------------------------------------------------
#psi4
#
memory 32 gb

molecule  {
0 1
  N        1.9514160     0.5241040     0.0000050
  C        1.2282460    -0.6072470    -0.0000030
  C       -0.1789070    -0.5171830    -0.0000110
  C       -0.7103380     0.7755800     0.0000000
  N       -0.0279430     1.9332850     0.0000050
  C        1.2911430     1.7045360     0.0000120
  N       -1.1651470    -1.4838950    -0.0000170
  C       -2.2855240    -0.7743080     0.0000440
  N       -2.0747130     0.5813540    -0.0000230
  N        1.8664710    -1.8000490    -0.0000060
  H        1.9266830     2.5875900     0.0000020
  H       -3.2831410    -1.1955370     0.0000680
  H       -2.7752520     1.3134440    -0.0000840
  H        2.8756040    -1.8180060     0.0000090
  H        1.3377976    -2.6593592    -0.0999980
units angstrom
no_reorient  #important for SAPT in psi4, default
symmetry c1  #important for SAPT in psi4, default
}

set PROPERTIES_ORIGIN ["COM"]
properties('MP2/aug-cc-pvtz', properties = ['dipole'])
--------------------------------------------------------------------------

    Molecular point group: c1
  Charge       = 0
  Multiplicity = 1
  Basis Set: AUG-CC-PVTZ
    Blend: AUG-CC-PVTZ
  Basis Set: (AUG-CC-PVTZ AUX)
    Blend: AUG-CC-PVTZ-JKFIT

    Orbital Energies [Eh]
    ---------------------

    Doubly Occupied:

       1A    -15.634623     2A    -15.585889     3A    -15.571703
       4A    -15.559505     5A    -15.551746     6A    -11.338729
       7A    -11.326710     8A    -11.318182     9A    -11.312400
      10A    -11.252847    11A     -1.366269    12A     -1.297225
      13A     -1.245033    14A     -1.185470    15A     -1.150931
      16A     -1.032017    17A     -0.894579    18A     -0.875426
      19A     -0.846343    20A     -0.777894    21A     -0.738215
      22A     -0.699113    23A     -0.675124    24A     -0.637694
      25A     -0.632498    26A     -0.612817    27A     -0.589691
      28A     -0.557803    29A     -0.497236    30A     -0.496486
      31A     -0.452707    32A     -0.424280    33A     -0.410706
      34A     -0.373127    35A     -0.307716

  @DF-RHF Final Energy:  -464.68176854058765

   => Energetics <=

    Nuclear Repulsion Energy =            501.7878240864802137
    One-Electron Energy =               -1626.4817187040584940
    Two-Electron Energy =                 660.0121260769906257
    Total Energy =                       -464.6817685405876546
  Basis Set: (AUG-CC-PVTZ AUX)
    Blend: AUG-CC-PVTZ-RI
    Molecular point group: c1

    Geometry (in Angstrom), charge = 0, multiplicity = 1:

       Center              X                  Y                   Z               Mass
    ------------   -----------------  -----------------  -----------------  -----------------
         N            1.952003630940     0.511092695764     0.000751259036    14.003074004430
         C            1.228833630940    -0.620258304236     0.000743259036    12.000000000000
         C           -0.178319369060    -0.530194304236     0.000735259036    12.000000000000
         C           -0.709750369060     0.762568695764     0.000746259036    12.000000000000
         N           -0.027355369060     1.920273695764     0.000751259036    14.003074004430
         C            1.291730630940     1.691524695764     0.000758259036    12.000000000000
         N           -1.164559369060    -1.496906304236     0.000729259036    14.003074004430
         C           -2.284936369060    -0.787319304236     0.000790259036    12.000000000000
         N           -2.074125369060     0.568342695764     0.000723259036    14.003074004430
         N            1.867058630940    -1.813060304236     0.000740259036    14.003074004430
         H            1.927270630940     2.574578695764     0.000748259036     1.007825032230
         H           -3.282553369060    -1.208548304236     0.000814259036     1.007825032230
         H           -2.774664369060     1.300432695764     0.000662259036     1.007825032230
         H            2.876191630940    -1.831017304236     0.000755259036     1.007825032230
         H            1.338385230940    -2.672370504236    -0.099251740964     1.007825032230

  Basis Set: AUG-CC-PVTZ
    Blend: AUG-CC-PVTZ
  Basis Set: (AUG-CC-PVTZ AUX)
    Blend: AUG-CC-PVTZ-JKFIT
	 Reference Energy          =    -464.6817685405876546 [Eh]
	 Singles Energy            =      -0.0000000000000000 [Eh]
	 Same-Spin Energy          =      -0.5063390627082417 [Eh]
	 Opposite-Spin Energy      =      -1.4763283993393825 [Eh]
	 Correlation Energy        =      -1.9826674620476243 [Eh]
	 Total Energy              =    -466.6644360026352842 [Eh]

	 ================> DF-SCS-MP2 Energies <==================
	-----------------------------------------------------------
	 SCS Same-Spin Scale       =       0.3333333333333333 [-]
	 SCS Opposite-Spin Scale   =       1.2000000000000000 [-]
	 SCS Same-Spin Energy      =      -0.1687796875694139 [Eh]
	 SCS Opposite-Spin Energy  =      -1.7715940792072591 [Eh]
	 SCS Correlation Energy    =      -1.9403737667766729 [Eh]
	 SCS Total Energy          =    -466.6221423073642995 [Eh]
	-----------------------------------------------------------

  Dipole Moment: [D]
     X:    -2.2590      Y:    -1.1747      Z:    -0.1425     Total:     2.5501

*** Psi4 exiting successfully. Buy a developer a beer!
