                               Psi4 1.3.2 release

  ==> Input File <==

--------------------------------------------------------------------------
#psi4
#
memory 32 gb

molecule  {
0 1
  N        1.9514160     0.5241040     0.0000050
  C        1.2282460    -0.6072470    -0.0000030
  C       -0.1789070    -0.5171830    -0.0000110
  C       -0.7103380     0.7755800     0.0000000
  N       -0.0279430     1.9332850     0.0000050
  C        1.2911430     1.7045360     0.0000120
  N       -1.1651472    -1.4838953     0.0499830
  C       -2.2855240    -0.7743080     0.0000440
  N       -2.0747130     0.5813540    -0.0000230
  N        1.8664710    -1.8000490    -0.0000060
  H        1.9266830     2.5875900     0.0000020
  H       -3.2831410    -1.1955370     0.0000680
  H       -2.7752520     1.3134440    -0.0000840
  H        2.8756040    -1.8180060     0.0000090
  H        1.3377970    -2.6593590     0.0000020
units angstrom
no_reorient  #important for SAPT in psi4, default
symmetry c1  #important for SAPT in psi4, default
}

set PROPERTIES_ORIGIN ["COM"]
properties('MP2/aug-cc-pvtz', properties = ['dipole'])
--------------------------------------------------------------------------

    Molecular point group: c1
  Charge       = 0
  Multiplicity = 1
  Basis Set: AUG-CC-PVTZ
    Blend: AUG-CC-PVTZ
  Basis Set: (AUG-CC-PVTZ AUX)
    Blend: AUG-CC-PVTZ-JKFIT

    Orbital Energies [Eh]
    ---------------------

    Doubly Occupied:

       1A    -15.634655     2A    -15.585619     3A    -15.571892
       4A    -15.559440     5A    -15.551693     6A    -11.338787
       7A    -11.326892     8A    -11.318191     9A    -11.312400
      10A    -11.252863    11A     -1.366124    12A     -1.297270
      13A     -1.245205    14A     -1.185367    15A     -1.151080
      16A     -1.031996    17A     -0.894740    18A     -0.875376
      19A     -0.846385    20A     -0.778409    21A     -0.738269
      22A     -0.699610    23A     -0.675412    24A     -0.637633
      25A     -0.632414    26A     -0.612878    27A     -0.589656
      28A     -0.557945    29A     -0.498094    30A     -0.495763
      31A     -0.452718    32A     -0.424181    33A     -0.410581
      34A     -0.373080    35A     -0.307564

  @DF-RHF Final Energy:  -464.68145550748090

   => Energetics <=

    Nuclear Repulsion Energy =            501.7784002604760758
    One-Electron Energy =               -1626.4593438063843678
    Two-Electron Energy =                 659.9994880384274438
    Total Energy =                       -464.6814555074809050
  Basis Set: (AUG-CC-PVTZ AUX)
    Blend: AUG-CC-PVTZ-RI
    Molecular point group: c1

    Geometry (in Angstrom), charge = 0, multiplicity = 1:

       Center              X                  Y                   Z               Mass
    ------------   -----------------  -----------------  -----------------  -----------------
         N            1.952003656154     0.511092725377    -0.005179207791    14.003074004430
         C            1.228833656154    -0.620258274623    -0.005187207791    12.000000000000
         C           -0.178319343846    -0.530194274623    -0.005195207791    12.000000000000
         C           -0.709750343846     0.762568725377    -0.005184207791    12.000000000000
         N           -0.027355343846     1.920273725377    -0.005179207791    14.003074004430
         C            1.291730656154     1.691524725377    -0.005172207791    12.000000000000
         N           -1.164559543846    -1.496906574623     0.044798792209    14.003074004430
         C           -2.284936343846    -0.787319274623    -0.005140207791    12.000000000000
         N           -2.074125343846     0.568342725377    -0.005207207791    14.003074004430
         N            1.867058656154    -1.813060274623    -0.005190207791    14.003074004430
         H            1.927270656154     2.574578725377    -0.005182207791     1.007825032230
         H           -3.282553343846    -1.208548274623    -0.005116207791     1.007825032230
         H           -2.774664343846     1.300432725377    -0.005268207791     1.007825032230
         H            2.876191656154    -1.831017274623    -0.005175207791     1.007825032230
         H            1.338384656154    -2.672370274623    -0.005182207791     1.007825032230

  Basis Set: AUG-CC-PVTZ
    Blend: AUG-CC-PVTZ
  Basis Set: (AUG-CC-PVTZ AUX)
    Blend: AUG-CC-PVTZ-JKFIT
	 Reference Energy          =    -464.6814555074809050 [Eh]
	 Singles Energy            =      -0.0000000000000000 [Eh]
	 Same-Spin Energy          =      -0.5063333965954739 [Eh]
	 Opposite-Spin Energy      =      -1.4763224075797523 [Eh]
	 Correlation Energy        =      -1.9826558041752262 [Eh]
	 Total Energy              =    -466.6641113116561428 [Eh]

	 ================> DF-SCS-MP2 Energies <==================
	-----------------------------------------------------------
	 SCS Same-Spin Scale       =       0.3333333333333333 [-]
	 SCS Opposite-Spin Scale   =       1.2000000000000000 [-]
	 SCS Same-Spin Energy      =      -0.1687777988651580 [Eh]
	 SCS Opposite-Spin Energy  =      -1.7715868890957027 [Eh]
	 SCS Correlation Energy    =      -1.9403646879608607 [Eh]
	 SCS Total Energy          =    -466.6218201954417850 [Eh]
	-----------------------------------------------------------

  Dipole Moment: [D]
     X:    -2.2550      Y:    -1.1821      Z:    -0.0667     Total:     2.5470

*** Psi4 exiting successfully. Buy a developer a beer!
