                               Psi4 1.3.2 release

  ==> Input File <==

--------------------------------------------------------------------------
#psi4
#
memory 32 gb

molecule  {
0 1
  N        1.9514160     0.5241040     0.0000050
  C        1.2282460    -0.6072470    -0.0000030
  C       -0.1789070    -0.5171830    -0.0000110
  C       -0.7103380     0.7755800     0.0000000
  N       -0.0279430     1.9332850     0.0000050
  C        1.2911430     1.7045360     0.0000120
  N       -1.1651470    -1.4838950    -0.0000170
  C       -2.2855240    -0.7743080     0.0000440
  N       -2.0747130     0.5813540    -0.0000230
  N        1.8664710    -1.8000490    -0.0000060
  H        1.9266830     2.5875900     0.0000020
  H       -3.2831324    -1.1955326     0.2000680
  H       -2.7752520     1.3134440    -0.0000840
  H        2.8756040    -1.8180060     0.0000090
  H        1.3377970    -2.6593590     0.0000020
units angstrom
no_reorient  #important for SAPT in psi4, default
symmetry c1  #important for SAPT in psi4, default
}

set PROPERTIES_ORIGIN ["COM"]
properties('MP2/aug-cc-pvtz', properties = ['dipole'])
--------------------------------------------------------------------------

    Molecular point group: c1
  Charge       = 0
  Multiplicity = 1
  Basis Set: AUG-CC-PVTZ
    Blend: AUG-CC-PVTZ
  Basis Set: (AUG-CC-PVTZ AUX)
    Blend: AUG-CC-PVTZ-JKFIT

    Orbital Energies [Eh]
    ---------------------

    Doubly Occupied:

       1A    -15.634454     2A    -15.585902     3A    -15.572226
       4A    -15.559554     5A    -15.551896     6A    -11.339129
       7A    -11.327889     8A    -11.318425     9A    -11.312688
      10A    -11.253141    11A     -1.366329    12A     -1.297491
      13A     -1.245489    14A     -1.185762    15A     -1.151286
      16A     -1.031810    17A     -0.893772    18A     -0.875615
      19A     -0.845665    20A     -0.777606    21A     -0.738201
      22A     -0.698710    23A     -0.675653    24A     -0.639855
      25A     -0.630112    26A     -0.611500    27A     -0.588719
      28A     -0.557513    29A     -0.497647    30A     -0.496413
      31A     -0.452855    32A     -0.424352    33A     -0.410888
      34A     -0.373202    35A     -0.307812

  @DF-RHF Final Energy:  -464.67952808240278

   => Energetics <=

    Nuclear Repulsion Energy =            501.7402253693171019
    One-Electron Energy =               -1626.3803850405704452
    Two-Electron Energy =                 659.9606315888505605
    Total Energy =                       -464.6795280824027259
  Basis Set: (AUG-CC-PVTZ AUX)
    Blend: AUG-CC-PVTZ-RI
    Molecular point group: c1

    Geometry (in Angstrom), charge = 0, multiplicity = 1:

       Center              X                  Y                   Z               Mass
    ------------   -----------------  -----------------  -----------------  -----------------
         N            1.952003571241     0.511092661437    -0.001487448452    14.003074004430
         C            1.228833571241    -0.620258338563    -0.001495448452    12.000000000000
         C           -0.178319428759    -0.530194338563    -0.001503448452    12.000000000000
         C           -0.709750428759     0.762568661437    -0.001492448452    12.000000000000
         N           -0.027355428759     1.920273661437    -0.001487448452    14.003074004430
         C            1.291730571241     1.691524661437    -0.001480448452    12.000000000000
         N           -1.164559428759    -1.496906338563    -0.001509448452    14.003074004430
         C           -2.284936428759    -0.787319338563    -0.001448448452    12.000000000000
         N           -2.074125428759     0.568342661437    -0.001515448452    14.003074004430
         N            1.867058571241    -1.813060338563    -0.001498448452    14.003074004430
         H            1.927270571241     2.574578661437    -0.001490448452     1.007825032230
         H           -3.282544828759    -1.208543938563     0.198575551548     1.007825032230
         H           -2.774664428759     1.300432661437    -0.001576448452     1.007825032230
         H            2.876191571241    -1.831017338563    -0.001483448452     1.007825032230
         H            1.338384571241    -2.672370338563    -0.001490448452     1.007825032230

  Basis Set: AUG-CC-PVTZ
    Blend: AUG-CC-PVTZ
  Basis Set: (AUG-CC-PVTZ AUX)
    Blend: AUG-CC-PVTZ-JKFIT
	 Reference Energy          =    -464.6795280824027827 [Eh]
	 Singles Energy            =      -0.0000000000000000 [Eh]
	 Same-Spin Energy          =      -0.5064811373444638 [Eh]
	 Opposite-Spin Energy      =      -1.4765837387813745 [Eh]
	 Correlation Energy        =      -1.9830648761258383 [Eh]
	 Total Energy              =    -466.6625929585286485 [Eh]

	 ================> DF-SCS-MP2 Energies <==================
	-----------------------------------------------------------
	 SCS Same-Spin Scale       =       0.3333333333333333 [-]
	 SCS Opposite-Spin Scale   =       1.2000000000000000 [-]
	 SCS Same-Spin Energy      =      -0.1688270457814879 [Eh]
	 SCS Opposite-Spin Energy  =      -1.7719004865376493 [Eh]
	 SCS Correlation Energy    =      -1.9407275323191373 [Eh]
	 SCS Total Energy          =    -466.6202556147219411 [Eh]
	-----------------------------------------------------------

  Dipole Moment: [D]
     X:    -2.2113      Y:    -1.1741      Z:     0.1383     Total:     2.5075

*** Psi4 exiting successfully. Buy a developer a beer!
