                               Psi4 1.3.2 release

  ==> Input File <==

--------------------------------------------------------------------------
#psi4
#
memory 32 gb

molecule  {
0 1
  N        1.9514160     0.5241040     0.0000050
  C        1.2282460    -0.6072470    -0.0000030
  C       -0.1789070    -0.5171830    -0.0000110
  C       -0.7103380     0.7755800     0.0000000
  N       -0.0279430     1.9332850     0.0000050
  C        1.2911430     1.7045360     0.0000120
  N       -1.1651470    -1.4838950    -0.0000170
  C       -2.2855240    -0.7743080     0.0000440
  N       -2.0747154     0.5813525     0.2499770
  N        1.8664710    -1.8000490    -0.0000060
  H        1.9266830     2.5875900     0.0000020
  H       -3.2831410    -1.1955370     0.0000680
  H       -2.7752520     1.3134440    -0.0000840
  H        2.8756040    -1.8180060     0.0000090
  H        1.3377970    -2.6593590     0.0000020
units angstrom
no_reorient  #important for SAPT in psi4, default
symmetry c1  #important for SAPT in psi4, default
}

set PROPERTIES_ORIGIN ["COM"]
properties('MP2/aug-cc-pvtz', properties = ['dipole'])
--------------------------------------------------------------------------

    Molecular point group: c1
  Charge       = 0
  Multiplicity = 1
  Basis Set: AUG-CC-PVTZ
    Blend: AUG-CC-PVTZ
  Basis Set: (AUG-CC-PVTZ AUX)
    Blend: AUG-CC-PVTZ-JKFIT

    Orbital Energies [Eh]
    ---------------------

    Doubly Occupied:

       1A    -15.634535     2A    -15.586603     3A    -15.575816
       4A    -15.560992     5A    -15.553588     6A    -11.339914
       7A    -11.328927     8A    -11.320546     9A    -11.313874
      10A    -11.255035    11A     -1.360093    12A     -1.297065
      13A     -1.246414    14A     -1.182991    15A     -1.151265
      16A     -1.031645    17A     -0.891980    18A     -0.874107
      19A     -0.836252    20A     -0.774546    21A     -0.735484
      22A     -0.696056    23A     -0.674048    24A     -0.640068
      25A     -0.629689    26A     -0.609013    27A     -0.586909
      28A     -0.557845    29A     -0.499598    30A     -0.494844
      31A     -0.454481    32A     -0.428776    33A     -0.412037
      34A     -0.374980    35A     -0.308285

  @DF-RHF Final Energy:  -464.66930528987922

   => Energetics <=

    Nuclear Repulsion Energy =            500.9271822895806281
    One-Electron Energy =               -1624.7563681039525818
    Two-Electron Energy =                 659.1598805244927917
    Total Energy =                       -464.6693052898792757
  Basis Set: (AUG-CC-PVTZ AUX)
    Blend: AUG-CC-PVTZ-RI
    Molecular point group: c1

    Geometry (in Angstrom), charge = 0, multiplicity = 1:

       Center              X                  Y                   Z               Mass
    ------------   -----------------  -----------------  -----------------  -----------------
         N            1.952003884260     0.511092849798    -0.025916131779    14.003074004430
         C            1.228833884260    -0.620258150202    -0.025924131779    12.000000000000
         C           -0.178319115740    -0.530194150202    -0.025932131779    12.000000000000
         C           -0.709750115740     0.762568849798    -0.025921131779    12.000000000000
         N           -0.027355115740     1.920273849798    -0.025916131779    14.003074004430
         C            1.291730884260     1.691524849798    -0.025909131779    12.000000000000
         N           -1.164559115740    -1.496906150202    -0.025938131779    14.003074004430
         C           -2.284936115740    -0.787319150202    -0.025877131779    12.000000000000
         N           -2.074127515740     0.568341349798     0.224055868221    14.003074004430
         N            1.867058884260    -1.813060150202    -0.025927131779    14.003074004430
         H            1.927270884260     2.574578849798    -0.025919131779     1.007825032230
         H           -3.282553115740    -1.208548150202    -0.025853131779     1.007825032230
         H           -2.774664115740     1.300432849798    -0.026005131779     1.007825032230
         H            2.876191884260    -1.831017150202    -0.025912131779     1.007825032230
         H            1.338384884260    -2.672370150202    -0.025919131779     1.007825032230

  Basis Set: AUG-CC-PVTZ
    Blend: AUG-CC-PVTZ
  Basis Set: (AUG-CC-PVTZ AUX)
    Blend: AUG-CC-PVTZ-JKFIT
	 Reference Energy          =    -464.6693052898792189 [Eh]
	 Singles Energy            =      -0.0000000000000000 [Eh]
	 Same-Spin Energy          =      -0.5065315722122454 [Eh]
	 Opposite-Spin Energy      =      -1.4778485350823578 [Eh]
	 Correlation Energy        =      -1.9843801072946032 [Eh]
	 Total Energy              =    -466.6536853971738310 [Eh]

	 ================> DF-SCS-MP2 Energies <==================
	-----------------------------------------------------------
	 SCS Same-Spin Scale       =       0.3333333333333333 [-]
	 SCS Opposite-Spin Scale   =       1.2000000000000000 [-]
	 SCS Same-Spin Energy      =      -0.1688438574040818 [Eh]
	 SCS Opposite-Spin Energy  =      -1.7734182420988294 [Eh]
	 SCS Correlation Energy    =      -1.9422620995029112 [Eh]
	 SCS Total Energy          =    -466.6115673893821167 [Eh]
	-----------------------------------------------------------

  Dipole Moment: [D]
     X:    -2.0475      Y:    -1.3090      Z:    -0.2610     Total:     2.4441

*** Psi4 exiting successfully. Buy a developer a beer!
