                               Psi4 1.3.2 release

  ==> Input File <==

--------------------------------------------------------------------------
#psi4
#
memory 32 gb

molecule  {
0 1
  N        1.9514160     0.5241040     0.0000050
  C        1.2282460    -0.6072470    -0.0000030
  C       -0.1789070    -0.5171830    -0.0000110
  C       -0.7103380     0.7755800     0.0000000
  N       -0.0279430     1.9332850     0.0000050
  C        1.2911430     1.7045360     0.0000120
  N       -1.1651470    -1.4838950    -0.0000170
  C       -2.2855240    -0.7743080     0.0000440
  N       -2.0747130     0.5813540    -0.0000230
  N        1.8664710    -1.8000490    -0.0000060
  H        1.9266830     2.5875900     0.0000020
  H       -3.2831367    -1.1955348     0.1000680
  H       -2.7752520     1.3134440    -0.0000840
  H        2.8756040    -1.8180060     0.0000090
  H        1.3377970    -2.6593590     0.0000020
units angstrom
no_reorient  #important for SAPT in psi4, default
symmetry c1  #important for SAPT in psi4, default
}

set PROPERTIES_ORIGIN ["COM"]
properties('MP2/aug-cc-pvtz', properties = ['dipole'])
--------------------------------------------------------------------------

    Molecular point group: c1
  Charge       = 0
  Multiplicity = 1
  Basis Set: AUG-CC-PVTZ
    Blend: AUG-CC-PVTZ
  Basis Set: (AUG-CC-PVTZ AUX)
    Blend: AUG-CC-PVTZ-JKFIT

    Orbital Energies [Eh]
    ---------------------

    Doubly Occupied:

       1A    -15.634564     2A    -15.585696     3A    -15.571843
       4A    -15.559448     5A    -15.551739     6A    -11.338887
       7A    -11.326990     8A    -11.318218     9A    -11.312465
      10A    -11.252891    11A     -1.366267    12A     -1.297337
      13A     -1.245311    14A     -1.185625    15A     -1.151137
      16A     -1.031990    17A     -0.894490    18A     -0.875496
      19A     -0.846181    20A     -0.778201    21A     -0.738287
      22A     -0.699412    23A     -0.675583    24A     -0.638431
      25A     -0.631707    26A     -0.612578    27A     -0.589460
      28A     -0.557889    29A     -0.497236    30A     -0.496611
      31A     -0.452730    32A     -0.424283    33A     -0.410728
      34A     -0.373122    35A     -0.307677

  @DF-RHF Final Energy:  -464.68145203476496

   => Energetics <=

    Nuclear Repulsion Energy =            501.7933649154517184
    One-Electron Energy =               -1626.4886048136329464
    Two-Electron Energy =                 660.0137878634161552
    Total Energy =                       -464.6814520347650159
  Basis Set: (AUG-CC-PVTZ AUX)
    Blend: AUG-CC-PVTZ-RI
    Molecular point group: c1

    Geometry (in Angstrom), charge = 0, multiplicity = 1:

       Center              X                  Y                   Z               Mass
    ------------   -----------------  -----------------  -----------------  -----------------
         N            1.952003603329     0.511092677854    -0.000741212623    14.003074004430
         C            1.228833603329    -0.620258322146    -0.000749212623    12.000000000000
         C           -0.178319396671    -0.530194322146    -0.000757212623    12.000000000000
         C           -0.709750396671     0.762568677854    -0.000746212623    12.000000000000
         N           -0.027355396671     1.920273677854    -0.000741212623    14.003074004430
         C            1.291730603329     1.691524677854    -0.000734212623    12.000000000000
         N           -1.164559396671    -1.496906322146    -0.000763212623    14.003074004430
         C           -2.284936396671    -0.787319322146    -0.000702212623    12.000000000000
         N           -2.074125396671     0.568342677854    -0.000769212623    14.003074004430
         N            1.867058603329    -1.813060322146    -0.000752212623    14.003074004430
         H            1.927270603329     2.574578677854    -0.000744212623     1.007825032230
         H           -3.282549096671    -1.208546122146     0.099321787377     1.007825032230
         H           -2.774664396671     1.300432677854    -0.000830212623     1.007825032230
         H            2.876191603329    -1.831017322146    -0.000737212623     1.007825032230
         H            1.338384603329    -2.672370322146    -0.000744212623     1.007825032230

  Basis Set: AUG-CC-PVTZ
    Blend: AUG-CC-PVTZ
  Basis Set: (AUG-CC-PVTZ AUX)
    Blend: AUG-CC-PVTZ-JKFIT
	 Reference Energy          =    -464.6814520347649591 [Eh]
	 Singles Energy            =      -0.0000000000000000 [Eh]
	 Same-Spin Energy          =      -0.5063493079601824 [Eh]
	 Opposite-Spin Energy      =      -1.4763263228991352 [Eh]
	 Correlation Energy        =      -1.9826756308593176 [Eh]
	 Total Energy              =    -466.6641276656242781 [Eh]

	 ================> DF-SCS-MP2 Energies <==================
	-----------------------------------------------------------
	 SCS Same-Spin Scale       =       0.3333333333333333 [-]
	 SCS Opposite-Spin Scale   =       1.2000000000000000 [-]
	 SCS Same-Spin Energy      =      -0.1687831026533941 [Eh]
	 SCS Opposite-Spin Energy  =      -1.7715915874789623 [Eh]
	 SCS Correlation Energy    =      -1.9403746901323564 [Eh]
	 SCS Total Energy          =    -466.6218267248972893 [Eh]
	-----------------------------------------------------------

  Dipole Moment: [D]
     X:    -2.2446      Y:    -1.1810      Z:     0.0695     Total:     2.5373

*** Psi4 exiting successfully. Buy a developer a beer!
