                               Psi4 1.3.2 release

  ==> Input File <==

--------------------------------------------------------------------------
#psi4
#
memory 32 gb

molecule  {
0 1
  N        1.9514160     0.5241040     0.0000050
  C        1.2282460    -0.6072470    -0.0000030
  C       -0.1789070    -0.5171830    -0.0000110
  C       -0.7103380     0.7755800     0.0000000
  N       -0.0279430     1.9332850     0.0000050
  C        1.2911430     1.7045360     0.0000120
  N       -1.1651470    -1.4838950    -0.0000170
  C       -2.2855240    -0.7743080     0.0000440
  N       -2.0747130     0.5813540    -0.0000230
  N        1.8664710    -1.8000490    -0.0000060
  H        1.9266829     2.5875899    -0.0499980
  H       -3.2831410    -1.1955370     0.0000680
  H       -2.7752520     1.3134440    -0.0000840
  H        2.8756040    -1.8180060     0.0000090
  H        1.3377970    -2.6593590     0.0000020
units angstrom
no_reorient  #important for SAPT in psi4, default
symmetry c1  #important for SAPT in psi4, default
}

set PROPERTIES_ORIGIN ["COM"]
properties('MP2/aug-cc-pvtz', properties = ['dipole'])
--------------------------------------------------------------------------

    Molecular point group: c1
  Charge       = 0
  Multiplicity = 1
  Basis Set: AUG-CC-PVTZ
    Blend: AUG-CC-PVTZ
  Basis Set: (AUG-CC-PVTZ AUX)
    Blend: AUG-CC-PVTZ-JKFIT

    Orbital Energies [Eh]
    ---------------------

    Doubly Occupied:

       1A    -15.634612     2A    -15.585631     3A    -15.571723
       4A    -15.559429     5A    -15.551698     6A    -11.338815
       7A    -11.326698     8A    -11.318162     9A    -11.312504
      10A    -11.252823    11A     -1.366258    12A     -1.297292
      13A     -1.245258    14A     -1.185588    15A     -1.151096
      16A     -1.032044    17A     -0.894730    18A     -0.875390
      19A     -0.846367    20A     -0.778392    21A     -0.738294
      22A     -0.699594    23A     -0.675566    24A     -0.637721
      25A     -0.632494    26A     -0.612943    27A     -0.589574
      28A     -0.557977    29A     -0.497963    30A     -0.495763
      31A     -0.452657    32A     -0.424264    33A     -0.410685
      34A     -0.373097    35A     -0.307631

  @DF-RHF Final Energy:  -464.68188140972438

   => Energetics <=

    Nuclear Repulsion Energy =            501.8067798600231413
    One-Electron Energy =               -1626.5158605524738960
    Two-Electron Energy =                 660.0271992827263148
    Total Energy =                       -464.6818814097243830
  Basis Set: (AUG-CC-PVTZ AUX)
    Blend: AUG-CC-PVTZ-RI
    Molecular point group: c1

    Geometry (in Angstrom), charge = 0, multiplicity = 1:

       Center              X                  Y                   Z               Mass
    ------------   -----------------  -----------------  -----------------  -----------------
         N            1.952003636164     0.511092695018     0.000378141121    14.003074004430
         C            1.228833636164    -0.620258304982     0.000370141121    12.000000000000
         C           -0.178319363836    -0.530194304982     0.000362141121    12.000000000000
         C           -0.709750363836     0.762568695018     0.000373141121    12.000000000000
         N           -0.027355363836     1.920273695018     0.000378141121    14.003074004430
         C            1.291730636164     1.691524695018     0.000385141121    12.000000000000
         N           -1.164559363836    -1.496906304982     0.000356141121    14.003074004430
         C           -2.284936363836    -0.787319304982     0.000417141121    12.000000000000
         N           -2.074125363836     0.568342695018     0.000350141121    14.003074004430
         N            1.867058636164    -1.813060304982     0.000367141121    14.003074004430
         H            1.927270536164     2.574578595018    -0.049624858879     1.007825032230
         H           -3.282553363836    -1.208548304982     0.000441141121     1.007825032230
         H           -2.774664363836     1.300432695018     0.000289141121     1.007825032230
         H            2.876191636164    -1.831017304982     0.000382141121     1.007825032230
         H            1.338384636164    -2.672370304982     0.000375141121     1.007825032230

  Basis Set: AUG-CC-PVTZ
    Blend: AUG-CC-PVTZ
  Basis Set: (AUG-CC-PVTZ AUX)
    Blend: AUG-CC-PVTZ-JKFIT
	 Reference Energy          =    -464.6818814097243830 [Eh]
	 Singles Energy            =      -0.0000000000000000 [Eh]
	 Same-Spin Energy          =      -0.5063177816780557 [Eh]
	 Opposite-Spin Energy      =      -1.4762677953891639 [Eh]
	 Correlation Energy        =      -1.9825855770672196 [Eh]
	 Total Energy              =    -466.6644669867915809 [Eh]

	 ================> DF-SCS-MP2 Energies <==================
	-----------------------------------------------------------
	 SCS Same-Spin Scale       =       0.3333333333333333 [-]
	 SCS Opposite-Spin Scale   =       1.2000000000000000 [-]
	 SCS Same-Spin Energy      =      -0.1687725938926852 [Eh]
	 SCS Opposite-Spin Energy  =      -1.7715213544669965 [Eh]
	 SCS Correlation Energy    =      -1.9402939483596817 [Eh]
	 SCS Total Energy          =    -466.6221753580840641 [Eh]
	-----------------------------------------------------------

  Dipole Moment: [D]
     X:    -2.2573      Y:    -1.1849      Z:    -0.0238     Total:     2.5495

*** Psi4 exiting successfully. Buy a developer a beer!
