                               Psi4 1.3.2 release

  ==> Input File <==

--------------------------------------------------------------------------
#psi4
#
memory 32 gb

molecule  {
0 1
  N        1.9514160     0.5241040     0.0000050
  C        1.2282460    -0.6072470    -0.0000030
  C       -0.1789070    -0.5171830    -0.0000110
  C       -0.7103380     0.7755800     0.0000000
  N       -0.0279430     1.9332850     0.0000050
  C        1.2911430     1.7045360     0.0000120
  N       -1.1651470    -1.4838950    -0.0000170
  C       -2.2855240    -0.7743080     0.0000440
  N       -2.0747130     0.5813540    -0.0000230
  N        1.8664710    -1.8000490    -0.0000060
  H        1.9266830     2.5875900     0.0000020
  H       -3.2831410    -1.1955370     0.0000680
  H       -2.7752467     1.3134330    -0.2000840
  H        2.8756040    -1.8180060     0.0000090
  H        1.3377970    -2.6593590     0.0000020
units angstrom
no_reorient  #important for SAPT in psi4, default
symmetry c1  #important for SAPT in psi4, default
}

set PROPERTIES_ORIGIN ["COM"]
properties('MP2/aug-cc-pvtz', properties = ['dipole'])
--------------------------------------------------------------------------

    Molecular point group: c1
  Charge       = 0
  Multiplicity = 1
  Basis Set: AUG-CC-PVTZ
    Blend: AUG-CC-PVTZ
  Basis Set: (AUG-CC-PVTZ AUX)
    Blend: AUG-CC-PVTZ-JKFIT

    Orbital Energies [Eh]
    ---------------------

    Doubly Occupied:

       1A    -15.635297     2A    -15.585687     3A    -15.572039
       4A    -15.559502     5A    -15.551829     6A    -11.338857
       7A    -11.326459     8A    -11.317979     9A    -11.312452
      10A    -11.252943    11A     -1.365722    12A     -1.297209
      13A     -1.245287    14A     -1.184337    15A     -1.150827
      16A     -1.032018    17A     -0.894451    18A     -0.874814
      19A     -0.842516    20A     -0.777268    21A     -0.737745
      22A     -0.699049    23A     -0.675552    24A     -0.640268
      25A     -0.629344    26A     -0.612181    27A     -0.589421
      28A     -0.557582    29A     -0.496913    30A     -0.496780
      31A     -0.452809    32A     -0.424464    33A     -0.410711
      34A     -0.373287    35A     -0.307716

  @DF-RHF Final Energy:  -464.68020639318871

   => Energetics <=

    Nuclear Repulsion Energy =            501.7182831374999523
    One-Electron Energy =               -1626.3543531771208563
    Two-Electron Energy =                 659.9558636464320216
    Total Energy =                       -464.6802063931887687
  Basis Set: (AUG-CC-PVTZ AUX)
    Blend: AUG-CC-PVTZ-RI
    Molecular point group: c1

    Geometry (in Angstrom), charge = 0, multiplicity = 1:

       Center              X                  Y                   Z               Mass
    ------------   -----------------  -----------------  -----------------  -----------------
         N            1.952003595867     0.511092776357     0.001497494865    14.003074004430
         C            1.228833595867    -0.620258223643     0.001489494865    12.000000000000
         C           -0.178319404133    -0.530194223643     0.001481494865    12.000000000000
         C           -0.709750404133     0.762568776357     0.001492494865    12.000000000000
         N           -0.027355404133     1.920273776357     0.001497494865    14.003074004430
         C            1.291730595867     1.691524776357     0.001504494865    12.000000000000
         N           -1.164559404133    -1.496906223643     0.001475494865    14.003074004430
         C           -2.284936404133    -0.787319223643     0.001536494865    12.000000000000
         N           -2.074125404133     0.568342776357     0.001469494865    14.003074004430
         N            1.867058595867    -1.813060223643     0.001486494865    14.003074004430
         H            1.927270595867     2.574578776357     0.001494494865     1.007825032230
         H           -3.282553404133    -1.208548223643     0.001560494865     1.007825032230
         H           -2.774659104133     1.300421776357    -0.198591505135     1.007825032230
         H            2.876191595867    -1.831017223643     0.001501494865     1.007825032230
         H            1.338384595867    -2.672370223643     0.001494494865     1.007825032230

  Basis Set: AUG-CC-PVTZ
    Blend: AUG-CC-PVTZ
  Basis Set: (AUG-CC-PVTZ AUX)
    Blend: AUG-CC-PVTZ-JKFIT
	 Reference Energy          =    -464.6802063931887119 [Eh]
	 Singles Energy            =      -0.0000000000000000 [Eh]
	 Same-Spin Energy          =      -0.5064297849948254 [Eh]
	 Opposite-Spin Energy      =      -1.4765306434955818 [Eh]
	 Correlation Energy        =      -1.9829604284904072 [Eh]
	 Total Energy              =    -466.6631668216791127 [Eh]

	 ================> DF-SCS-MP2 Energies <==================
	-----------------------------------------------------------
	 SCS Same-Spin Scale       =       0.3333333333333333 [-]
	 SCS Opposite-Spin Scale   =       1.2000000000000000 [-]
	 SCS Same-Spin Energy      =      -0.1688099283316085 [Eh]
	 SCS Opposite-Spin Energy  =      -1.7718367721946982 [Eh]
	 SCS Correlation Energy    =      -1.9406467005263066 [Eh]
	 SCS Total Energy          =    -466.6208530937150272 [Eh]
	-----------------------------------------------------------

  Dipole Moment: [D]
     X:    -2.2332      Y:    -1.1996      Z:    -0.2987     Total:     2.5526

*** Psi4 exiting successfully. Buy a developer a beer!
