                               Psi4 1.3.2 release

  ==> Input File <==

--------------------------------------------------------------------------
#psi4
#
memory 32 gb

molecule  {
0 1
  N        1.9514160     0.5241040     0.0000050
  C        1.2282460    -0.6072470    -0.0000030
  C       -0.1789070    -0.5171830    -0.0000110
  C       -0.7103380     0.7755800     0.0000000
  N       -0.0279430     1.9332850     0.0000050
  C        1.2911430     1.7045360     0.0000120
  N       -1.1651470    -1.4838950    -0.0000170
  C       -2.2855240    -0.7743080     0.0000440
  N       -2.0747130     0.5813540    -0.0000230
  N        1.8664694    -1.8000504     0.2999940
  H        1.9266830     2.5875900     0.0000020
  H       -3.2831410    -1.1955370     0.0000680
  H       -2.7752520     1.3134440    -0.0000840
  H        2.8756040    -1.8180060     0.0000090
  H        1.3377970    -2.6593590     0.0000020
units angstrom
no_reorient  #important for SAPT in psi4, default
symmetry c1  #important for SAPT in psi4, default
}

set PROPERTIES_ORIGIN ["COM"]
properties('MP2/aug-cc-pvtz', properties = ['dipole'])
--------------------------------------------------------------------------

    Molecular point group: c1
  Charge       = 0
  Multiplicity = 1
  Basis Set: AUG-CC-PVTZ
    Blend: AUG-CC-PVTZ
  Basis Set: (AUG-CC-PVTZ AUX)
    Blend: AUG-CC-PVTZ-JKFIT

    Orbital Energies [Eh]
    ---------------------

    Doubly Occupied:

       1A    -15.637156     2A    -15.591240     3A    -15.573521
       4A    -15.565327     5A    -15.556803     6A    -11.339041
       7A    -11.329943     8A    -11.321628     9A    -11.314687
      10A    -11.257123    11A     -1.369105    12A     -1.296623
      13A     -1.239831    14A     -1.184607    15A     -1.150307
      16A     -1.033689    17A     -0.893155    18A     -0.876382
      19A     -0.848334    20A     -0.771574    21A     -0.726316
      22A     -0.692296    23A     -0.664730    24A     -0.642246
      25A     -0.627736    26A     -0.605099    27A     -0.590860
      28A     -0.554171    29A     -0.499847    30A     -0.498743
      31A     -0.455577    32A     -0.429484    33A     -0.412971
      34A     -0.376749    35A     -0.313927

  @DF-RHF Final Energy:  -464.67232880767006

   => Energetics <=

    Nuclear Repulsion Energy =            500.8272240438752760
    One-Electron Energy =               -1624.5174528452253071
    Two-Electron Energy =                 659.0178999936799755
    Total Energy =                       -464.6723288076700555
  Basis Set: (AUG-CC-PVTZ AUX)
    Blend: AUG-CC-PVTZ-RI
    Molecular point group: c1

    Geometry (in Angstrom), charge = 0, multiplicity = 1:

       Center              X                  Y                   Z               Mass
    ------------   -----------------  -----------------  -----------------  -----------------
         N            1.952003801313     0.511092839430    -0.031100362776    14.003074004430
         C            1.228833801313    -0.620258160570    -0.031108362776    12.000000000000
         C           -0.178319198687    -0.530194160570    -0.031116362776    12.000000000000
         C           -0.709750198687     0.762568839430    -0.031105362776    12.000000000000
         N           -0.027355198687     1.920273839430    -0.031100362776    14.003074004430
         C            1.291730801313     1.691524839430    -0.031093362776    12.000000000000
         N           -1.164559198687    -1.496906160570    -0.031122362776    14.003074004430
         C           -2.284936198687    -0.787319160570    -0.031061362776    12.000000000000
         N           -2.074125198687     0.568342839430    -0.031128362776    14.003074004430
         N            1.867057201313    -1.813061560570     0.268888637224    14.003074004430
         H            1.927270801313     2.574578839430    -0.031103362776     1.007825032230
         H           -3.282553198687    -1.208548160570    -0.031037362776     1.007825032230
         H           -2.774664198687     1.300432839430    -0.031189362776     1.007825032230
         H            2.876191801313    -1.831017160570    -0.031096362776     1.007825032230
         H            1.338384801313    -2.672370160570    -0.031103362776     1.007825032230

  Basis Set: AUG-CC-PVTZ
    Blend: AUG-CC-PVTZ
  Basis Set: (AUG-CC-PVTZ AUX)
    Blend: AUG-CC-PVTZ-JKFIT
	 Reference Energy          =    -464.6723288076700555 [Eh]
	 Singles Energy            =      -0.0000000000000000 [Eh]
	 Same-Spin Energy          =      -0.5071231029821859 [Eh]
	 Opposite-Spin Energy      =      -1.4787371702261813 [Eh]
	 Correlation Energy        =      -1.9858602732083672 [Eh]
	 Total Energy              =    -466.6581890808784010 [Eh]

	 ================> DF-SCS-MP2 Energies <==================
	-----------------------------------------------------------
	 SCS Same-Spin Scale       =       0.3333333333333333 [-]
	 SCS Opposite-Spin Scale   =       1.2000000000000000 [-]
	 SCS Same-Spin Energy      =      -0.1690410343273953 [Eh]
	 SCS Opposite-Spin Energy  =      -1.7744846042714175 [Eh]
	 SCS Correlation Energy    =      -1.9435256385988129 [Eh]
	 SCS Total Energy          =    -466.6158544462688837 [Eh]
	-----------------------------------------------------------

  Dipole Moment: [D]
     X:    -2.5716      Y:    -0.7508      Z:    -0.7295     Total:     2.7765

*** Psi4 exiting successfully. Buy a developer a beer!
