                               Psi4 1.3.2 release

  ==> Input File <==

--------------------------------------------------------------------------
#psi4
#
memory 32 gb

molecule  {
0 1
  N        1.9514160     0.5241040     0.0000050
  C        1.2282460    -0.6072470    -0.0000030
  C       -0.1789070    -0.5171830    -0.0000110
  C       -0.7103380     0.7755800     0.0000000
  N       -0.0279430     1.9332850     0.0000050
  C        1.2911430     1.7045360     0.0000120
  N       -1.1651470    -1.4838950    -0.0000170
  C       -2.2855240    -0.7743080     0.0000440
  N       -2.0747135     0.5813537     0.0499770
  N        1.8664710    -1.8000490    -0.0000060
  H        1.9266830     2.5875900     0.0000020
  H       -3.2831410    -1.1955370     0.0000680
  H       -2.7752520     1.3134440    -0.0000840
  H        2.8756040    -1.8180060     0.0000090
  H        1.3377970    -2.6593590     0.0000020
units angstrom
no_reorient  #important for SAPT in psi4, default
symmetry c1  #important for SAPT in psi4, default
}

set PROPERTIES_ORIGIN ["COM"]
properties('MP2/aug-cc-pvtz', properties = ['dipole'])
--------------------------------------------------------------------------

    Molecular point group: c1
  Charge       = 0
  Multiplicity = 1
  Basis Set: AUG-CC-PVTZ
    Blend: AUG-CC-PVTZ
  Basis Set: (AUG-CC-PVTZ AUX)
    Blend: AUG-CC-PVTZ-JKFIT

    Orbital Energies [Eh]
    ---------------------

    Doubly Occupied:

       1A    -15.634577     2A    -15.585667     3A    -15.571885
       4A    -15.559479     5A    -15.551766     6A    -11.338851
       7A    -11.326782     8A    -11.318251     9A    -11.312452
      10A    -11.252899    11A     -1.365982    12A     -1.297282
      13A     -1.245300    14A     -1.185479    15A     -1.151100
      16A     -1.032033    17A     -0.894600    18A     -0.875411
      19A     -0.845882    20A     -0.778258    21A     -0.738210
      22A     -0.699507    23A     -0.675520    24A     -0.637912
      25A     -0.632266    26A     -0.612780    27A     -0.589601
      28A     -0.558003    29A     -0.497383    30A     -0.496427
      31A     -0.452763    32A     -0.424444    33A     -0.410728
      34A     -0.373179    35A     -0.307661

  @DF-RHF Final Energy:  -464.68157668829133

   => Energetics <=

    Nuclear Repulsion Energy =            501.7753058557519807
    One-Electron Energy =               -1626.4531280459732443
    Two-Electron Energy =                 659.9962455019300478
    Total Energy =                       -464.6815766882913294
  Basis Set: (AUG-CC-PVTZ AUX)
    Blend: AUG-CC-PVTZ-RI
    Molecular point group: c1

    Geometry (in Angstrom), charge = 0, multiplicity = 1:

       Center              X                  Y                   Z               Mass
    ------------   -----------------  -----------------  -----------------  -----------------
         N            1.952003687260     0.511092725377    -0.005179207791    14.003074004430
         C            1.228833687260    -0.620258274623    -0.005187207791    12.000000000000
         C           -0.178319312740    -0.530194274623    -0.005195207791    12.000000000000
         C           -0.709750312740     0.762568725377    -0.005184207791    12.000000000000
         N           -0.027355312740     1.920273725377    -0.005179207791    14.003074004430
         C            1.291730687260     1.691524725377    -0.005172207791    12.000000000000
         N           -1.164559312740    -1.496906274623    -0.005201207791    14.003074004430
         C           -2.284936312740    -0.787319274623    -0.005140207791    12.000000000000
         N           -2.074125812740     0.568342425377     0.044792792209    14.003074004430
         N            1.867058687260    -1.813060274623    -0.005190207791    14.003074004430
         H            1.927270687260     2.574578725377    -0.005182207791     1.007825032230
         H           -3.282553312740    -1.208548274623    -0.005116207791     1.007825032230
         H           -2.774664312740     1.300432725377    -0.005268207791     1.007825032230
         H            2.876191687260    -1.831017274623    -0.005175207791     1.007825032230
         H            1.338384687260    -2.672370274623    -0.005182207791     1.007825032230

  Basis Set: AUG-CC-PVTZ
    Blend: AUG-CC-PVTZ
  Basis Set: (AUG-CC-PVTZ AUX)
    Blend: AUG-CC-PVTZ-JKFIT
	 Reference Energy          =    -464.6815766882913294 [Eh]
	 Singles Energy            =      -0.0000000000000000 [Eh]
	 Same-Spin Energy          =      -0.5063125941163849 [Eh]
	 Opposite-Spin Energy      =      -1.4762884537266325 [Eh]
	 Correlation Energy        =      -1.9826010478430174 [Eh]
	 Total Energy              =    -466.6641777361343202 [Eh]

	 ================> DF-SCS-MP2 Energies <==================
	-----------------------------------------------------------
	 SCS Same-Spin Scale       =       0.3333333333333333 [-]
	 SCS Opposite-Spin Scale   =       1.2000000000000000 [-]
	 SCS Same-Spin Energy      =      -0.1687708647054616 [Eh]
	 SCS Opposite-Spin Energy  =      -1.7715461444719589 [Eh]
	 SCS Correlation Energy    =      -1.9403170091774204 [Eh]
	 SCS Total Energy          =    -466.6218936974687495 [Eh]
	-----------------------------------------------------------

  Dipole Moment: [D]
     X:    -2.2471      Y:    -1.1885      Z:    -0.0499     Total:     2.5426

*** Psi4 exiting successfully. Buy a developer a beer!
