                               Psi4 1.3.2 release

  ==> Input File <==

--------------------------------------------------------------------------
#psi4
#
memory 32 gb

molecule  {
0 1
  N        1.9514160     0.5241040     0.0000050
  C        1.2282460    -0.6072470    -0.0000030
  C       -0.1789070    -0.5171830    -0.0000110
  C       -0.7103380     0.7755800     0.0000000
  N       -0.0279430     1.9332850     0.0000050
  C        1.2911430     1.7045360     0.0000120
  N       -1.1651470    -1.4838950    -0.0000170
  C       -2.2855240    -0.7743080     0.0000440
  N       -2.0747145     0.5813531     0.1499770
  N        1.8664710    -1.8000490    -0.0000060
  H        1.9266830     2.5875900     0.0000020
  H       -3.2831410    -1.1955370     0.0000680
  H       -2.7752520     1.3134440    -0.0000840
  H        2.8756040    -1.8180060     0.0000090
  H        1.3377970    -2.6593590     0.0000020
units angstrom
no_reorient  #important for SAPT in psi4, default
symmetry c1  #important for SAPT in psi4, default
}

set PROPERTIES_ORIGIN ["COM"]
properties('MP2/aug-cc-pvtz', properties = ['dipole'])
--------------------------------------------------------------------------

    Molecular point group: c1
  Charge       = 0
  Multiplicity = 1
  Basis Set: AUG-CC-PVTZ
    Blend: AUG-CC-PVTZ
  Basis Set: (AUG-CC-PVTZ AUX)
    Blend: AUG-CC-PVTZ-JKFIT

    Orbital Energies [Eh]
    ---------------------

    Doubly Occupied:

       1A    -15.634436     2A    -15.585988     3A    -15.573236
       4A    -15.559994     5A    -15.552392     6A    -11.339212
       7A    -11.327526     8A    -11.319044     9A    -11.312942
      10A    -11.253626    11A     -1.363914    12A     -1.297238
      13A     -1.245683    14A     -1.184661    15A     -1.151190
      16A     -1.031872    17A     -0.893537    18A     -0.875027
      19A     -0.842295    20A     -0.777021    21A     -0.737323
      22A     -0.698338    23A     -0.675143    24A     -0.639090
      25A     -0.630837    26A     -0.611504    27A     -0.588853
      28A     -0.557959    29A     -0.498457    30A     -0.495611
      31A     -0.453361    32A     -0.425905    33A     -0.411157
      34A     -0.373822    35A     -0.307879

  @DF-RHF Final Energy:  -464.67764967547453

   => Energetics <=

    Nuclear Repulsion Energy =            501.4886266172436535
    One-Electron Energy =               -1625.8804035659595684
    Two-Electron Energy =                 659.7141272732413881
    Total Energy =                       -464.6776496754745267
  Basis Set: (AUG-CC-PVTZ AUX)
    Blend: AUG-CC-PVTZ-RI
    Molecular point group: c1

    Geometry (in Angstrom), charge = 0, multiplicity = 1:

       Center              X                  Y                   Z               Mass
    ------------   -----------------  -----------------  -----------------  -----------------
         N            1.952003790944     0.511092787588    -0.015547669785    14.003074004430
         C            1.228833790944    -0.620258212412    -0.015555669785    12.000000000000
         C           -0.178319209056    -0.530194212412    -0.015563669785    12.000000000000
         C           -0.709750209056     0.762568787588    -0.015552669785    12.000000000000
         N           -0.027355209056     1.920273787588    -0.015547669785    14.003074004430
         C            1.291730790944     1.691524787588    -0.015540669785    12.000000000000
         N           -1.164559209056    -1.496906212412    -0.015569669785    14.003074004430
         C           -2.284936209056    -0.787319212412    -0.015508669785    12.000000000000
         N           -2.074126709056     0.568341887588     0.134424330215    14.003074004430
         N            1.867058790944    -1.813060212412    -0.015558669785    14.003074004430
         H            1.927270790944     2.574578787588    -0.015550669785     1.007825032230
         H           -3.282553209056    -1.208548212412    -0.015484669785     1.007825032230
         H           -2.774664209056     1.300432787588    -0.015636669785     1.007825032230
         H            2.876191790944    -1.831017212412    -0.015543669785     1.007825032230
         H            1.338384790944    -2.672370212412    -0.015550669785     1.007825032230

  Basis Set: AUG-CC-PVTZ
    Blend: AUG-CC-PVTZ
  Basis Set: (AUG-CC-PVTZ AUX)
    Blend: AUG-CC-PVTZ-JKFIT
	 Reference Energy          =    -464.6776496754745267 [Eh]
	 Singles Energy            =      -0.0000000000000000 [Eh]
	 Same-Spin Energy          =      -0.5063781797826452 [Eh]
	 Opposite-Spin Energy      =      -1.4767222209614432 [Eh]
	 Correlation Energy        =      -1.9831004007440884 [Eh]
	 Total Energy              =    -466.6607500762186191 [Eh]

	 ================> DF-SCS-MP2 Energies <==================
	-----------------------------------------------------------
	 SCS Same-Spin Scale       =       0.3333333333333333 [-]
	 SCS Opposite-Spin Scale   =       1.2000000000000000 [-]
	 SCS Same-Spin Energy      =      -0.1687927265942151 [Eh]
	 SCS Opposite-Spin Energy  =      -1.7720666651537318 [Eh]
	 SCS Correlation Energy    =      -1.9408593917479469 [Eh]
	 SCS Total Energy          =    -466.6185090672224760 [Eh]
	-----------------------------------------------------------

  Dipole Moment: [D]
     X:    -2.1785      Y:    -1.2299      Z:    -0.1523     Total:     2.5064

*** Psi4 exiting successfully. Buy a developer a beer!
