                               Psi4 1.3.2 release

  ==> Input File <==

--------------------------------------------------------------------------
#psi4
#
memory 32 gb

molecule  {
0 1
  N        1.9514160     0.5241040     0.0000050
  C        1.2282460    -0.6072470    -0.0000030
  C       -0.1789070    -0.5171830    -0.0000110
  C       -0.7103380     0.7755800     0.0000000
  N       -0.0279430     1.9332850     0.0000050
  C        1.2911430     1.7045360     0.0000120
  N       -1.1651470    -1.4838950    -0.0000170
  C       -2.2855240    -0.7743080     0.0000440
  N       -2.0747130     0.5813540    -0.0000230
  N        1.8664710    -1.8000490    -0.0000060
  H        1.9266827     2.5875896    -0.2499980
  H       -3.2831410    -1.1955370     0.0000680
  H       -2.7752520     1.3134440    -0.0000840
  H        2.8756040    -1.8180060     0.0000090
  H        1.3377970    -2.6593590     0.0000020
units angstrom
no_reorient  #important for SAPT in psi4, default
symmetry c1  #important for SAPT in psi4, default
}

set PROPERTIES_ORIGIN ["COM"]
properties('MP2/aug-cc-pvtz', properties = ['dipole'])
--------------------------------------------------------------------------

    Molecular point group: c1
  Charge       = 0
  Multiplicity = 1
  Basis Set: AUG-CC-PVTZ
    Blend: AUG-CC-PVTZ
  Basis Set: (AUG-CC-PVTZ AUX)
    Blend: AUG-CC-PVTZ-JKFIT

    Orbital Energies [Eh]
    ---------------------

    Doubly Occupied:

       1A    -15.634818     2A    -15.585729     3A    -15.571954
       4A    -15.559819     5A    -15.551987     6A    -11.339050
       7A    -11.326974     8A    -11.318470     9A    -11.315181
      10A    -11.253185    11A     -1.366505    12A     -1.297454
      13A     -1.245416    14A     -1.185794    15A     -1.151341
      16A     -1.031812    17A     -0.894391    18A     -0.873868
      19A     -0.846585    20A     -0.777988    21A     -0.737758
      22A     -0.698227    23A     -0.675703    24A     -0.638543
      25A     -0.631532    26A     -0.613137    27A     -0.586948
      28A     -0.557234    29A     -0.501755    30A     -0.490842
      31A     -0.451889    32A     -0.424343    33A     -0.410925
      34A     -0.373129    35A     -0.307598

  @DF-RHF Final Energy:  -464.67740680839552

   => Energetics <=

    Nuclear Repulsion Energy =            501.6988185831091869
    One-Electron Energy =               -1626.2966827981647384
    Two-Electron Energy =                 659.9204574066600344
    Total Energy =                       -464.6774068083955171
  Basis Set: (AUG-CC-PVTZ AUX)
    Blend: AUG-CC-PVTZ-RI
    Molecular point group: c1

    Geometry (in Angstrom), charge = 0, multiplicity = 1:

       Center              X                  Y                   Z               Mass
    ------------   -----------------  -----------------  -----------------  -----------------
         N            1.952003637656     0.511092697256     0.001870612780    14.003074004430
         C            1.228833637656    -0.620258302744     0.001862612780    12.000000000000
         C           -0.178319362344    -0.530194302744     0.001854612780    12.000000000000
         C           -0.709750362344     0.762568697256     0.001865612780    12.000000000000
         N           -0.027355362344     1.920273697256     0.001870612780    14.003074004430
         C            1.291730637656     1.691524697256     0.001877612780    12.000000000000
         N           -1.164559362344    -1.496906302744     0.001848612780    14.003074004430
         C           -2.284936362344    -0.787319302744     0.001909612780    12.000000000000
         N           -2.074125362344     0.568342697256     0.001842612780    14.003074004430
         N            1.867058637656    -1.813060302744     0.001859612780    14.003074004430
         H            1.927270337656     2.574578297256    -0.248132387220     1.007825032230
         H           -3.282553362344    -1.208548302744     0.001933612780     1.007825032230
         H           -2.774664362344     1.300432697256     0.001781612780     1.007825032230
         H            2.876191637656    -1.831017302744     0.001874612780     1.007825032230
         H            1.338384637656    -2.672370302744     0.001867612780     1.007825032230

  Basis Set: AUG-CC-PVTZ
    Blend: AUG-CC-PVTZ
  Basis Set: (AUG-CC-PVTZ AUX)
    Blend: AUG-CC-PVTZ-JKFIT
	 Reference Energy          =    -464.6774068083955171 [Eh]
	 Singles Energy            =      -0.0000000000000000 [Eh]
	 Same-Spin Energy          =      -0.5066218411839796 [Eh]
	 Opposite-Spin Energy      =      -1.4768168746021595 [Eh]
	 Correlation Energy        =      -1.9834387157861391 [Eh]
	 Total Energy              =    -466.6608455241816387 [Eh]

	 ================> DF-SCS-MP2 Energies <==================
	-----------------------------------------------------------
	 SCS Same-Spin Scale       =       0.3333333333333333 [-]
	 SCS Opposite-Spin Scale   =       1.2000000000000000 [-]
	 SCS Same-Spin Energy      =      -0.1688739470613265 [Eh]
	 SCS Opposite-Spin Energy  =      -1.7721802495225913 [Eh]
	 SCS Correlation Energy    =      -1.9410541965839179 [Eh]
	 SCS Total Energy          =    -466.6184610049794514 [Eh]
	-----------------------------------------------------------

  Dipole Moment: [D]
     X:    -2.2912      Y:    -1.2246      Z:    -0.1171     Total:     2.6005

*** Psi4 exiting successfully. Buy a developer a beer!
