                               Psi4 1.3.2 release

  ==> Input File <==

--------------------------------------------------------------------------
#psi4
#
memory 32 gb

molecule  {
0 1
  N        1.9514160     0.5241040     0.0000050
  C        1.2282460    -0.6072470    -0.0000030
  C       -0.1789070    -0.5171830    -0.0000110
  C       -0.7103380     0.7755800     0.0000000
  N       -0.0279430     1.9332850     0.0000050
  C        1.2911430     1.7045360     0.0000120
  N       -1.1651470    -1.4838950    -0.0000170
  C       -2.2855240    -0.7743080     0.0000440
  N       -2.0747159     0.5813522     0.2999770
  N        1.8664710    -1.8000490    -0.0000060
  H        1.9266830     2.5875900     0.0000020
  H       -3.2831410    -1.1955370     0.0000680
  H       -2.7752520     1.3134440    -0.0000840
  H        2.8756040    -1.8180060     0.0000090
  H        1.3377970    -2.6593590     0.0000020
units angstrom
no_reorient  #important for SAPT in psi4, default
symmetry c1  #important for SAPT in psi4, default
}

set PROPERTIES_ORIGIN ["COM"]
properties('MP2/aug-cc-pvtz', properties = ['dipole'])
--------------------------------------------------------------------------

    Molecular point group: c1
  Charge       = 0
  Multiplicity = 1
  Basis Set: AUG-CC-PVTZ
    Blend: AUG-CC-PVTZ
  Basis Set: (AUG-CC-PVTZ AUX)
    Blend: AUG-CC-PVTZ-JKFIT

    Orbital Energies [Eh]
    ---------------------

    Doubly Occupied:

       1A    -15.634868     2A    -15.587006     3A    -15.577493
       4A    -15.561649     5A    -15.554368     6A    -11.340378
       7A    -11.329831     8A    -11.321519     9A    -11.314479
      10A    -11.255969    11A     -1.357701    12A     -1.296884
      13A     -1.246889    14A     -1.181825    15A     -1.151222
      16A     -1.031548    17A     -0.891274    18A     -0.873376
      19A     -0.832888    20A     -0.772904    21A     -0.734189
      22A     -0.694582    23A     -0.673014    24A     -0.640314
      25A     -0.629413    26A     -0.607488    27A     -0.585244
      28A     -0.557747    29A     -0.500145    30A     -0.494441
      31A     -0.455193    32A     -0.430714    33A     -0.412644
      34A     -0.375682    35A     -0.308540

  @DF-RHF Final Energy:  -464.66322616606629

   => Energetics <=

    Nuclear Repulsion Energy =            500.5500504675401316
    One-Electron Energy =               -1623.9997153698750481
    Two-Electron Energy =                 658.7864387362686784
    Total Energy =                       -464.6632261660662380
  Basis Set: (AUG-CC-PVTZ AUX)
    Blend: AUG-CC-PVTZ-RI
    Molecular point group: c1

    Geometry (in Angstrom), charge = 0, multiplicity = 1:

       Center              X                  Y                   Z               Mass
    ------------   -----------------  -----------------  -----------------  -----------------
         N            1.952003936103     0.511092880904    -0.031100362776    14.003074004430
         C            1.228833936103    -0.620258119096    -0.031108362776    12.000000000000
         C           -0.178319063897    -0.530194119096    -0.031116362776    12.000000000000
         C           -0.709750063897     0.762568880904    -0.031105362776    12.000000000000
         N           -0.027355063897     1.920273880904    -0.031100362776    14.003074004430
         C            1.291730936103     1.691524880904    -0.031093362776    12.000000000000
         N           -1.164559063897    -1.496906119096    -0.031122362776    14.003074004430
         C           -2.284936063897    -0.787319119096    -0.031061362776    12.000000000000
         N           -2.074127963897     0.568341080904     0.268871637224    14.003074004430
         N            1.867058936103    -1.813060119096    -0.031111362776    14.003074004430
         H            1.927270936103     2.574578880904    -0.031103362776     1.007825032230
         H           -3.282553063897    -1.208548119096    -0.031037362776     1.007825032230
         H           -2.774664063897     1.300432880904    -0.031189362776     1.007825032230
         H            2.876191936103    -1.831017119096    -0.031096362776     1.007825032230
         H            1.338384936103    -2.672370119096    -0.031103362776     1.007825032230

  Basis Set: AUG-CC-PVTZ
    Blend: AUG-CC-PVTZ
  Basis Set: (AUG-CC-PVTZ AUX)
    Blend: AUG-CC-PVTZ-JKFIT
	 Reference Energy          =    -464.6632261660662948 [Eh]
	 Singles Energy            =      -0.0000000000000000 [Eh]
	 Same-Spin Energy          =      -0.5066537313181659 [Eh]
	 Opposite-Spin Energy      =      -1.4787086489928805 [Eh]
	 Correlation Energy        =      -1.9853623803110465 [Eh]
	 Total Energy              =    -466.6485885463773684 [Eh]

	 ================> DF-SCS-MP2 Energies <==================
	-----------------------------------------------------------
	 SCS Same-Spin Scale       =       0.3333333333333333 [-]
	 SCS Opposite-Spin Scale   =       1.2000000000000000 [-]
	 SCS Same-Spin Energy      =      -0.1688845771060553 [Eh]
	 SCS Opposite-Spin Energy  =      -1.7744503787914565 [Eh]
	 SCS Correlation Energy    =      -1.9433349558975119 [Eh]
	 SCS Total Energy          =    -466.6065611219638072 [Eh]
	-----------------------------------------------------------

  Dipole Moment: [D]
     X:    -1.9620      Y:    -1.3607      Z:    -0.3180     Total:     2.4088

*** Psi4 exiting successfully. Buy a developer a beer!
