                               Psi4 1.3.2 release

  ==> Input File <==

--------------------------------------------------------------------------
#psi4
#
memory 32 gb

molecule  {
0 1
  N        1.9514160     0.5241040     0.0000050
  C        1.2282460    -0.6072470    -0.0000030
  C       -0.1789070    -0.5171830    -0.0000110
  C       -0.7103380     0.7755800     0.0000000
  N       -0.0279430     1.9332850     0.0000050
  C        1.2911430     1.7045360     0.0000120
  N       -1.1651470    -1.4838950    -0.0000170
  C       -2.2855240    -0.7743080     0.0000440
  N       -2.0747130     0.5813540    -0.0000230
  N        1.8664697    -1.8000501     0.2499940
  H        1.9266830     2.5875900     0.0000020
  H       -3.2831410    -1.1955370     0.0000680
  H       -2.7752520     1.3134440    -0.0000840
  H        2.8756040    -1.8180060     0.0000090
  H        1.3377970    -2.6593590     0.0000020
units angstrom
no_reorient  #important for SAPT in psi4, default
symmetry c1  #important for SAPT in psi4, default
}

set PROPERTIES_ORIGIN ["COM"]
properties('MP2/aug-cc-pvtz', properties = ['dipole'])
--------------------------------------------------------------------------

    Molecular point group: c1
  Charge       = 0
  Multiplicity = 1
  Basis Set: AUG-CC-PVTZ
    Blend: AUG-CC-PVTZ
  Basis Set: (AUG-CC-PVTZ AUX)
    Blend: AUG-CC-PVTZ-JKFIT

    Orbital Energies [Eh]
    ---------------------

    Doubly Occupied:

       1A    -15.636453     2A    -15.589211     3A    -15.573022
       4A    -15.563702     5A    -15.555389     6A    -11.338939
       7A    -11.329049     8A    -11.320671     9A    -11.314054
      10A    -11.255918    11A     -1.368316    12A     -1.296696
      13A     -1.241436    14A     -1.184982    15A     -1.150769
      16A     -1.033249    17A     -0.893490    18A     -0.876085
      19A     -0.847775    20A     -0.773202    21A     -0.729317
      22A     -0.693723    23A     -0.668552    24A     -0.641289
      25A     -0.629021    26A     -0.607915    27A     -0.590805
      28A     -0.555270    29A     -0.499051    30A     -0.498162
      31A     -0.454786    32A     -0.427941    33A     -0.412354
      34A     -0.375700    35A     -0.312206

  @DF-RHF Final Energy:  -464.67604281372633

   => Energetics <=

    Nuclear Repulsion Energy =            501.1203999912058862
    One-Electron Energy =               -1625.1158849474645649
    Two-Electron Energy =                 659.3194421425323526
    Total Energy =                       -464.6760428137263261
  Basis Set: (AUG-CC-PVTZ AUX)
    Blend: AUG-CC-PVTZ-RI
    Molecular point group: c1

    Geometry (in Angstrom), charge = 0, multiplicity = 1:

       Center              X                  Y                   Z               Mass
    ------------   -----------------  -----------------  -----------------  -----------------
         N            1.952003770207     0.511092808325    -0.025916131779    14.003074004430
         C            1.228833770207    -0.620258191675    -0.025924131779    12.000000000000
         C           -0.178319229793    -0.530194191675    -0.025932131779    12.000000000000
         C           -0.709750229793     0.762568808325    -0.025921131779    12.000000000000
         N           -0.027355229793     1.920273808325    -0.025916131779    14.003074004430
         C            1.291730770207     1.691524808325    -0.025909131779    12.000000000000
         N           -1.164559229793    -1.496906191675    -0.025938131779    14.003074004430
         C           -2.284936229793    -0.787319191675    -0.025877131779    12.000000000000
         N           -2.074125229793     0.568342808325    -0.025944131779    14.003074004430
         N            1.867057470207    -1.813061291675     0.224072868221    14.003074004430
         H            1.927270770207     2.574578808325    -0.025919131779     1.007825032230
         H           -3.282553229793    -1.208548191675    -0.025853131779     1.007825032230
         H           -2.774664229793     1.300432808325    -0.026005131779     1.007825032230
         H            2.876191770207    -1.831017191675    -0.025912131779     1.007825032230
         H            1.338384770207    -2.672370191675    -0.025919131779     1.007825032230

  Basis Set: AUG-CC-PVTZ
    Blend: AUG-CC-PVTZ
  Basis Set: (AUG-CC-PVTZ AUX)
    Blend: AUG-CC-PVTZ-JKFIT
	 Reference Energy          =    -464.6760428137263261 [Eh]
	 Singles Energy            =      -0.0000000000000000 [Eh]
	 Same-Spin Energy          =      -0.5068626441883120 [Eh]
	 Opposite-Spin Energy      =      -1.4779190573058700 [Eh]
	 Correlation Energy        =      -1.9847817014941820 [Eh]
	 Total Energy              =    -466.6608245152204972 [Eh]

	 ================> DF-SCS-MP2 Energies <==================
	-----------------------------------------------------------
	 SCS Same-Spin Scale       =       0.3333333333333333 [-]
	 SCS Opposite-Spin Scale   =       1.2000000000000000 [-]
	 SCS Same-Spin Energy      =      -0.1689542147294373 [Eh]
	 SCS Opposite-Spin Energy  =      -1.7735028687670440 [Eh]
	 SCS Correlation Energy    =      -1.9424570834964814 [Eh]
	 SCS Total Energy          =    -466.6184998972228186 [Eh]
	-----------------------------------------------------------

  Dipole Moment: [D]
     X:    -2.4836      Y:    -0.8717      Z:    -0.6158     Total:     2.7033

*** Psi4 exiting successfully. Buy a developer a beer!
