                               Psi4 1.3.2 release

  ==> Input File <==

--------------------------------------------------------------------------
#psi4
#
memory 32 gb

molecule  {
0 1
  N        1.9514160     0.5241040     0.0000050
  C        1.2282460    -0.6072470    -0.0000030
  C       -0.1789070    -0.5171830    -0.0000110
  C       -0.7103380     0.7755800     0.0000000
  N       -0.0279430     1.9332850     0.0000050
  C        1.2911430     1.7045360     0.0000120
  N       -1.1651470    -1.4838950    -0.0000170
  C       -2.2855240    -0.7743080     0.0000440
  N       -2.0747130     0.5813540    -0.0000230
  N        1.8664707    -1.8000492     0.0499940
  H        1.9266830     2.5875900     0.0000020
  H       -3.2831410    -1.1955370     0.0000680
  H       -2.7752520     1.3134440    -0.0000840
  H        2.8756040    -1.8180060     0.0000090
  H        1.3377970    -2.6593590     0.0000020
units angstrom
no_reorient  #important for SAPT in psi4, default
symmetry c1  #important for SAPT in psi4, default
}

set PROPERTIES_ORIGIN ["COM"]
properties('MP2/aug-cc-pvtz', properties = ['dipole'])
--------------------------------------------------------------------------

    Molecular point group: c1
  Charge       = 0
  Multiplicity = 1
  Basis Set: AUG-CC-PVTZ
    Blend: AUG-CC-PVTZ
  Basis Set: (AUG-CC-PVTZ AUX)
    Blend: AUG-CC-PVTZ-JKFIT

    Orbital Energies [Eh]
    ---------------------

    Doubly Occupied:

       1A    -15.634685     2A    -15.585737     3A    -15.571771
       4A    -15.559602     5A    -15.551849     6A    -11.338808
       7A    -11.326791     8A    -11.318260     9A    -11.312463
      10A    -11.252943    11A     -1.366338    12A     -1.297247
      13A     -1.245099    14A     -1.185565    15A     -1.151093
      16A     -1.032108    17A     -0.894680    18A     -0.875478
      19A     -0.846419    20A     -0.778155    21A     -0.737882
      22A     -0.699336    23A     -0.675363    24A     -0.637915
      25A     -0.632331    26A     -0.612779    27A     -0.589750
      28A     -0.557890    29A     -0.497057    30A     -0.496864
      31A     -0.452780    32A     -0.424412    33A     -0.410751
      34A     -0.373206    35A     -0.307834

  @DF-RHF Final Energy:  -464.68188731631511

   => Energetics <=

    Nuclear Repulsion Energy =            501.7830792085381404
    One-Electron Energy =               -1626.4674498582542128
    Two-Electron Energy =                 660.0024833334010737
    Total Energy =                       -464.6818873163150556
  Basis Set: (AUG-CC-PVTZ AUX)
    Blend: AUG-CC-PVTZ-RI
    Molecular point group: c1

    Geometry (in Angstrom), charge = 0, multiplicity = 1:

       Center              X                  Y                   Z               Mass
    ------------   -----------------  -----------------  -----------------  -----------------
         N            1.952003666523     0.511092715008    -0.005179207791    14.003074004430
         C            1.228833666523    -0.620258284992    -0.005187207791    12.000000000000
         C           -0.178319333477    -0.530194284992    -0.005195207791    12.000000000000
         C           -0.709750333477     0.762568715008    -0.005184207791    12.000000000000
         N           -0.027355333477     1.920273715008    -0.005179207791    14.003074004430
         C            1.291730666523     1.691524715008    -0.005172207791    12.000000000000
         N           -1.164559333477    -1.496906284992    -0.005201207791    14.003074004430
         C           -2.284936333477    -0.787319284992    -0.005140207791    12.000000000000
         N           -2.074125333477     0.568342715008    -0.005207207791    14.003074004430
         N            1.867058366523    -1.813060484992     0.044809792209    14.003074004430
         H            1.927270666523     2.574578715008    -0.005182207791     1.007825032230
         H           -3.282553333477    -1.208548284992    -0.005116207791     1.007825032230
         H           -2.774664333477     1.300432715008    -0.005268207791     1.007825032230
         H            2.876191666523    -1.831017284992    -0.005175207791     1.007825032230
         H            1.338384666523    -2.672370284992    -0.005182207791     1.007825032230

  Basis Set: AUG-CC-PVTZ
    Blend: AUG-CC-PVTZ
  Basis Set: (AUG-CC-PVTZ AUX)
    Blend: AUG-CC-PVTZ-JKFIT
	 Reference Energy          =    -464.6818873163151125 [Eh]
	 Singles Energy            =      -0.0000000000000000 [Eh]
	 Same-Spin Energy          =      -0.5063264775514874 [Eh]
	 Opposite-Spin Energy      =      -1.4763075212684735 [Eh]
	 Correlation Energy        =      -1.9826339988199608 [Eh]
	 Total Energy              =    -466.6645213151350617 [Eh]

	 ================> DF-SCS-MP2 Energies <==================
	-----------------------------------------------------------
	 SCS Same-Spin Scale       =       0.3333333333333333 [-]
	 SCS Opposite-Spin Scale   =       1.2000000000000000 [-]
	 SCS Same-Spin Energy      =      -0.1687754925171625 [Eh]
	 SCS Opposite-Spin Energy  =      -1.7715690255221681 [Eh]
	 SCS Correlation Energy    =      -1.9403445180393306 [Eh]
	 SCS Total Energy          =    -466.6222318343544657 [Eh]
	-----------------------------------------------------------

  Dipole Moment: [D]
     X:    -2.2658      Y:    -1.1698      Z:    -0.1264     Total:     2.5531

*** Psi4 exiting successfully. Buy a developer a beer!
