                               Psi4 1.3.2 release

  ==> Input File <==

--------------------------------------------------------------------------
#psi4
#
memory 32 gb

molecule  {
0 1
  N        1.9514160     0.5241040     0.0000050
  C        1.2282460    -0.6072470    -0.0000030
  C       -0.1789070    -0.5171830    -0.0000110
  C       -0.7103380     0.7755800     0.0000000
  N       -0.0279430     1.9332850     0.0000050
  C        1.2911430     1.7045360     0.0000120
  N       -1.1651478    -1.4838967     0.2499830
  C       -2.2855240    -0.7743080     0.0000440
  N       -2.0747130     0.5813540    -0.0000230
  N        1.8664710    -1.8000490    -0.0000060
  H        1.9266830     2.5875900     0.0000020
  H       -3.2831410    -1.1955370     0.0000680
  H       -2.7752520     1.3134440    -0.0000840
  H        2.8756040    -1.8180060     0.0000090
  H        1.3377970    -2.6593590     0.0000020
units angstrom
no_reorient  #important for SAPT in psi4, default
symmetry c1  #important for SAPT in psi4, default
}

set PROPERTIES_ORIGIN ["COM"]
properties('MP2/aug-cc-pvtz', properties = ['dipole'])
--------------------------------------------------------------------------

    Molecular point group: c1
  Charge       = 0
  Multiplicity = 1
  Basis Set: AUG-CC-PVTZ
    Blend: AUG-CC-PVTZ
  Basis Set: (AUG-CC-PVTZ AUX)
    Blend: AUG-CC-PVTZ-JKFIT

    Orbital Energies [Eh]
    ---------------------

    Doubly Occupied:

       1A    -15.635876     2A    -15.585441     3A    -15.576050
       4A    -15.560072     5A    -15.551845     6A    -11.338351
       7A    -11.331718     8A    -11.319187     9A    -11.312637
      10A    -11.254092    11A     -1.363399    12A     -1.296909
      13A     -1.244153    14A     -1.180099    15A     -1.150860
      16A     -1.030658    17A     -0.894606    18A     -0.873625
      19A     -0.847043    20A     -0.778398    21A     -0.737252
      22A     -0.698807    23A     -0.672009    24A     -0.636352
      25A     -0.629603    26A     -0.611287    27A     -0.588823
      28A     -0.556378    29A     -0.503684    30A     -0.492085
      31A     -0.453264    32A     -0.422765    33A     -0.408057
      34A     -0.372699    35A     -0.305979

  @DF-RHF Final Energy:  -464.66677409089561

   => Energetics <=

    Nuclear Repulsion Energy =            501.0009149919465017
    One-Electron Energy =               -1624.9072513600081038
    Two-Electron Energy =                 659.2395622771659873
    Total Energy =                       -464.6667740908956148
  Basis Set: (AUG-CC-PVTZ AUX)
    Blend: AUG-CC-PVTZ-RI
    Molecular point group: c1

    Geometry (in Angstrom), charge = 0, multiplicity = 1:

       Center              X                  Y                   Z               Mass
    ------------   -----------------  -----------------  -----------------  -----------------
         N            1.952003718365     0.511092870535    -0.025916131779    14.003074004430
         C            1.228833718365    -0.620258129465    -0.025924131779    12.000000000000
         C           -0.178319281635    -0.530194129465    -0.025932131779    12.000000000000
         C           -0.709750281635     0.762568870535    -0.025921131779    12.000000000000
         N           -0.027355281635     1.920273870535    -0.025916131779    14.003074004430
         C            1.291730718365     1.691524870535    -0.025909131779    12.000000000000
         N           -1.164560081635    -1.496907829465     0.224061868221    14.003074004430
         C           -2.284936281635    -0.787319129465    -0.025877131779    12.000000000000
         N           -2.074125281635     0.568342870535    -0.025944131779    14.003074004430
         N            1.867058718365    -1.813060129465    -0.025927131779    14.003074004430
         H            1.927270718365     2.574578870535    -0.025919131779     1.007825032230
         H           -3.282553281635    -1.208548129465    -0.025853131779     1.007825032230
         H           -2.774664281635     1.300432870535    -0.026005131779     1.007825032230
         H            2.876191718365    -1.831017129465    -0.025912131779     1.007825032230
         H            1.338384718365    -2.672370129465    -0.025919131779     1.007825032230

  Basis Set: AUG-CC-PVTZ
    Blend: AUG-CC-PVTZ
  Basis Set: (AUG-CC-PVTZ AUX)
    Blend: AUG-CC-PVTZ-JKFIT
	 Reference Energy          =    -464.6667740908956148 [Eh]
	 Singles Energy            =      -0.0000000000000000 [Eh]
	 Same-Spin Energy          =      -0.5070287554424414 [Eh]
	 Opposite-Spin Energy      =      -1.4784026538048369 [Eh]
	 Correlation Energy        =      -1.9854314092472785 [Eh]
	 Total Energy              =    -466.6522055001428839 [Eh]

	 ================> DF-SCS-MP2 Energies <==================
	-----------------------------------------------------------
	 SCS Same-Spin Scale       =       0.3333333333333333 [-]
	 SCS Opposite-Spin Scale   =       1.2000000000000000 [-]
	 SCS Same-Spin Energy      =      -0.1690095851474805 [Eh]
	 SCS Opposite-Spin Energy  =      -1.7740831845658043 [Eh]
	 SCS Correlation Energy    =      -1.9430927697132847 [Eh]
	 SCS Total Energy          =    -466.6098668606089177 [Eh]
	-----------------------------------------------------------

  Dipole Moment: [D]
     X:    -2.2342      Y:    -1.1550      Z:    -0.3283     Total:     2.5364

*** Psi4 exiting successfully. Buy a developer a beer!
