                               Psi4 1.3.2 release

  ==> Input File <==

--------------------------------------------------------------------------
#psi4
#
memory 32 gb

molecule  {
0 1
  N        1.9514160     0.5241040     0.0000050
  C        1.2282460    -0.6072470    -0.0000030
  C       -0.1789070    -0.5171830    -0.0000110
  C       -0.7103380     0.7755800     0.0000000
  N       -0.0279430     1.9332850     0.0000050
  C        1.2911430     1.7045360     0.0000120
  N       -1.1651470    -1.4838950    -0.0000170
  C       -2.2855240    -0.7743080     0.0000440
  N       -2.0747130     0.5813540    -0.0000230
  N        1.8664710    -1.8000490    -0.0000060
  H        1.9266830     2.5875900     0.0000020
  H       -3.2831410    -1.1955370     0.0000680
  H       -2.7752520     1.3134440    -0.0000840
  H        2.8756040    -1.8180060     0.0000090
  H        1.3377973    -2.6593591    -0.0499980
units angstrom
no_reorient  #important for SAPT in psi4, default
symmetry c1  #important for SAPT in psi4, default
}

set PROPERTIES_ORIGIN ["COM"]
properties('MP2/aug-cc-pvtz', properties = ['dipole'])
--------------------------------------------------------------------------

    Molecular point group: c1
  Charge       = 0
  Multiplicity = 1
  Basis Set: AUG-CC-PVTZ
    Blend: AUG-CC-PVTZ
  Basis Set: (AUG-CC-PVTZ AUX)
    Blend: AUG-CC-PVTZ-JKFIT

    Orbital Energies [Eh]
    ---------------------

    Doubly Occupied:

       1A    -15.634609     2A    -15.585692     3A    -15.571711
       4A    -15.559436     5A    -15.551701     6A    -11.338786
       7A    -11.326692     8A    -11.318158     9A    -11.312393
      10A    -11.252817    11A     -1.366253    12A     -1.297270
      13A     -1.245197    14A     -1.185552    15A     -1.151047
      16A     -1.032046    17A     -0.894705    18A     -0.875448
      19A     -0.846354    20A     -0.778280    21A     -0.738292
      22A     -0.699517    23A     -0.675453    24A     -0.637681
      25A     -0.632534    26A     -0.612906    27A     -0.589687
      28A     -0.557956    29A     -0.497080    30A     -0.496682
      31A     -0.452692    32A     -0.424265    33A     -0.410683
      34A     -0.373104    35A     -0.307654

  @DF-RHF Final Energy:  -464.68198678497203

   => Energetics <=

    Nuclear Repulsion Energy =            501.8054870964463134
    One-Electron Energy =               -1626.5142829025276114
    Two-Electron Energy =                 660.0268090211092158
    Total Energy =                       -464.6819867849720822
  Basis Set: (AUG-CC-PVTZ AUX)
    Blend: AUG-CC-PVTZ-RI
    Molecular point group: c1

    Geometry (in Angstrom), charge = 0, multiplicity = 1:

       Center              X                  Y                   Z               Mass
    ------------   -----------------  -----------------  -----------------  -----------------
         N            1.952003633179     0.511092695018     0.000378141121    14.003074004430
         C            1.228833633179    -0.620258304982     0.000370141121    12.000000000000
         C           -0.178319366821    -0.530194304982     0.000362141121    12.000000000000
         C           -0.709750366821     0.762568695018     0.000373141121    12.000000000000
         N           -0.027355366821     1.920273695018     0.000378141121    14.003074004430
         C            1.291730633179     1.691524695018     0.000385141121    12.000000000000
         N           -1.164559366821    -1.496906304982     0.000356141121    14.003074004430
         C           -2.284936366821    -0.787319304982     0.000417141121    12.000000000000
         N           -2.074125366821     0.568342695018     0.000350141121    14.003074004430
         N            1.867058633179    -1.813060304982     0.000367141121    14.003074004430
         H            1.927270633179     2.574578695018     0.000375141121     1.007825032230
         H           -3.282553366821    -1.208548304982     0.000441141121     1.007825032230
         H           -2.774664366821     1.300432695018     0.000289141121     1.007825032230
         H            2.876191633179    -1.831017304982     0.000382141121     1.007825032230
         H            1.338384933179    -2.672370404982    -0.049624858879     1.007825032230

  Basis Set: AUG-CC-PVTZ
    Blend: AUG-CC-PVTZ
  Basis Set: (AUG-CC-PVTZ AUX)
    Blend: AUG-CC-PVTZ-JKFIT
	 Reference Energy          =    -464.6819867849720254 [Eh]
	 Singles Energy            =      -0.0000000000000000 [Eh]
	 Same-Spin Energy          =      -0.5063135752480941 [Eh]
	 Opposite-Spin Energy      =      -1.4762677086587270 [Eh]
	 Correlation Energy        =      -1.9825812839068211 [Eh]
	 Total Energy              =    -466.6645680688788502 [Eh]

	 ================> DF-SCS-MP2 Energies <==================
	-----------------------------------------------------------
	 SCS Same-Spin Scale       =       0.3333333333333333 [-]
	 SCS Opposite-Spin Scale   =       1.2000000000000000 [-]
	 SCS Same-Spin Energy      =      -0.1687711917493647 [Eh]
	 SCS Opposite-Spin Energy  =      -1.7715212503904725 [Eh]
	 SCS Correlation Energy    =      -1.9402924421398371 [Eh]
	 SCS Total Energy          =    -466.6222792271118465 [Eh]
	-----------------------------------------------------------

  Dipole Moment: [D]
     X:    -2.2567      Y:    -1.1811      Z:    -0.0714     Total:     2.5481

*** Psi4 exiting successfully. Buy a developer a beer!
