                               Psi4 1.3.2 release

  ==> Input File <==

--------------------------------------------------------------------------
#psi4
#
memory 32 gb

molecule  {
0 1
  N        1.9514160     0.5241040     0.0000050
  C        1.2282460    -0.6072470    -0.0000030
  C       -0.1789070    -0.5171830    -0.0000110
  C       -0.7103380     0.7755800     0.0000000
  N       -0.0279430     1.9332850     0.0000050
  C        1.2911430     1.7045360     0.0000120
  N       -1.1651470    -1.4838950    -0.0000170
  C       -2.2855240    -0.7743080     0.0000440
  N       -2.0747130     0.5813540    -0.0000230
  N        1.8664710    -1.8000490    -0.0000060
  H        1.9266830     2.5875900     0.0000020
  H       -3.2831281    -1.1955304     0.3000680
  H       -2.7752520     1.3134440    -0.0000840
  H        2.8756040    -1.8180060     0.0000090
  H        1.3377970    -2.6593590     0.0000020
units angstrom
no_reorient  #important for SAPT in psi4, default
symmetry c1  #important for SAPT in psi4, default
}

set PROPERTIES_ORIGIN ["COM"]
properties('MP2/aug-cc-pvtz', properties = ['dipole'])
--------------------------------------------------------------------------

    Molecular point group: c1
  Charge       = 0
  Multiplicity = 1
  Basis Set: AUG-CC-PVTZ
    Blend: AUG-CC-PVTZ
  Basis Set: (AUG-CC-PVTZ AUX)
    Blend: AUG-CC-PVTZ-JKFIT

    Orbital Energies [Eh]
    ---------------------

    Doubly Occupied:

       1A    -15.634295     2A    -15.586235     3A    -15.572851
       4A    -15.559730     5A    -15.552153     6A    -11.339524
       7A    -11.329349     8A    -11.318763     9A    -11.313050
      10A    -11.253549    11A     -1.366436    12A     -1.297743
      13A     -1.245779    14A     -1.185989    15A     -1.151533
      16A     -1.031557    17A     -0.892744    18A     -0.875815
      19A     -0.844859    20A     -0.776714    21A     -0.738084
      22A     -0.697616    23A     -0.675767    24A     -0.641231
      25A     -0.628656    26A     -0.609787    27A     -0.587258
      28A     -0.556811    29A     -0.498140    30A     -0.496255
      31A     -0.453042    32A     -0.424470    33A     -0.411148
      34A     -0.373335    35A     -0.308035

  @DF-RHF Final Energy:  -464.67598545580580

   => Energetics <=

    Nuclear Repulsion Energy =            501.6548388747197009
    One-Electron Energy =               -1626.2050430490221515
    Two-Electron Energy =                 659.8742187184967634
    Total Energy =                       -464.6759854558057441
  Basis Set: (AUG-CC-PVTZ AUX)
    Blend: AUG-CC-PVTZ-RI
    Molecular point group: c1

    Geometry (in Angstrom), charge = 0, multiplicity = 1:

       Center              X                  Y                   Z               Mass
    ------------   -----------------  -----------------  -----------------  -----------------
         N            1.952003539153     0.511092645020    -0.002233684282    14.003074004430
         C            1.228833539153    -0.620258354980    -0.002241684282    12.000000000000
         C           -0.178319460847    -0.530194354980    -0.002249684282    12.000000000000
         C           -0.709750460847     0.762568645020    -0.002238684282    12.000000000000
         N           -0.027355460847     1.920273645020    -0.002233684282    14.003074004430
         C            1.291730539153     1.691524645020    -0.002226684282    12.000000000000
         N           -1.164559460847    -1.496906354980    -0.002255684282    14.003074004430
         C           -2.284936460847    -0.787319354980    -0.002194684282    12.000000000000
         N           -2.074125460847     0.568342645020    -0.002261684282    14.003074004430
         N            1.867058539153    -1.813060354980    -0.002244684282    14.003074004430
         H            1.927270539153     2.574578645020    -0.002236684282     1.007825032230
         H           -3.282540560847    -1.208541754980     0.297829315718     1.007825032230
         H           -2.774664460847     1.300432645020    -0.002322684282     1.007825032230
         H            2.876191539153    -1.831017354980    -0.002229684282     1.007825032230
         H            1.338384539153    -2.672370354980    -0.002236684282     1.007825032230

  Basis Set: AUG-CC-PVTZ
    Blend: AUG-CC-PVTZ
  Basis Set: (AUG-CC-PVTZ AUX)
    Blend: AUG-CC-PVTZ-JKFIT
	 Reference Energy          =    -464.6759854558058009 [Eh]
	 Singles Energy            =      -0.0000000000000000 [Eh]
	 Same-Spin Energy          =      -0.5066963147632424 [Eh]
	 Opposite-Spin Energy      =      -1.4770523135471305 [Eh]
	 Correlation Energy        =      -1.9837486283103729 [Eh]
	 Total Energy              =    -466.6597340841161667 [Eh]

	 ================> DF-SCS-MP2 Energies <==================
	-----------------------------------------------------------
	 SCS Same-Spin Scale       =       0.3333333333333333 [-]
	 SCS Opposite-Spin Scale   =       1.2000000000000000 [-]
	 SCS Same-Spin Energy      =      -0.1688987715877475 [Eh]
	 SCS Opposite-Spin Energy  =      -1.7724627762565566 [Eh]
	 SCS Correlation Energy    =      -1.9413615478443040 [Eh]
	 SCS Total Energy          =    -466.6173470036500817 [Eh]
	-----------------------------------------------------------

  Dipole Moment: [D]
     X:    -2.1575      Y:    -1.1626      Z:     0.2057     Total:     2.4594

*** Psi4 exiting successfully. Buy a developer a beer!
