                               Psi4 1.3.2 release

  ==> Input File <==

--------------------------------------------------------------------------
#psi4
#
memory 32 gb

molecule  {
0 1
  N        1.9514160     0.5241040     0.0000050
  C        1.2282460    -0.6072470    -0.0000030
  C       -0.1789070    -0.5171830    -0.0000110
  C       -0.7103380     0.7755800     0.0000000
  N       -0.0279430     1.9332850     0.0000050
  C        1.2911430     1.7045360     0.0000120
  N       -1.1651470    -1.4838950    -0.0000170
  C       -2.2855240    -0.7743080     0.0000440
  N       -2.0747130     0.5813540    -0.0000230
  N        1.8664710    -1.8000490    -0.0000060
  H        1.9266830     2.5875900     0.0000020
  H       -3.2831410    -1.1955370     0.0000680
  H       -2.7752520     1.3134440    -0.0000840
  H        2.8756040    -1.8180060     0.0000090
  H        1.3377987    -2.6593596    -0.2999980
units angstrom
no_reorient  #important for SAPT in psi4, default
symmetry c1  #important for SAPT in psi4, default
}

set PROPERTIES_ORIGIN ["COM"]
properties('MP2/aug-cc-pvtz', properties = ['dipole'])
--------------------------------------------------------------------------

    Molecular point group: c1
  Charge       = 0
  Multiplicity = 1
  Basis Set: AUG-CC-PVTZ
    Blend: AUG-CC-PVTZ
  Basis Set: (AUG-CC-PVTZ AUX)
    Blend: AUG-CC-PVTZ-JKFIT

    Orbital Energies [Eh]
    ---------------------

    Doubly Occupied:

       1A    -15.634762     2A    -15.587922     3A    -15.571619
       4A    -15.560187     5A    -15.552201     6A    -11.338167
       7A    -11.326880     8A    -11.318423     9A    -11.312473
      10A    -11.253137    11A     -1.366423    12A     -1.296823
      13A     -1.243460    14A     -1.184672    15A     -1.149737
      16A     -1.031732    17A     -0.893411    18A     -0.875213
      19A     -0.846239    20A     -0.774344    21A     -0.737504
      22A     -0.695534    23A     -0.670951    24A     -0.637818
      25A     -0.632079    26A     -0.611703    27A     -0.589667
      28A     -0.556244    29A     -0.497809    30A     -0.495500
      31A     -0.452847    32A     -0.424419    33A     -0.410934
      34A     -0.373364    35A     -0.308332

  @DF-RHF Final Energy:  -464.67829298208517

   => Energetics <=

    Nuclear Repulsion Energy =            501.6084730621406038
    One-Electron Energy =               -1626.1484716491754625
    Two-Electron Energy =                 659.8617056049497478
    Total Energy =                       -464.6782929820851678
  Basis Set: (AUG-CC-PVTZ AUX)
    Blend: AUG-CC-PVTZ-RI
    Molecular point group: c1

    Geometry (in Angstrom), charge = 0, multiplicity = 1:

       Center              X                  Y                   Z               Mass
    ------------   -----------------  -----------------  -----------------  -----------------
         N            1.952003622731     0.511092698749     0.002243730695    14.003074004430
         C            1.228833622731    -0.620258301251     0.002235730695    12.000000000000
         C           -0.178319377269    -0.530194301251     0.002227730695    12.000000000000
         C           -0.709750377269     0.762568698749     0.002238730695    12.000000000000
         N           -0.027355377269     1.920273698749     0.002243730695    14.003074004430
         C            1.291730622731     1.691524698749     0.002250730695    12.000000000000
         N           -1.164559377269    -1.496906301251     0.002221730695    14.003074004430
         C           -2.284936377269    -0.787319301251     0.002282730695    12.000000000000
         N           -2.074125377269     0.568342698749     0.002215730695    14.003074004430
         N            1.867058622731    -1.813060301251     0.002232730695    14.003074004430
         H            1.927270622731     2.574578698749     0.002240730695     1.007825032230
         H           -3.282553377269    -1.208548301251     0.002306730695     1.007825032230
         H           -2.774664377269     1.300432698749     0.002154730695     1.007825032230
         H            2.876191622731    -1.831017301251     0.002247730695     1.007825032230
         H            1.338386322731    -2.672370901251    -0.297759269305     1.007825032230

  Basis Set: AUG-CC-PVTZ
    Blend: AUG-CC-PVTZ
  Basis Set: (AUG-CC-PVTZ AUX)
    Blend: AUG-CC-PVTZ-JKFIT
	 Reference Energy          =    -464.6782929820851678 [Eh]
	 Singles Energy            =      -0.0000000000000000 [Eh]
	 Same-Spin Energy          =      -0.5066067032931101 [Eh]
	 Opposite-Spin Energy      =      -1.4770001822386267 [Eh]
	 Correlation Energy        =      -1.9836068855317368 [Eh]
	 Total Energy              =    -466.6618998676169099 [Eh]

	 ================> DF-SCS-MP2 Energies <==================
	-----------------------------------------------------------
	 SCS Same-Spin Scale       =       0.3333333333333333 [-]
	 SCS Opposite-Spin Scale   =       1.2000000000000000 [-]
	 SCS Same-Spin Energy      =      -0.1688689010977034 [Eh]
	 SCS Opposite-Spin Energy  =      -1.7724002186863521 [Eh]
	 SCS Correlation Energy    =      -1.9412691197840555 [Eh]
	 SCS Total Energy          =    -466.6195621018692350 [Eh]
	-----------------------------------------------------------

  Dipole Moment: [D]
     X:    -2.2821      Y:    -1.1093      Z:    -0.4187     Total:     2.5717

*** Psi4 exiting successfully. Buy a developer a beer!
