                               Psi4 1.3.2 release

  ==> Input File <==

--------------------------------------------------------------------------
#psi4
#
memory 32 gb

molecule  {
0 1
  N        1.9514160     0.5241040     0.0000050
  C        1.2282460    -0.6072470    -0.0000030
  C       -0.1789070    -0.5171830    -0.0000110
  C       -0.7103380     0.7755800     0.0000000
  N       -0.0279430     1.9332850     0.0000050
  C        1.2911430     1.7045360     0.0000120
  N       -1.1651470    -1.4838950    -0.0000170
  C       -2.2855240    -0.7743080     0.0000440
  N       -2.0747130     0.5813540    -0.0000230
  N        1.8664702    -1.8000497     0.1499940
  H        1.9266830     2.5875900     0.0000020
  H       -3.2831410    -1.1955370     0.0000680
  H       -2.7752520     1.3134440    -0.0000840
  H        2.8756040    -1.8180060     0.0000090
  H        1.3377970    -2.6593590     0.0000020
units angstrom
no_reorient  #important for SAPT in psi4, default
symmetry c1  #important for SAPT in psi4, default
}

set PROPERTIES_ORIGIN ["COM"]
properties('MP2/aug-cc-pvtz', properties = ['dipole'])
--------------------------------------------------------------------------

    Molecular point group: c1
  Charge       = 0
  Multiplicity = 1
  Basis Set: AUG-CC-PVTZ
    Blend: AUG-CC-PVTZ
  Basis Set: (AUG-CC-PVTZ AUX)
    Blend: AUG-CC-PVTZ-JKFIT

    Orbital Energies [Eh]
    ---------------------

    Doubly Occupied:

       1A    -15.635314     2A    -15.586726     3A    -15.572215
       4A    -15.561060     5A    -15.553104     6A    -11.338840
       7A    -11.327595     8A    -11.319118     9A    -11.313028
      10A    -11.253992    11A     -1.367039    12A     -1.296988
      13A     -1.243868    14A     -1.185415    15A     -1.151089
      16A     -1.032517    17A     -0.894197    18A     -0.875667
      19A     -0.846891    20A     -0.776262    21A     -0.734648
      22A     -0.697025    23A     -0.673499    24A     -0.639375
      25A     -0.631002    26A     -0.611388    27A     -0.590215
      28A     -0.556976    29A     -0.497764    30A     -0.497304
      31A     -0.453495    32A     -0.425612    33A     -0.411329
      34A     -0.374067    35A     -0.309391

  @DF-RHF Final Energy:  -464.68031643928998

   => Energetics <=

    Nuclear Repulsion Energy =            501.5585340645635597
    One-Electron Energy =               -1626.0096644773684602
    Two-Electron Energy =                 659.7708139735150326
    Total Energy =                       -464.6803164392899816
  Basis Set: (AUG-CC-PVTZ AUX)
    Blend: AUG-CC-PVTZ-RI
    Molecular point group: c1

    Geometry (in Angstrom), charge = 0, multiplicity = 1:

       Center              X                  Y                   Z               Mass
    ------------   -----------------  -----------------  -----------------  -----------------
         N            1.952003718365     0.511092766851    -0.015547669785    14.003074004430
         C            1.228833718365    -0.620258233149    -0.015555669785    12.000000000000
         C           -0.178319281635    -0.530194233149    -0.015563669785    12.000000000000
         C           -0.709750281635     0.762568766851    -0.015552669785    12.000000000000
         N           -0.027355281635     1.920273766851    -0.015547669785    14.003074004430
         C            1.291730718365     1.691524766851    -0.015540669785    12.000000000000
         N           -1.164559281635    -1.496906233149    -0.015569669785    14.003074004430
         C           -2.284936281635    -0.787319233149    -0.015508669785    12.000000000000
         N           -2.074125281635     0.568342766851    -0.015575669785    14.003074004430
         N            1.867057918365    -1.813060933149     0.134441330215    14.003074004430
         H            1.927270718365     2.574578766851    -0.015550669785     1.007825032230
         H           -3.282553281635    -1.208548233149    -0.015484669785     1.007825032230
         H           -2.774664281635     1.300432766851    -0.015636669785     1.007825032230
         H            2.876191718365    -1.831017233149    -0.015543669785     1.007825032230
         H            1.338384718365    -2.672370233149    -0.015550669785     1.007825032230

  Basis Set: AUG-CC-PVTZ
    Blend: AUG-CC-PVTZ
  Basis Set: (AUG-CC-PVTZ AUX)
    Blend: AUG-CC-PVTZ-JKFIT
	 Reference Energy          =    -464.6803164392899816 [Eh]
	 Singles Energy            =      -0.0000000000000000 [Eh]
	 Same-Spin Energy          =      -0.5065008018772451 [Eh]
	 Opposite-Spin Energy      =      -1.4768134935363664 [Eh]
	 Correlation Energy        =      -1.9833142954136114 [Eh]
	 Total Energy              =    -466.6636307347035881 [Eh]

	 ================> DF-SCS-MP2 Energies <==================
	-----------------------------------------------------------
	 SCS Same-Spin Scale       =       0.3333333333333333 [-]
	 SCS Opposite-Spin Scale   =       1.2000000000000000 [-]
	 SCS Same-Spin Energy      =      -0.1688336006257484 [Eh]
	 SCS Opposite-Spin Energy  =      -1.7721761922436396 [Eh]
	 SCS Correlation Energy    =      -1.9410097928693881 [Eh]
	 SCS Total Energy          =    -466.6213262321593902 [Eh]
	-----------------------------------------------------------

  Dipole Moment: [D]
     X:    -2.3426      Y:    -1.0649      Z:    -0.3760     Total:     2.6006

*** Psi4 exiting successfully. Buy a developer a beer!
