                               Psi4 1.3.2 release

  ==> Input File <==

--------------------------------------------------------------------------
#psi4
#
memory 32 gb

molecule  {
0 1
  N        1.9514160     0.5241040     0.0000050
  C        1.2282460    -0.6072470    -0.0000030
  C       -0.1789070    -0.5171830    -0.0000110
  C       -0.7103380     0.7755800     0.0000000
  N       -0.0279430     1.9332850     0.0000050
  C        1.2911430     1.7045360     0.0000120
  N       -1.1651470    -1.4838950    -0.0000170
  C       -2.2855240    -0.7743080     0.0000440
  N       -2.0747130     0.5813540    -0.0000230
  N        1.8664710    -1.8000490    -0.0000060
  H        1.9266830     2.5875900     0.0000020
  H       -3.2831302    -1.1955315     0.2500680
  H       -2.7752520     1.3134440    -0.0000840
  H        2.8756040    -1.8180060     0.0000090
  H        1.3377970    -2.6593590     0.0000020
units angstrom
no_reorient  #important for SAPT in psi4, default
symmetry c1  #important for SAPT in psi4, default
}

set PROPERTIES_ORIGIN ["COM"]
properties('MP2/aug-cc-pvtz', properties = ['dipole'])
--------------------------------------------------------------------------

    Molecular point group: c1
  Charge       = 0
  Multiplicity = 1
  Basis Set: AUG-CC-PVTZ
    Blend: AUG-CC-PVTZ
  Basis Set: (AUG-CC-PVTZ AUX)
    Blend: AUG-CC-PVTZ-JKFIT

    Orbital Energies [Eh]
    ---------------------

    Doubly Occupied:

       1A    -15.634379     2A    -15.586053     3A    -15.572510
       4A    -15.559633     5A    -15.552012     6A    -11.339309
       7A    -11.328552     8A    -11.318578     9A    -11.312852
      10A    -11.253326    11A     -1.366376    12A     -1.297605
      13A     -1.245621    14A     -1.185864    15A     -1.151398
      16A     -1.031689    17A     -0.893285    18A     -0.875705
      19A     -0.845294    20A     -0.777190    21A     -0.738144
      22A     -0.698206    23A     -0.675705    24A     -0.640568
      25A     -0.629338    26A     -0.610709    27A     -0.588096
      28A     -0.557210    29A     -0.497884    30A     -0.496330
      31A     -0.452942    32A     -0.424405    33A     -0.411006
      34A     -0.373262    35A     -0.307913

  @DF-RHF Final Energy:  -464.67798167634282

   => Energetics <=

    Nuclear Repulsion Energy =            501.7013255893518817
    One-Electron Energy =               -1626.3007229404511236
    Two-Electron Energy =                 659.9214156747564175
    Total Energy =                       -464.6779816763428244
  Basis Set: (AUG-CC-PVTZ AUX)
    Blend: AUG-CC-PVTZ-RI
    Molecular point group: c1

    Geometry (in Angstrom), charge = 0, multiplicity = 1:

       Center              X                  Y                   Z               Mass
    ------------   -----------------  -----------------  -----------------  -----------------
         N            1.952003554824     0.511092653229    -0.001860566367    14.003074004430
         C            1.228833554824    -0.620258346771    -0.001868566367    12.000000000000
         C           -0.178319445176    -0.530194346771    -0.001876566367    12.000000000000
         C           -0.709750445176     0.762568653229    -0.001865566367    12.000000000000
         N           -0.027355445176     1.920273653229    -0.001860566367    14.003074004430
         C            1.291730554824     1.691524653229    -0.001853566367    12.000000000000
         N           -1.164559445176    -1.496906346771    -0.001882566367    14.003074004430
         C           -2.284936445176    -0.787319346771    -0.001821566367    12.000000000000
         N           -2.074125445176     0.568342653229    -0.001888566367    14.003074004430
         N            1.867058554824    -1.813060346771    -0.001871566367    14.003074004430
         H            1.927270554824     2.574578653229    -0.001863566367     1.007825032230
         H           -3.282542645176    -1.208542846771     0.248202433633     1.007825032230
         H           -2.774664445176     1.300432653229    -0.001949566367     1.007825032230
         H            2.876191554824    -1.831017346771    -0.001856566367     1.007825032230
         H            1.338384554824    -2.672370346771    -0.001863566367     1.007825032230

  Basis Set: AUG-CC-PVTZ
    Blend: AUG-CC-PVTZ
  Basis Set: (AUG-CC-PVTZ AUX)
    Blend: AUG-CC-PVTZ-JKFIT
	 Reference Energy          =    -464.6779816763428244 [Eh]
	 Singles Energy            =      -0.0000000000000000 [Eh]
	 Same-Spin Energy          =      -0.5065787391934852 [Eh]
	 Opposite-Spin Energy      =      -1.4767903162055429 [Eh]
	 Correlation Energy        =      -1.9833690553990282 [Eh]
	 Total Energy              =    -466.6613507317418339 [Eh]

	 ================> DF-SCS-MP2 Energies <==================
	-----------------------------------------------------------
	 SCS Same-Spin Scale       =       0.3333333333333333 [-]
	 SCS Opposite-Spin Scale   =       1.2000000000000000 [-]
	 SCS Same-Spin Energy      =      -0.1688595797311617 [Eh]
	 SCS Opposite-Spin Energy  =      -1.7721483794466515 [Eh]
	 SCS Correlation Energy    =      -1.9410079591778131 [Eh]
	 SCS Total Energy          =    -466.6189896355206201 [Eh]
	-----------------------------------------------------------

  Dipole Moment: [D]
     X:    -2.1868      Y:    -1.1689      Z:     0.1723     Total:     2.4856

*** Psi4 exiting successfully. Buy a developer a beer!
