                               Psi4 1.3.2 release

  ==> Input File <==

--------------------------------------------------------------------------
#psi4
#
memory 32 gb

molecule  {
0 1
  N        1.9514160     0.5241040     0.0000050
  C        1.2282460    -0.6072470    -0.0000030
  C       -0.1789070    -0.5171830    -0.0000110
  C       -0.7103380     0.7755800     0.0000000
  N       -0.0279430     1.9332850     0.0000050
  C        1.2911430     1.7045360     0.0000120
  N       -1.1651470    -1.4838950    -0.0000170
  C       -2.2855240    -0.7743080     0.0000440
  N       -2.0747150     0.5813528     0.1999770
  N        1.8664710    -1.8000490    -0.0000060
  H        1.9266830     2.5875900     0.0000020
  H       -3.2831410    -1.1955370     0.0000680
  H       -2.7752520     1.3134440    -0.0000840
  H        2.8756040    -1.8180060     0.0000090
  H        1.3377970    -2.6593590     0.0000020
units angstrom
no_reorient  #important for SAPT in psi4, default
symmetry c1  #important for SAPT in psi4, default
}

set PROPERTIES_ORIGIN ["COM"]
properties('MP2/aug-cc-pvtz', properties = ['dipole'])
--------------------------------------------------------------------------

    Molecular point group: c1
  Charge       = 0
  Multiplicity = 1
  Basis Set: AUG-CC-PVTZ
    Blend: AUG-CC-PVTZ
  Basis Set: (AUG-CC-PVTZ AUX)
    Blend: AUG-CC-PVTZ-JKFIT

    Orbital Energies [Eh]
    ---------------------

    Doubly Occupied:

       1A    -15.634419     2A    -15.586261     3A    -15.574385
       4A    -15.560437     5A    -15.552924     6A    -11.339523
       7A    -11.328153     8A    -11.319715     9A    -11.313358
      10A    -11.254250    11A     -1.362192    12A     -1.297176
      13A     -1.246008    14A     -1.183936    15A     -1.151241
      16A     -1.031759    17A     -0.892769    18A     -0.874649
      19A     -0.839472    20A     -0.775933    21A     -0.736528
      22A     -0.697326    23A     -0.674721    24A     -0.639649
      25A     -0.630169    26A     -0.610386    27A     -0.588076
      28A     -0.557913    29A     -0.499028    30A     -0.495228
      31A     -0.453864    32A     -0.427169    33A     -0.411540
      34A     -0.374349    35A     -0.308062

  @DF-RHF Final Energy:  -464.67407609072188

   => Energetics <=

    Nuclear Repulsion Energy =            501.2410695249874379
    One-Electron Energy =               -1625.3851569759738140
    Two-Electron Energy =                 659.4700113602643796
    Total Energy =                       -464.6740760907218828
  Basis Set: (AUG-CC-PVTZ AUX)
    Blend: AUG-CC-PVTZ-RI
    Molecular point group: c1

    Geometry (in Angstrom), charge = 0, multiplicity = 1:

       Center              X                  Y                   Z               Mass
    ------------   -----------------  -----------------  -----------------  -----------------
         N            1.952003842787     0.511092818693    -0.020731900782    14.003074004430
         C            1.228833842787    -0.620258181307    -0.020739900782    12.000000000000
         C           -0.178319157213    -0.530194181307    -0.020747900782    12.000000000000
         C           -0.709750157213     0.762568818693    -0.020736900782    12.000000000000
         N           -0.027355157213     1.920273818693    -0.020731900782    14.003074004430
         C            1.291730842787     1.691524818693    -0.020724900782    12.000000000000
         N           -1.164559157213    -1.496906181307    -0.020753900782    14.003074004430
         C           -2.284936157213    -0.787319181307    -0.020692900782    12.000000000000
         N           -2.074127157213     0.568341618693     0.179240099218    14.003074004430
         N            1.867058842787    -1.813060181307    -0.020742900782    14.003074004430
         H            1.927270842787     2.574578818693    -0.020734900782     1.007825032230
         H           -3.282553157213    -1.208548181307    -0.020668900782     1.007825032230
         H           -2.774664157213     1.300432818693    -0.020820900782     1.007825032230
         H            2.876191842787    -1.831017181307    -0.020727900782     1.007825032230
         H            1.338384842787    -2.672370181307    -0.020734900782     1.007825032230

  Basis Set: AUG-CC-PVTZ
    Blend: AUG-CC-PVTZ
  Basis Set: (AUG-CC-PVTZ AUX)
    Blend: AUG-CC-PVTZ-JKFIT
	 Reference Energy          =    -464.6740760907218828 [Eh]
	 Singles Energy            =      -0.0000000000000000 [Eh]
	 Same-Spin Energy          =      -0.5064418211204538 [Eh]
	 Opposite-Spin Energy      =      -1.4771889893505845 [Eh]
	 Correlation Energy        =      -1.9836308104710383 [Eh]
	 Total Energy              =    -466.6577069011929098 [Eh]

	 ================> DF-SCS-MP2 Energies <==================
	-----------------------------------------------------------
	 SCS Same-Spin Scale       =       0.3333333333333333 [-]
	 SCS Opposite-Spin Scale   =       1.2000000000000000 [-]
	 SCS Same-Spin Energy      =      -0.1688139403734846 [Eh]
	 SCS Opposite-Spin Energy  =      -1.7726267872207013 [Eh]
	 SCS Correlation Energy    =      -1.9414407275941858 [Eh]
	 SCS Total Energy          =    -466.6155168183160526 [Eh]
	-----------------------------------------------------------

  Dipole Moment: [D]
     X:    -2.1202      Y:    -1.2651      Z:    -0.2057     Total:     2.4775

*** Psi4 exiting successfully. Buy a developer a beer!
