                               Psi4 1.3.2 release

  ==> Input File <==

--------------------------------------------------------------------------
#psi4
#
memory 32 gb

molecule  {
0 1
  N        0.1712930    -1.0406060    -0.0000250
  N        1.5395640     0.7140220    -0.0006150
  C       -0.6524384    -0.0076222     0.1359714
  C       -2.1370900    -0.0166370     0.0000170
  C        0.2282570     1.1348590     0.0002090
  C        1.4683060    -0.6083830     0.0003860
  H       -0.1378750    -2.0050800    -0.0000100
  H       -2.5173940    -0.5355380     0.8864280
  H       -2.5554930     0.9924890    -0.0004510
  H       -2.5174040    -0.5363680    -0.8859050
  H       -0.0216830     2.1883360     0.0002760
  H        2.3089220    -1.2898710     0.0005270
units angstrom
no_reorient  #important for SAPT in psi4, default
symmetry c1  #important for SAPT in psi4, default
}

set PROPERTIES_ORIGIN ["COM"]
properties('MP2/aug-cc-pvtz', properties = ['dipole'])
--------------------------------------------------------------------------

    Molecular point group: c1
  Charge       = 0
  Multiplicity = 1
  Basis Set: AUG-CC-PVTZ
    Blend: AUG-CC-PVTZ
  Basis Set: (AUG-CC-PVTZ AUX)
    Blend: AUG-CC-PVTZ-JKFIT

    Orbital Energies [Eh]
    ---------------------

    Doubly Occupied:

       1A    -15.625588     2A    -15.547292     3A    -11.289671
       4A    -11.269538     5A    -11.241788     6A    -11.240828
       7A     -1.344202     8A     -1.170886     9A     -1.039312
      10A     -0.933587    11A     -0.822888    12A     -0.796863
      13A     -0.720331    14A     -0.621008    15A     -0.617584
      16A     -0.579129    17A     -0.561118    18A     -0.553168
      19A     -0.544434    20A     -0.430870    21A     -0.400496
      22A     -0.293520

  @DF-RHF Final Energy:  -263.93379264938790

   => Energetics <=

    Nuclear Repulsion Energy =            223.6826782745641253
    One-Electron Energy =                -799.9447378308614134
    Two-Electron Energy =                 312.3282669069094482
    Total Energy =                       -263.9337926493878967
  Basis Set: (AUG-CC-PVTZ AUX)
    Blend: AUG-CC-PVTZ-RI
    Molecular point group: c1

    Geometry (in Angstrom), charge = 0, multiplicity = 1:

       Center              X                  Y                   Z               Mass
    ------------   -----------------  -----------------  -----------------  -----------------
         N            0.105991749100    -1.043751633088    -0.019901283005    14.003074004430
         N            1.474262749100     0.710876366912    -0.020491283005    14.003074004430
         C           -0.717739650900    -0.010767833088     0.116095116995    12.000000000000
         C           -2.202391250900    -0.019782633088    -0.019859283005    12.000000000000
         C            0.162955749100     1.131713366912    -0.019667283005    12.000000000000
         C            1.403004749100    -0.611528633088    -0.019490283005    12.000000000000
         H           -0.203176250900    -2.008225633088    -0.019886283005     1.007825032230
         H           -2.582695250900    -0.538683633088     0.866551716995     1.007825032230
         H           -2.620794250900     0.989343366912    -0.020327283005     1.007825032230
         H           -2.582705250900    -0.539513633088    -0.905781283005     1.007825032230
         H           -0.086984250900     2.185190366912    -0.019600283005     1.007825032230
         H            2.243620749100    -1.293016633088    -0.019349283005     1.007825032230

  Basis Set: AUG-CC-PVTZ
    Blend: AUG-CC-PVTZ
  Basis Set: (AUG-CC-PVTZ AUX)
    Blend: AUG-CC-PVTZ-JKFIT
	 Reference Energy          =    -263.9337926493878967 [Eh]
	 Singles Energy            =      -0.0000000000000000 [Eh]
	 Same-Spin Energy          =      -0.2885252546749414 [Eh]
	 Opposite-Spin Energy      =      -0.8992058512907348 [Eh]
	 Correlation Energy        =      -1.1877311059656763 [Eh]
	 Total Energy              =    -265.1215237553535644 [Eh]

	 ================> DF-SCS-MP2 Energies <==================
	-----------------------------------------------------------
	 SCS Same-Spin Scale       =       0.3333333333333333 [-]
	 SCS Opposite-Spin Scale   =       1.2000000000000000 [-]
	 SCS Same-Spin Energy      =      -0.0961750848916471 [Eh]
	 SCS Opposite-Spin Energy  =      -1.0790470215488817 [Eh]
	 SCS Correlation Energy    =      -1.1752221064405288 [Eh]
	 SCS Total Energy          =    -265.1090147558284116 [Eh]
	-----------------------------------------------------------

  Dipole Moment: [D]
     X:    -2.7691      Y:    -3.0600      Z:    -0.0681     Total:     4.1275

*** Psi4 exiting successfully. Buy a developer a beer!
