                               Psi4 1.4a3.dev225

  ==> Input File <==

--------------------------------------------------------------------------
#psi4
#
memory 32 gb

molecule  {
0 1
  N        0.1711350    -1.0406470     0.0001130
  N        1.5396510     0.7139170    -0.0000360
  C       -0.6485970     0.0689120    -0.0000300
  C       -2.1570191    -0.0176924    -0.0000432
  C        0.2284270     1.1349600    -0.0001140
  C        1.4682190    -0.6084950     0.0000980
  H       -0.1381210    -2.0051120     0.0001710
  H       -2.5175930    -0.5357270     0.8861500
  H       -2.5555550     0.9925160    -0.0001930
  H       -2.5175640    -0.5359780    -0.8861020
  H       -0.0214450     2.1884610    -0.0002290
  H        2.3087860    -1.2900390     0.0001920
units angstrom
no_reorient  #important for SAPT in psi4, default
symmetry c1  #important for SAPT in psi4, default
}

set PROPERTIES_ORIGIN ["COM"]
properties('MP2/aug-cc-pvtz', properties = ['dipole'])
--------------------------------------------------------------------------

    Molecular point group: c1
  Charge       = 0
  Multiplicity = 1
  Basis Set: AUG-CC-PVTZ
    Blend: AUG-CC-PVTZ
  Basis Set: (AUG-CC-PVTZ AUX)
    Blend: AUG-CC-PVTZ-JKFIT

    Orbital Energies [Eh]
    ---------------------

    Doubly Occupied:

       1A    -15.618531     2A    -15.543094     3A    -11.293607
       4A    -11.266084     5A    -11.240911     6A    -11.235827
       7A     -1.333761     8A     -1.161511     9A     -1.041237
      10A     -0.938523    11A     -0.821332    12A     -0.788976
      13A     -0.719866    14A     -0.617743    15A     -0.615265
      16A     -0.565826    17A     -0.561459    18A     -0.560367
      19A     -0.552253    20A     -0.431792    21A     -0.395370
      22A     -0.306880

  @DF-RHF Final Energy:  -263.94882789878233

   => Energetics <=

    Nuclear Repulsion Energy =            223.4724883991726188
    One-Electron Energy =                -799.6222046870570921
    Two-Electron Energy =                 312.2008883891022037
    Total Energy =                       -263.9488278987823264
  Basis Set: (AUG-CC-PVTZ AUX)
    Blend: AUG-CC-PVTZ-RI
    Molecular point group: c1

    Geometry (in Angstrom), charge = 0, multiplicity = 1:

       Center              X                  Y                   Z               Mass
    ------------   -----------------  -----------------  -----------------  -----------------
         N            0.108193441100    -1.054806517612     0.000113039601    14.003074004430
         N            1.476709441100     0.699757482388    -0.000035960399    14.003074004430
         C           -0.711538558900     0.054752482388    -0.000029960399    12.000000000000
         C           -2.219960658900    -0.031851917612    -0.000043160399    12.000000000000
         C            0.165485441100     1.120800482388    -0.000113960399    12.000000000000
         C            1.405277441100    -0.622654517612     0.000098039601    12.000000000000
         H           -0.201062558900    -2.019271517612     0.000171039601     1.007825032230
         H           -2.580534558900    -0.549886517612     0.886150039601     1.007825032230
         H           -2.618496558900     0.978356482388    -0.000192960399     1.007825032230
         H           -2.580505558900    -0.550137517612    -0.886101960399     1.007825032230
         H           -0.084386558900     2.174301482388    -0.000228960399     1.007825032230
         H            2.245844441100    -1.304198517612     0.000192039601     1.007825032230

  Basis Set: AUG-CC-PVTZ
    Blend: AUG-CC-PVTZ
  Basis Set: (AUG-CC-PVTZ AUX)
    Blend: AUG-CC-PVTZ-JKFIT
	 Reference Energy          =    -263.9488278987823264 [Eh]
	 Singles Energy            =      -0.0000000000000000 [Eh]
	 Same-Spin Energy          =      -0.2866291346573239 [Eh]
	 Opposite-Spin Energy      =      -0.8968632929960708 [Eh]
	 Correlation Energy        =      -1.1834924276533947 [Eh]
	 Total Energy              =    -265.1323203264357176 [Eh]

	 ================> DF-SCS-MP2 Energies <==================
	-----------------------------------------------------------
	 SCS Same-Spin Scale       =       0.3333333333333333 [-]
	 SCS Opposite-Spin Scale   =       1.2000000000000000 [-]
	 SCS Same-Spin Energy      =      -0.0955430448857746 [Eh]
	 SCS Opposite-Spin Energy  =      -1.0762359515952848 [Eh]
	 SCS Correlation Energy    =      -1.1717789964810594 [Eh]
	 SCS Total Energy          =    -265.1206068952633927 [Eh]
	-----------------------------------------------------------

  Dipole Moment: [D]
     X:    -2.8121      Y:    -2.9959      Z:     0.0002     Total:     4.1089

*** Psi4 exiting successfully. Buy a developer a beer!
