                               Psi4 1.3.2 release

  ==> Input File <==

--------------------------------------------------------------------------
#psi4
#
memory 32 gb

molecule  {
0 1
  N        0.1712930    -1.0406060    -0.0000250
  N        1.5395640     0.7140220    -0.0006150
  C       -0.6481495     0.0561455     0.0226939
  C       -2.1370900    -0.0166370     0.0000170
  C        0.2282570     1.1348590     0.0002090
  C        1.4683060    -0.6083830     0.0003860
  H       -0.1378750    -2.0050800    -0.0000100
  H       -2.5173940    -0.5355380     0.8864280
  H       -2.5554930     0.9924890    -0.0004510
  H       -2.5174040    -0.5363680    -0.8859050
  H       -0.0216830     2.1883360     0.0002760
  H        2.3089220    -1.2898710     0.0005270
units angstrom
no_reorient  #important for SAPT in psi4, default
symmetry c1  #important for SAPT in psi4, default
}

set PROPERTIES_ORIGIN ["COM"]
properties('MP2/aug-cc-pvtz', properties = ['dipole'])
--------------------------------------------------------------------------

    Molecular point group: c1
  Charge       = 0
  Multiplicity = 1
  Basis Set: AUG-CC-PVTZ
    Blend: AUG-CC-PVTZ
  Basis Set: (AUG-CC-PVTZ AUX)
    Blend: AUG-CC-PVTZ-JKFIT

    Orbital Energies [Eh]
    ---------------------

    Doubly Occupied:

       1A    -15.619738     2A    -15.543817     3A    -11.292991
       4A    -11.265829     5A    -11.241320     6A    -11.236463
       7A     -1.336012     8A     -1.163483     9A     -1.042986
      10A     -0.936964    11A     -0.821867    12A     -0.790946
      13A     -0.720882    14A     -0.618254    15A     -0.615806
      16A     -0.569537    17A     -0.561829    18A     -0.557544
      19A     -0.551161    20A     -0.431794    21A     -0.396348
      22A     -0.304509

  @DF-RHF Final Energy:  -263.94828055252191

   => Energetics <=

    Nuclear Repulsion Energy =            223.8022883433117443
    One-Electron Energy =                -800.2609817007170250
    Two-Electron Energy =                 312.5104128048834013
    Total Energy =                       -263.9482805525219078
  Basis Set: (AUG-CC-PVTZ AUX)
    Blend: AUG-CC-PVTZ-RI
    Molecular point group: c1

    Geometry (in Angstrom), charge = 0, multiplicity = 1:

       Center              X                  Y                   Z               Mass
    ------------   -----------------  -----------------  -----------------  -----------------
         N            0.105364511358    -1.053077452793    -0.003334815318    14.003074004430
         N            1.473635511358     0.701550547207    -0.003924815318    14.003074004430
         C           -0.714077988642     0.043674047207     0.019384084682    12.000000000000
         C           -2.203018488642    -0.029108452793    -0.003292815318    12.000000000000
         C            0.162328511358     1.122387547207    -0.003100815318    12.000000000000
         C            1.402377511358    -0.620854452793    -0.002923815318    12.000000000000
         H           -0.203803488642    -2.017551452793    -0.003319815318     1.007825032230
         H           -2.583322488642    -0.548009452793     0.883118184682     1.007825032230
         H           -2.621421488642     0.980017547207    -0.003760815318     1.007825032230
         H           -2.583332488642    -0.548839452793    -0.889214815318     1.007825032230
         H           -0.087611488642     2.175864547207    -0.003033815318     1.007825032230
         H            2.242993511358    -1.302342452793    -0.002782815318     1.007825032230

  Basis Set: AUG-CC-PVTZ
    Blend: AUG-CC-PVTZ
  Basis Set: (AUG-CC-PVTZ AUX)
    Blend: AUG-CC-PVTZ-JKFIT
	 Reference Energy          =    -263.9482805525219078 [Eh]
	 Singles Energy            =      -0.0000000000000000 [Eh]
	 Same-Spin Energy          =      -0.2870042279119529 [Eh]
	 Opposite-Spin Energy      =      -0.8971738456957702 [Eh]
	 Correlation Energy        =      -1.1841780736077232 [Eh]
	 Total Energy              =    -265.1324586261296190 [Eh]

	 ================> DF-SCS-MP2 Energies <==================
	-----------------------------------------------------------
	 SCS Same-Spin Scale       =       0.3333333333333333 [-]
	 SCS Opposite-Spin Scale   =       1.2000000000000000 [-]
	 SCS Same-Spin Energy      =      -0.0956680759706510 [Eh]
	 SCS Opposite-Spin Energy  =      -1.0766086148349241 [Eh]
	 SCS Correlation Energy    =      -1.1722766908055751 [Eh]
	 SCS Total Energy          =    -265.1205572433274824 [Eh]
	-----------------------------------------------------------

  Dipole Moment: [D]
     X:    -2.8051      Y:    -3.0066      Z:    -0.0097     Total:     4.1120

*** Psi4 exiting successfully. Buy a developer a beer!
