                               Psi4 1.3.2 release

  ==> Input File <==

--------------------------------------------------------------------------
#psi4
#
memory 32 gb

molecule  {
0 1
  N        0.1712930    -1.0406060    -0.0000250
  N        1.5395640     0.7140220    -0.0006150
  C       -0.6496079     0.0815245    -0.0227139
  C       -2.1370900    -0.0166370     0.0000170
  C        0.2282570     1.1348590     0.0002090
  C        1.4683060    -0.6083830     0.0003860
  H       -0.1378750    -2.0050800    -0.0000100
  H       -2.5173940    -0.5355380     0.8864280
  H       -2.5554930     0.9924890    -0.0004510
  H       -2.5174040    -0.5363680    -0.8859050
  H       -0.0216830     2.1883360     0.0002760
  H        2.3089220    -1.2898710     0.0005270
units angstrom
no_reorient  #important for SAPT in psi4, default
symmetry c1  #important for SAPT in psi4, default
}

set PROPERTIES_ORIGIN ["COM"]
properties('MP2/aug-cc-pvtz', properties = ['dipole'])
--------------------------------------------------------------------------

    Molecular point group: c1
  Charge       = 0
  Multiplicity = 1
  Basis Set: AUG-CC-PVTZ
    Blend: AUG-CC-PVTZ
  Basis Set: (AUG-CC-PVTZ AUX)
    Blend: AUG-CC-PVTZ-JKFIT

    Orbital Energies [Eh]
    ---------------------

    Doubly Occupied:

       1A    -15.617357     2A    -15.542704     3A    -11.294855
       4A    -11.264872     5A    -11.241076     6A    -11.235935
       7A     -1.332182     8A     -1.160301     9A     -1.044574
      10A     -0.938368    11A     -0.821302    12A     -0.787785
      13A     -0.720808    14A     -0.617368    15A     -0.613940
      16A     -0.572362    17A     -0.561860    18A     -0.556896
      19A     -0.547773    20A     -0.432175    21A     -0.394679
      22A     -0.308905

  @DF-RHF Final Energy:  -263.94890370615656

   => Energetics <=

    Nuclear Repulsion Energy =            223.7253174787207399
    One-Electron Energy =                -800.1322872367031778
    Two-Electron Energy =                 312.4580660518258810
    Total Energy =                       -263.9489037061565568
  Basis Set: (AUG-CC-PVTZ AUX)
    Blend: AUG-CC-PVTZ-RI
    Molecular point group: c1

    Geometry (in Angstrom), charge = 0, multiplicity = 1:

       Center              X                  Y                   Z               Mass
    ------------   -----------------  -----------------  -----------------  -----------------
         N            0.105577797637    -1.056789049389     0.003305928444    14.003074004430
         N            1.473848797637     0.697838950611     0.002715928444    14.003074004430
         C           -0.715323102363     0.065341450611    -0.019382971556    12.000000000000
         C           -2.202805202363    -0.032820049389     0.003347928444    12.000000000000
         C            0.162541797637     1.118675950611     0.003539928444    12.000000000000
         C            1.402590797637    -0.624566049389     0.003716928444    12.000000000000
         H           -0.203590202363    -2.021263049389     0.003320928444     1.007825032230
         H           -2.583109202363    -0.551721049389     0.889758928444     1.007825032230
         H           -2.621208202363     0.976305950611     0.002879928444     1.007825032230
         H           -2.583119202363    -0.552551049389    -0.882574071556     1.007825032230
         H           -0.087398202363     2.172152950611     0.003606928444     1.007825032230
         H            2.243206797637    -1.306054049389     0.003857928444     1.007825032230

  Basis Set: AUG-CC-PVTZ
    Blend: AUG-CC-PVTZ
  Basis Set: (AUG-CC-PVTZ AUX)
    Blend: AUG-CC-PVTZ-JKFIT
	 Reference Energy          =    -263.9489037061565568 [Eh]
	 Singles Energy            =      -0.0000000000000000 [Eh]
	 Same-Spin Energy          =      -0.2865821334076954 [Eh]
	 Opposite-Spin Energy      =      -0.8968305003701745 [Eh]
	 Correlation Energy        =      -1.1834126337778699 [Eh]
	 Total Energy              =    -265.1323163399344480 [Eh]

	 ================> DF-SCS-MP2 Energies <==================
	-----------------------------------------------------------
	 SCS Same-Spin Scale       =       0.3333333333333333 [-]
	 SCS Opposite-Spin Scale   =       1.2000000000000000 [-]
	 SCS Same-Spin Energy      =      -0.0955273778025651 [Eh]
	 SCS Opposite-Spin Energy  =      -1.0761966004442094 [Eh]
	 SCS Correlation Energy    =      -1.1717239782467745 [Eh]
	 SCS Total Energy          =    -265.1206276844033596 [Eh]
	-----------------------------------------------------------

  Dipole Moment: [D]
     X:    -2.7992      Y:    -2.9738      Z:     0.0123     Total:     4.0840

*** Psi4 exiting successfully. Buy a developer a beer!
