                               Psi4 1.3.2 release

  ==> Input File <==

--------------------------------------------------------------------------
#psi4
#
memory 32 gb

molecule  {
0 1
  N        0.1712930    -1.0406060    -0.0000250
  N        1.5395640     0.7140220    -0.0006150
  C       -0.6486520     0.0688480    -0.0000100
  C       -2.1383552     0.0093528     0.0000231
  C        0.2282570     1.1348590     0.0002090
  C        1.4683060    -0.6083830     0.0003860
  H       -0.1378750    -2.0050800    -0.0000100
  H       -2.5173940    -0.5355380     0.8864280
  H       -2.5554930     0.9924890    -0.0004510
  H       -2.5174040    -0.5363680    -0.8859050
  H       -0.0216830     2.1883360     0.0002760
  H        2.3089220    -1.2898710     0.0005270
units angstrom
no_reorient  #important for SAPT in psi4, default
symmetry c1  #important for SAPT in psi4, default
}

set PROPERTIES_ORIGIN ["COM"]
properties('MP2/aug-cc-pvtz', properties = ['dipole'])
--------------------------------------------------------------------------

    Molecular point group: c1
  Charge       = 0
  Multiplicity = 1
  Basis Set: AUG-CC-PVTZ
    Blend: AUG-CC-PVTZ
  Basis Set: (AUG-CC-PVTZ AUX)
    Blend: AUG-CC-PVTZ-JKFIT

    Orbital Energies [Eh]
    ---------------------

    Doubly Occupied:

       1A    -15.619078     2A    -15.543120     3A    -11.293942
       4A    -11.265346     5A    -11.241439     6A    -11.235541
       7A     -1.334148     8A     -1.161776     9A     -1.044229
      10A     -0.937541    11A     -0.821586    12A     -0.789673
      13A     -0.720937    14A     -0.619516    15A     -0.612738
      16A     -0.569388    17A     -0.562105    18A     -0.556813
      19A     -0.552997    20A     -0.431641    21A     -0.395538
      22A     -0.306149

  @DF-RHF Final Energy:  -263.94836343707067

   => Energetics <=

    Nuclear Repulsion Energy =            223.7580076327888889
    One-Electron Energy =                -800.1822549054817273
    Two-Electron Energy =                 312.4758838356221418
    Total Energy =                       -263.9483634370706682
  Basis Set: (AUG-CC-PVTZ AUX)
    Blend: AUG-CC-PVTZ-RI
    Molecular point group: c1

    Geometry (in Angstrom), charge = 0, multiplicity = 1:

       Center              X                  Y                   Z               Mass
    ------------   -----------------  -----------------  -----------------  -----------------
         N            0.105623031761    -1.058736076418    -0.000015335542    14.003074004430
         N            1.473894031761     0.695891923582    -0.000605335542    14.003074004430
         C           -0.714321968239     0.050717923582    -0.000000335542    12.000000000000
         C           -2.204025168239    -0.008777276418     0.000032764458    12.000000000000
         C            0.162587031761     1.116728923582     0.000218664458    12.000000000000
         C            1.402636031761    -0.626513076418     0.000395664458    12.000000000000
         H           -0.203544968239    -2.023210076418    -0.000000335542     1.007825032230
         H           -2.583063968239    -0.553668076418     0.886437664458     1.007825032230
         H           -2.621162968239     0.974358923582    -0.000441335542     1.007825032230
         H           -2.583073968239    -0.554498076418    -0.885895335542     1.007825032230
         H           -0.087352968239     2.170205923582     0.000285664458     1.007825032230
         H            2.243252031761    -1.308001076418     0.000536664458     1.007825032230

  Basis Set: AUG-CC-PVTZ
    Blend: AUG-CC-PVTZ
  Basis Set: (AUG-CC-PVTZ AUX)
    Blend: AUG-CC-PVTZ-JKFIT
	 Reference Energy          =    -263.9483634370706682 [Eh]
	 Singles Energy            =      -0.0000000000000000 [Eh]
	 Same-Spin Energy          =      -0.2867438933846506 [Eh]
	 Opposite-Spin Energy      =      -0.8969108959995645 [Eh]
	 Correlation Energy        =      -1.1836547893842151 [Eh]
	 Total Energy              =    -265.1320182264548748 [Eh]

	 ================> DF-SCS-MP2 Energies <==================
	-----------------------------------------------------------
	 SCS Same-Spin Scale       =       0.3333333333333333 [-]
	 SCS Opposite-Spin Scale   =       1.2000000000000000 [-]
	 SCS Same-Spin Energy      =      -0.0955812977948835 [Eh]
	 SCS Opposite-Spin Energy  =      -1.0762930751994775 [Eh]
	 SCS Correlation Energy    =      -1.1718743729943610 [Eh]
	 SCS Total Energy          =    -265.1202378100650208 [Eh]
	-----------------------------------------------------------

  Dipole Moment: [D]
     X:    -2.8071      Y:    -2.9850      Z:     0.0013     Total:     4.0976

*** Psi4 exiting successfully. Buy a developer a beer!
