                               Psi4 1.4a3.dev225

  ==> Input File <==

--------------------------------------------------------------------------
#psi4
#
memory 32 gb

molecule  {
0 1
  N        0.1711350    -1.0406470     0.0001130
  N        1.5396510     0.7139170    -0.0000360
  C       -0.6485970     0.0689120    -0.0000300
  C       -2.0871342    -0.0136800    -0.0000426
  C        0.2284270     1.1349600    -0.0001140
  C        1.4682190    -0.6084950     0.0000980
  H       -0.1381210    -2.0051120     0.0001710
  H       -2.5175930    -0.5357270     0.8861500
  H       -2.5555550     0.9925160    -0.0001930
  H       -2.5175640    -0.5359780    -0.8861020
  H       -0.0214450     2.1884610    -0.0002290
  H        2.3087860    -1.2900390     0.0001920
units angstrom
no_reorient  #important for SAPT in psi4, default
symmetry c1  #important for SAPT in psi4, default
}

set PROPERTIES_ORIGIN ["COM"]
properties('MP2/aug-cc-pvtz', properties = ['dipole'])
--------------------------------------------------------------------------

    Molecular point group: c1
  Charge       = 0
  Multiplicity = 1
  Basis Set: AUG-CC-PVTZ
    Blend: AUG-CC-PVTZ
  Basis Set: (AUG-CC-PVTZ AUX)
    Blend: AUG-CC-PVTZ-JKFIT

    Orbital Energies [Eh]
    ---------------------

    Doubly Occupied:

       1A    -15.618611     2A    -15.543680     3A    -11.294678
       4A    -11.263078     5A    -11.242371     6A    -11.236958
       7A     -1.335060     8A     -1.163061     9A     -1.050781
      10A     -0.935573    11A     -0.822266    12A     -0.790578
      13A     -0.723504    14A     -0.618388    15A     -0.614653
      16A     -0.584100    17A     -0.562640    18A     -0.549761
      19A     -0.540922    20A     -0.432268    21A     -0.395917
      22A     -0.306032

  @DF-RHF Final Energy:  -263.94564077919028

   => Energetics <=

    Nuclear Repulsion Energy =            224.5341614420467806
    One-Electron Energy =                -801.7098425366092442
    Two-Electron Energy =                 313.2300403153722073
    Total Energy =                       -263.9456407791902848
  Basis Set: (AUG-CC-PVTZ AUX)
    Blend: AUG-CC-PVTZ-RI
    Molecular point group: c1

    Geometry (in Angstrom), charge = 0, multiplicity = 1:

       Center              X                  Y                   Z               Mass
    ------------   -----------------  -----------------  -----------------  -----------------
         N            0.097973000697    -1.055393318124     0.000112951853    14.003074004430
         N            1.466489000697     0.699170681876    -0.000036048147    14.003074004430
         C           -0.721758999303     0.054165681876    -0.000030048147    12.000000000000
         C           -2.160296199303    -0.028426318124    -0.000042648147    12.000000000000
         C            0.155265000697     1.120213681876    -0.000114048147    12.000000000000
         C            1.395057000697    -0.623241318124     0.000097951853    12.000000000000
         H           -0.211282999303    -2.019858318124     0.000170951853     1.007825032230
         H           -2.590754999303    -0.550473318124     0.886149951853     1.007825032230
         H           -2.628716999303     0.977769681876    -0.000193048147     1.007825032230
         H           -2.590725999303    -0.550724318124    -0.886102048147     1.007825032230
         H           -0.094606999303     2.173714681876    -0.000229048147     1.007825032230
         H            2.235624000697    -1.304785318124     0.000191951853     1.007825032230

  Basis Set: AUG-CC-PVTZ
    Blend: AUG-CC-PVTZ
  Basis Set: (AUG-CC-PVTZ AUX)
    Blend: AUG-CC-PVTZ-JKFIT
	 Reference Energy          =    -263.9456407791902848 [Eh]
	 Singles Energy            =      -0.0000000000000000 [Eh]
	 Same-Spin Energy          =      -0.2873056995438311 [Eh]
	 Opposite-Spin Energy      =      -0.8974832754426675 [Eh]
	 Correlation Energy        =      -1.1847889749864986 [Eh]
	 Total Energy              =    -265.1304297541767596 [Eh]

	 ================> DF-SCS-MP2 Energies <==================
	-----------------------------------------------------------
	 SCS Same-Spin Scale       =       0.3333333333333333 [-]
	 SCS Opposite-Spin Scale   =       1.2000000000000000 [-]
	 SCS Same-Spin Energy      =      -0.0957685665146104 [Eh]
	 SCS Opposite-Spin Energy  =      -1.0769799305312009 [Eh]
	 SCS Correlation Energy    =      -1.1727484970458113 [Eh]
	 SCS Total Energy          =    -265.1183892762360870 [Eh]
	-----------------------------------------------------------

  Dipole Moment: [D]
     X:    -2.7783      Y:    -2.9755      Z:     0.0002     Total:     4.0710

*** Psi4 exiting successfully. Buy a developer a beer!
