                               Psi4 1.3.2 release

  ==> Input File <==

--------------------------------------------------------------------------
#psi4
#
memory 32 gb

molecule  {
0 1
  N        0.1712930    -1.0406060    -0.0000250
  N        1.5395640     0.7140220    -0.0006150
  C       -0.6486520     0.0688480    -0.0000100
  C       -1.9374190    -0.0051694     0.0000134
  C        0.2282570     1.1348590     0.0002090
  C        1.4683060    -0.6083830     0.0003860
  H       -0.1378750    -2.0050800    -0.0000100
  H       -2.5173940    -0.5355380     0.8864280
  H       -2.5554930     0.9924890    -0.0004510
  H       -2.5174040    -0.5363680    -0.8859050
  H       -0.0216830     2.1883360     0.0002760
  H        2.3089220    -1.2898710     0.0005270
units angstrom
no_reorient  #important for SAPT in psi4, default
symmetry c1  #important for SAPT in psi4, default
}

set PROPERTIES_ORIGIN ["COM"]
properties('MP2/aug-cc-pvtz', properties = ['dipole'])
--------------------------------------------------------------------------

    Molecular point group: c1
  Charge       = 0
  Multiplicity = 1
  Basis Set: AUG-CC-PVTZ
    Blend: AUG-CC-PVTZ
  Basis Set: (AUG-CC-PVTZ AUX)
    Blend: AUG-CC-PVTZ-JKFIT

    Orbital Energies [Eh]
    ---------------------

    Doubly Occupied:

       1A    -15.618572     2A    -15.545506     3A    -11.297988
       4A    -11.253483     5A    -11.248337     6A    -11.240680
       7A     -1.338877     8A     -1.168311     9A     -1.079055
      10A     -0.931074    11A     -0.824772    12A     -0.794341
      13A     -0.731205    14A     -0.623331    15A     -0.619446
      16A     -0.618406    17A     -0.565398    18A     -0.526952
      19A     -0.510095    20A     -0.431185    21A     -0.397339
      22A     -0.301459

  @DF-RHF Final Energy:  -263.89527655299565

   => Energetics <=

    Nuclear Repulsion Energy =            227.0748701457191885
    One-Electron Energy =                -806.6086709218906208
    Two-Electron Energy =                 315.6385242231758070
    Total Energy =                       -263.8952765529956537
  Basis Set: (AUG-CC-PVTZ AUX)
    Blend: AUG-CC-PVTZ-RI
    Molecular point group: c1

    Geometry (in Angstrom), charge = 0, multiplicity = 1:

       Center              X                  Y                   Z               Mass
    ------------   -----------------  -----------------  -----------------  -----------------
         N            0.076236762957    -1.056612251677    -0.000013916949    14.003074004430
         N            1.444507762957     0.698015748323    -0.000603916949    14.003074004430
         C           -0.743708237043     0.052841748323     0.000001083051    12.000000000000
         C           -2.032475237043    -0.021175651677     0.000024483051    12.000000000000
         C            0.133200762957     1.118852748323     0.000220083051    12.000000000000
         C            1.373249762957    -0.624389251677     0.000397083051    12.000000000000
         H           -0.232931237043    -2.021086251677     0.000001083051     1.007825032230
         H           -2.612450237043    -0.551544251677     0.886439083051     1.007825032230
         H           -2.650549237043     0.976482748323    -0.000439916949     1.007825032230
         H           -2.612460237043    -0.552374251677    -0.885893916949     1.007825032230
         H           -0.116739237043     2.172329748323     0.000287083051     1.007825032230
         H            2.213865762957    -1.305877251677     0.000538083051     1.007825032230

  Basis Set: AUG-CC-PVTZ
    Blend: AUG-CC-PVTZ
  Basis Set: (AUG-CC-PVTZ AUX)
    Blend: AUG-CC-PVTZ-JKFIT
	 Reference Energy          =    -263.8952765529956537 [Eh]
	 Singles Energy            =      -0.0000000000000000 [Eh]
	 Same-Spin Energy          =      -0.2902660930051831 [Eh]
	 Opposite-Spin Energy      =      -0.9012173515408459 [Eh]
	 Correlation Energy        =      -1.1914834445460289 [Eh]
	 Total Energy              =    -265.0867599975416624 [Eh]

	 ================> DF-SCS-MP2 Energies <==================
	-----------------------------------------------------------
	 SCS Same-Spin Scale       =       0.3333333333333333 [-]
	 SCS Opposite-Spin Scale   =       1.2000000000000000 [-]
	 SCS Same-Spin Energy      =      -0.0967553643350610 [Eh]
	 SCS Opposite-Spin Energy  =      -1.0814608218490152 [Eh]
	 SCS Correlation Energy    =      -1.1782161861840761 [Eh]
	 SCS Total Energy          =    -265.0734927391797555 [Eh]
	-----------------------------------------------------------

  Dipole Moment: [D]
     X:    -2.6434      Y:    -2.9103      Z:     0.0012     Total:     3.9316

*** Psi4 exiting successfully. Buy a developer a beer!
