                               Psi4 1.3.2 release

  ==> Input File <==

--------------------------------------------------------------------------
#psi4
#
memory 32 gb

molecule  {
0 1
  N        0.2095129    -1.0113145    -0.0000257
  N        1.5395640     0.7140220    -0.0006150
  C       -0.6486520     0.0688480    -0.0000100
  C       -2.1370900    -0.0166370     0.0000170
  C        0.2282570     1.1348590     0.0002090
  C        1.4683060    -0.6083830     0.0003860
  H       -0.1378750    -2.0050800    -0.0000100
  H       -2.5173940    -0.5355380     0.8864280
  H       -2.5554930     0.9924890    -0.0004510
  H       -2.5174040    -0.5363680    -0.8859050
  H       -0.0216830     2.1883360     0.0002760
  H        2.3089220    -1.2898710     0.0005270
units angstrom
no_reorient  #important for SAPT in psi4, default
symmetry c1  #important for SAPT in psi4, default
}

set PROPERTIES_ORIGIN ["COM"]
properties('MP2/aug-cc-pvtz', properties = ['dipole'])
--------------------------------------------------------------------------

    Molecular point group: c1
  Charge       = 0
  Multiplicity = 1
  Basis Set: AUG-CC-PVTZ
    Blend: AUG-CC-PVTZ
  Basis Set: (AUG-CC-PVTZ AUX)
    Blend: AUG-CC-PVTZ-JKFIT

    Orbital Energies [Eh]
    ---------------------

    Doubly Occupied:

       1A    -15.622143     2A    -15.537204     3A    -11.288886
       4A    -11.262045     5A    -11.242437     6A    -11.235502
       7A     -1.344721     8A     -1.156225     9A     -1.047560
      10A     -0.939642    11A     -0.815020    12A     -0.790412
      13A     -0.725879    14A     -0.618943    15A     -0.609553
      16A     -0.575215    17A     -0.561624    18A     -0.560960
      19A     -0.548270    20A     -0.427988    21A     -0.391824
      22A     -0.307846

  @DF-RHF Final Energy:  -263.94539097497187

   => Energetics <=

    Nuclear Repulsion Energy =            224.5093402388321238
    One-Electron Energy =                -801.6896647641005984
    Two-Electron Energy =                 313.2349335502966028
    Total Energy =                       -263.9453909749718719
  Basis Set: (AUG-CC-PVTZ AUX)
    Blend: AUG-CC-PVTZ-RI
    Molecular point group: c1

    Geometry (in Angstrom), charge = 0, multiplicity = 1:

       Center              X                  Y                   Z               Mass
    ------------   -----------------  -----------------  -----------------  -----------------
         N            0.137135342405    -1.030642501229    -0.000015023976    14.003074004430
         N            1.467186442405     0.694693998771    -0.000604323976    14.003074004430
         C           -0.721029557595     0.049519998771     0.000000676024    12.000000000000
         C           -2.209467557595    -0.035965001229     0.000027676024    12.000000000000
         C            0.155879442405     1.115530998771     0.000219676024    12.000000000000
         C            1.395928442405    -0.627711001229     0.000396676024    12.000000000000
         H           -0.210252557595    -2.024408001229     0.000000676024     1.007825032230
         H           -2.589771557595    -0.554866001229     0.886438676024     1.007825032230
         H           -2.627870557595     0.973160998771    -0.000440323976     1.007825032230
         H           -2.589781557595    -0.555696001229    -0.885894323976     1.007825032230
         H           -0.094060557595     2.169007998771     0.000286676024     1.007825032230
         H            2.236544442405    -1.309199001229     0.000537676024     1.007825032230

  Basis Set: AUG-CC-PVTZ
    Blend: AUG-CC-PVTZ
  Basis Set: (AUG-CC-PVTZ AUX)
    Blend: AUG-CC-PVTZ-JKFIT
	 Reference Energy          =    -263.9453909749718719 [Eh]
	 Singles Energy            =      -0.0000000000000000 [Eh]
	 Same-Spin Energy          =      -0.2871357710912045 [Eh]
	 Opposite-Spin Energy      =      -0.8968298345965873 [Eh]
	 Correlation Energy        =      -1.1839656056877919 [Eh]
	 Total Energy              =    -265.1293565806596462 [Eh]

	 ================> DF-SCS-MP2 Energies <==================
	-----------------------------------------------------------
	 SCS Same-Spin Scale       =       0.3333333333333333 [-]
	 SCS Opposite-Spin Scale   =       1.2000000000000000 [-]
	 SCS Same-Spin Energy      =      -0.0957119236970682 [Eh]
	 SCS Opposite-Spin Energy  =      -1.0761958015159048 [Eh]
	 SCS Correlation Energy    =      -1.1719077252129730 [Eh]
	 SCS Total Energy          =    -265.1172987001848469 [Eh]
	-----------------------------------------------------------

  Dipole Moment: [D]
     X:    -2.8843      Y:    -3.0970      Z:     0.0013     Total:     4.2321

*** Psi4 exiting successfully. Buy a developer a beer!
