                               Psi4 1.3.2 release

  ==> Input File <==

--------------------------------------------------------------------------
#psi4
#
memory 32 gb

molecule  {
0 1
  N        0.1712930    -1.0406060    -0.0000250
  N        1.5395640     0.7140220    -0.0006150
  C       -0.6611733     0.1443816    -0.1359911
  C       -2.1370900    -0.0166370     0.0000170
  C        0.2282570     1.1348590     0.0002090
  C        1.4683060    -0.6083830     0.0003860
  H       -0.1378750    -2.0050800    -0.0000100
  H       -2.5173940    -0.5355380     0.8864280
  H       -2.5554930     0.9924890    -0.0004510
  H       -2.5174040    -0.5363680    -0.8859050
  H       -0.0216830     2.1883360     0.0002760
  H        2.3089220    -1.2898710     0.0005270
units angstrom
no_reorient  #important for SAPT in psi4, default
symmetry c1  #important for SAPT in psi4, default
}

set PROPERTIES_ORIGIN ["COM"]
properties('MP2/aug-cc-pvtz', properties = ['dipole'])
--------------------------------------------------------------------------

    Molecular point group: c1
  Charge       = 0
  Multiplicity = 1
  Basis Set: AUG-CC-PVTZ
    Blend: AUG-CC-PVTZ
  Basis Set: (AUG-CC-PVTZ AUX)
    Blend: AUG-CC-PVTZ-JKFIT

    Orbital Energies [Eh]
    ---------------------

    Doubly Occupied:

       1A    -15.611230     2A    -15.540751     3A    -11.300366
       4A    -11.264315     5A    -11.240608     6A    -11.238068
       7A     -1.322199     8A     -1.152101     9A     -1.048646
      10A     -0.941648    11A     -0.819873    12A     -0.778665
      13A     -0.719897    14A     -0.614851    15A     -0.607928
      16A     -0.584245    17A     -0.562553    18A     -0.553130
      19A     -0.530587    20A     -0.433550    21A     -0.390697
      22A     -0.318997

  @DF-RHF Final Energy:  -263.93809592448054

   => Energetics <=

    Nuclear Repulsion Energy =            223.2273282498328797
    One-Electron Energy =                -799.1810401157529213
    Two-Electron Energy =                 312.0156159414394779
    Total Energy =                       -263.9380959244805354
  Basis Set: (AUG-CC-PVTZ AUX)
    Blend: AUG-CC-PVTZ-RI
    Molecular point group: c1

    Geometry (in Angstrom), charge = 0, multiplicity = 1:

       Center              X                  Y                   Z               Mass
    ------------   -----------------  -----------------  -----------------  -----------------
         N            0.107269199949    -1.065981696791     0.019872352257    14.003074004430
         N            1.475540199949     0.688646303209     0.019282352257    14.003074004430
         C           -0.725197100051     0.119005903209    -0.116093747743    12.000000000000
         C           -2.201113800051    -0.042012696791     0.019914352257    12.000000000000
         C            0.164233199949     1.109483303209     0.020106352257    12.000000000000
         C            1.404282199949    -0.633758696791     0.020283352257    12.000000000000
         H           -0.201898800051    -2.030455696791     0.019887352257     1.007825032230
         H           -2.581417800051    -0.560913696791     0.906325352257     1.007825032230
         H           -2.619516800051     0.967113303209     0.019446352257     1.007825032230
         H           -2.581427800051    -0.561743696791    -0.866007647743     1.007825032230
         H           -0.085706800051     2.162960303209     0.020173352257     1.007825032230
         H            2.244898199949    -1.315246696791     0.020424352257     1.007825032230

  Basis Set: AUG-CC-PVTZ
    Blend: AUG-CC-PVTZ
  Basis Set: (AUG-CC-PVTZ AUX)
    Blend: AUG-CC-PVTZ-JKFIT
	 Reference Energy          =    -263.9380959244805354 [Eh]
	 Singles Energy            =      -0.0000000000000000 [Eh]
	 Same-Spin Energy          =      -0.2859995696042560 [Eh]
	 Opposite-Spin Energy      =      -0.8970709710100652 [Eh]
	 Correlation Energy        =      -1.1830705406143212 [Eh]
	 Total Energy              =    -265.1211664650948592 [Eh]

	 ================> DF-SCS-MP2 Energies <==================
	-----------------------------------------------------------
	 SCS Same-Spin Scale       =       0.3333333333333333 [-]
	 SCS Opposite-Spin Scale   =       1.2000000000000000 [-]
	 SCS Same-Spin Energy      =      -0.0953331898680853 [Eh]
	 SCS Opposite-Spin Energy  =      -1.0764851652120782 [Eh]
	 SCS Correlation Energy    =      -1.1718183550801635 [Eh]
	 SCS Total Energy          =    -265.1099142795607122 [Eh]
	-----------------------------------------------------------

  Dipole Moment: [D]
     X:    -2.7472      Y:    -2.8712      Z:     0.0686     Total:     3.9744

*** Psi4 exiting successfully. Buy a developer a beer!
