                               Psi4 1.3.2 release

  ==> Input File <==

--------------------------------------------------------------------------
#psi4
#
memory 32 gb

molecule  {
0 1
  N        0.1712930    -1.0406060    -0.0000250
  N        1.5395640     0.7140220    -0.0006150
  C       -0.6486520     0.0688480    -0.0000100
  C       -2.1370900    -0.0166370     0.0000170
  C        0.2282570     1.1348590     0.0002090
  C        1.4683060    -0.6083830     0.0003860
  H       -0.1378750    -2.0050800    -0.0000100
  H       -2.5173940    -0.5355380     0.8864280
  H       -2.5554930     0.9924890    -0.0004510
  H       -2.5174040    -0.5363680    -0.8859050
  H       -0.0216830     2.1883360     0.0002760
  H        2.3089220    -1.2898710     0.0005270
units angstrom
no_reorient  #important for SAPT in psi4, default
symmetry c1  #important for SAPT in psi4, default
}

set PROPERTIES_ORIGIN ["COM"]
properties('MP2/aug-cc-pvtz', properties = ['dipole'])
--------------------------------------------------------------------------

    Molecular point group: c1
  Charge       = 0
  Multiplicity = 1
  Basis Set: AUG-CC-PVTZ
    Blend: AUG-CC-PVTZ
  Basis Set: (AUG-CC-PVTZ AUX)
    Blend: AUG-CC-PVTZ-JKFIT

    Orbital Energies [Eh]
    ---------------------

    Doubly Occupied:

       1A    -15.618550     2A    -15.543239     3A    -11.293893
       4A    -11.265304     5A    -11.241197     6A    -11.236106
       7A     -1.334122     8A     -1.161904     9A     -1.043774
      10A     -0.937667    11A     -0.821589    12A     -0.789415
      13A     -0.720868    14A     -0.617814    15A     -0.614932
      16A     -0.570427    17A     -0.561922    18A     -0.557475
      19A     -0.549804    20A     -0.431977    21A     -0.395511
      22A     -0.306721

  @DF-RHF Final Energy:  -263.94896256027266

   => Energetics <=

    Nuclear Repulsion Energy =            223.7726718473966230
    One-Electron Energy =                -800.2148476148448708
    Two-Electron Energy =                 312.4932132071755859
    Total Energy =                       -263.9489625602726619
  Basis Set: (AUG-CC-PVTZ AUX)
    Blend: AUG-CC-PVTZ-RI
    Molecular point group: c1

    Geometry (in Angstrom), charge = 0, multiplicity = 1:

       Center              X                  Y                   Z               Mass
    ------------   -----------------  -----------------  -----------------  -----------------
         N            0.105438000356    -1.054935152299    -0.000014443437    14.003074004430
         N            1.473709000356     0.699692847701    -0.000604443437    14.003074004430
         C           -0.714506999644     0.054518847701     0.000000556563    12.000000000000
         C           -2.202944999644    -0.030966152299     0.000027556563    12.000000000000
         C            0.162402000356     1.120529847701     0.000219556563    12.000000000000
         C            1.402451000356    -0.622712152299     0.000396556563    12.000000000000
         H           -0.203729999644    -2.019409152299     0.000000556563     1.007825032230
         H           -2.583248999644    -0.549867152299     0.886438556563     1.007825032230
         H           -2.621347999644     0.978159847701    -0.000440443437     1.007825032230
         H           -2.583258999644    -0.550697152299    -0.885894443437     1.007825032230
         H           -0.087537999644     2.174006847701     0.000286556563     1.007825032230
         H            2.243067000356    -1.304200152299     0.000537556563     1.007825032230

  Basis Set: AUG-CC-PVTZ
    Blend: AUG-CC-PVTZ
  Basis Set: (AUG-CC-PVTZ AUX)
    Blend: AUG-CC-PVTZ-JKFIT
	 Reference Energy          =    -263.9489625602726619 [Eh]
	 Singles Energy            =      -0.0000000000000000 [Eh]
	 Same-Spin Energy          =      -0.2867798493852182 [Eh]
	 Opposite-Spin Energy      =      -0.8969713817228095 [Eh]
	 Correlation Energy        =      -1.1837512311080278 [Eh]
	 Total Energy              =    -265.1327137913806951 [Eh]

	 ================> DF-SCS-MP2 Energies <==================
	-----------------------------------------------------------
	 SCS Same-Spin Scale       =       0.3333333333333333 [-]
	 SCS Opposite-Spin Scale   =       1.2000000000000000 [-]
	 SCS Same-Spin Energy      =      -0.0955932831284061 [Eh]
	 SCS Opposite-Spin Energy  =      -1.0763656580673715 [Eh]
	 SCS Correlation Energy    =      -1.1719589411957776 [Eh]
	 SCS Total Energy          =    -265.1209215014684446 [Eh]
	-----------------------------------------------------------

  Dipole Moment: [D]
     X:    -2.8034      Y:    -2.9909      Z:     0.0013     Total:     4.0993

*** Psi4 exiting successfully. Buy a developer a beer!
