                               Psi4 1.4a3.dev225

  ==> Input File <==

--------------------------------------------------------------------------
#psi4
#
memory 32 gb

molecule  {
0 1
  N        0.1711350    -1.0406470     0.0001130
  N        1.5396510     0.7139170    -0.0000360
  C       -0.6485970     0.0689120    -0.0000300
  C       -2.1170849    -0.0153996    -0.0000428
  C        0.2284270     1.1349600    -0.0001140
  C        1.4682190    -0.6084950     0.0000980
  H       -0.1381210    -2.0051120     0.0001710
  H       -2.5175930    -0.5357270     0.8861500
  H       -2.5555550     0.9925160    -0.0001930
  H       -2.5175640    -0.5359780    -0.8861020
  H       -0.0214450     2.1884610    -0.0002290
  H        2.3087860    -1.2900390     0.0001920
units angstrom
no_reorient  #important for SAPT in psi4, default
symmetry c1  #important for SAPT in psi4, default
}

set PROPERTIES_ORIGIN ["COM"]
properties('MP2/aug-cc-pvtz', properties = ['dipole'])
--------------------------------------------------------------------------

    Molecular point group: c1
  Charge       = 0
  Multiplicity = 1
  Basis Set: AUG-CC-PVTZ
    Blend: AUG-CC-PVTZ
  Basis Set: (AUG-CC-PVTZ AUX)
    Blend: AUG-CC-PVTZ-JKFIT

    Orbital Energies [Eh]
    ---------------------

    Doubly Occupied:

       1A    -15.618590     2A    -15.543419     3A    -11.294197
       4A    -11.264486     5A    -11.241593     6A    -11.236445
       7A     -1.334482     8A     -1.162355     9A     -1.046427
      10A     -0.936800    11A     -0.821859    12A     -0.789878
      13A     -0.721901    14A     -0.617984    15A     -0.614707
      16A     -0.575828    17A     -0.562233    18A     -0.554425
      19A     -0.546488    20A     -0.432126    21A     -0.395682
      22A     -0.306474

  @DF-RHF Final Energy:  -263.94828057967703

   => Energetics <=

    Nuclear Repulsion Energy =            224.0713400475332833
    One-Electron Energy =                -800.8024816214444854
    Two-Electron Energy =                 312.7828609942341132
    Total Energy =                       -263.9482805796770322
  Basis Set: (AUG-CC-PVTZ AUX)
    Blend: AUG-CC-PVTZ-RI
    Molecular point group: c1

    Geometry (in Angstrom), charge = 0, multiplicity = 1:

       Center              X                  Y                   Z               Mass
    ------------   -----------------  -----------------  -----------------  -----------------
         N            0.102353193620    -1.055141832190     0.000112981102    14.003074004430
         N            1.470869193620     0.699422167810    -0.000036018898    14.003074004430
         C           -0.717378806380     0.054417167810    -0.000030018898    12.000000000000
         C           -2.185866706380    -0.029894432190    -0.000042818898    12.000000000000
         C            0.159645193620     1.120465167810    -0.000114018898    12.000000000000
         C            1.399437193620    -0.622989832190     0.000097981102    12.000000000000
         H           -0.206902806380    -2.019606832190     0.000170981102     1.007825032230
         H           -2.586374806380    -0.550221832190     0.886149981102     1.007825032230
         H           -2.624336806380     0.978021167810    -0.000193018898     1.007825032230
         H           -2.586345806380    -0.550472832190    -0.886102018898     1.007825032230
         H           -0.090226806380     2.173966167810    -0.000229018898     1.007825032230
         H            2.240004193620    -1.304533832190     0.000191981102     1.007825032230

  Basis Set: AUG-CC-PVTZ
    Blend: AUG-CC-PVTZ
  Basis Set: (AUG-CC-PVTZ AUX)
    Blend: AUG-CC-PVTZ-JKFIT
	 Reference Energy          =    -263.9482805796770322 [Eh]
	 Singles Energy            =      -0.0000000000000000 [Eh]
	 Same-Spin Energy          =      -0.2869664954395701 [Eh]
	 Opposite-Spin Energy      =      -0.8971389887721557 [Eh]
	 Correlation Energy        =      -1.1841054842117258 [Eh]
	 Total Energy              =    -265.1323860638887595 [Eh]

	 ================> DF-SCS-MP2 Energies <==================
	-----------------------------------------------------------
	 SCS Same-Spin Scale       =       0.3333333333333333 [-]
	 SCS Opposite-Spin Scale   =       1.2000000000000000 [-]
	 SCS Same-Spin Energy      =      -0.0956554984798567 [Eh]
	 SCS Opposite-Spin Energy  =      -1.0765667865265869 [Eh]
	 SCS Correlation Energy    =      -1.1722222850064437 [Eh]
	 SCS Total Energy          =    -265.1205028646834876 [Eh]
	-----------------------------------------------------------

  Dipole Moment: [D]
     X:    -2.7942      Y:    -2.9849      Z:     0.0002     Total:     4.0887

*** Psi4 exiting successfully. Buy a developer a beer!
