                               Psi4 1.3.2 release

  ==> Input File <==

--------------------------------------------------------------------------
#psi4
#
memory 32 gb

molecule  {
0 1
  N        0.1712930    -1.0406060    -0.0000250
  N        1.5395640     0.7140220    -0.0006150
  C       -0.6486520     0.0688480    -0.0000100
  C       -2.1394274     0.0873994     0.0000411
  C        0.2282570     1.1348590     0.0002090
  C        1.4683060    -0.6083830     0.0003860
  H       -0.1378750    -2.0050800    -0.0000100
  H       -2.5173940    -0.5355380     0.8864280
  H       -2.5554930     0.9924890    -0.0004510
  H       -2.5174040    -0.5363680    -0.8859050
  H       -0.0216830     2.1883360     0.0002760
  H        2.3089220    -1.2898710     0.0005270
units angstrom
no_reorient  #important for SAPT in psi4, default
symmetry c1  #important for SAPT in psi4, default
}

set PROPERTIES_ORIGIN ["COM"]
properties('MP2/aug-cc-pvtz', properties = ['dipole'])
--------------------------------------------------------------------------

    Molecular point group: c1
  Charge       = 0
  Multiplicity = 1
  Basis Set: AUG-CC-PVTZ
    Blend: AUG-CC-PVTZ
  Basis Set: (AUG-CC-PVTZ AUX)
    Blend: AUG-CC-PVTZ-JKFIT

    Orbital Energies [Eh]
    ---------------------

    Doubly Occupied:

       1A    -15.620895     2A    -15.542928     3A    -11.294259
       4A    -11.266120     5A    -11.243489     6A    -11.234051
       7A     -1.334471     8A     -1.161632     9A     -1.046206
      10A     -0.938133    11A     -0.821786    12A     -0.790922
      13A     -0.722744    14A     -0.626281    15A     -0.608267
      16A     -0.583745    17A     -0.562031    18A     -0.557410
      19A     -0.537749    20A     -0.430588    21A     -0.395806
      22A     -0.304431

  @DF-RHF Final Energy:  -263.93651806493591

   => Energetics <=

    Nuclear Repulsion Energy =            223.7369986070744403
    One-Electron Energy =                -800.0991427075184674
    Two-Electron Energy =                 312.4256260355081736
    Total Energy =                       -263.9365180649359104
  Basis Set: (AUG-CC-PVTZ AUX)
    Blend: AUG-CC-PVTZ-RI
    Molecular point group: c1

    Geometry (in Angstrom), charge = 0, multiplicity = 1:

       Center              X                  Y                   Z               Mass
    ------------   -----------------  -----------------  -----------------  -----------------
         N            0.105779837540    -1.070150139025    -0.000017967984    14.003074004430
         N            1.474050837540     0.684477860975    -0.000607967984    14.003074004430
         C           -0.714165162460     0.039303860975    -0.000002967984    12.000000000000
         C           -2.204940562460     0.057855260975     0.000048132016    12.000000000000
         C            0.162743837540     1.105314860975     0.000216032016    12.000000000000
         C            1.402792837540    -0.637927139025     0.000393032016    12.000000000000
         H           -0.203388162460    -2.034624139025    -0.000002967984     1.007825032230
         H           -2.582907162460    -0.565082139025     0.886435032016     1.007825032230
         H           -2.621006162460     0.962944860975    -0.000443967984     1.007825032230
         H           -2.582917162460    -0.565912139025    -0.885897967984     1.007825032230
         H           -0.087196162460     2.158791860975     0.000283032016     1.007825032230
         H            2.243408837540    -1.319415139025     0.000534032016     1.007825032230

  Basis Set: AUG-CC-PVTZ
    Blend: AUG-CC-PVTZ
  Basis Set: (AUG-CC-PVTZ AUX)
    Blend: AUG-CC-PVTZ-JKFIT
	 Reference Energy          =    -263.9365180649359104 [Eh]
	 Singles Energy            =      -0.0000000000000000 [Eh]
	 Same-Spin Energy          =      -0.2867948925998846 [Eh]
	 Opposite-Spin Energy      =      -0.8971814985538280 [Eh]
	 Correlation Energy        =      -1.1839763911537124 [Eh]
	 Total Energy              =    -265.1204944560896024 [Eh]

	 ================> DF-SCS-MP2 Energies <==================
	-----------------------------------------------------------
	 SCS Same-Spin Scale       =       0.3333333333333333 [-]
	 SCS Opposite-Spin Scale   =       1.2000000000000000 [-]
	 SCS Same-Spin Energy      =      -0.0955982975332949 [Eh]
	 SCS Opposite-Spin Energy  =      -1.0766177982645935 [Eh]
	 SCS Correlation Energy    =      -1.1722160957978884 [Eh]
	 SCS Total Energy          =    -265.1087341607337748 [Eh]
	-----------------------------------------------------------

  Dipole Moment: [D]
     X:    -2.8025      Y:    -2.9699      Z:     0.0013     Total:     4.0834

*** Psi4 exiting successfully. Buy a developer a beer!
