                               Psi4 1.4a3.dev225

  ==> Input File <==

--------------------------------------------------------------------------
#psi4
#
memory 32 gb

molecule  {
0 1
  N        0.1711350    -1.0406470     0.0001130
  N        1.5396510     0.7139170    -0.0000360
  C       -0.6485970     0.0689120    -0.0000300
  C       -2.1869698    -0.0194120    -0.0000434
  C        0.2284270     1.1349600    -0.0001140
  C        1.4682190    -0.6084950     0.0000980
  H       -0.1381210    -2.0051120     0.0001710
  H       -2.5175930    -0.5357270     0.8861500
  H       -2.5555550     0.9925160    -0.0001930
  H       -2.5175640    -0.5359780    -0.8861020
  H       -0.0214450     2.1884610    -0.0002290
  H        2.3087860    -1.2900390     0.0001920
units angstrom
no_reorient  #important for SAPT in psi4, default
symmetry c1  #important for SAPT in psi4, default
}

set PROPERTIES_ORIGIN ["COM"]
properties('MP2/aug-cc-pvtz', properties = ['dipole'])
--------------------------------------------------------------------------

    Molecular point group: c1
  Charge       = 0
  Multiplicity = 1
  Basis Set: AUG-CC-PVTZ
    Blend: AUG-CC-PVTZ
  Basis Set: (AUG-CC-PVTZ AUX)
    Blend: AUG-CC-PVTZ-JKFIT

    Orbital Energies [Eh]
    ---------------------

    Doubly Occupied:

       1A    -15.618462     2A    -15.542859     3A    -11.293193
       4A    -11.267079     5A    -11.240698     6A    -11.235400
       7A     -1.333250     8A     -1.160934     9A     -1.037769
      10A     -0.939854    11A     -0.820944    12A     -0.788321
      13A     -0.718436    14A     -0.617802    15A     -0.616089
      16A     -0.564495    17A     -0.564132    18A     -0.560517
      19A     -0.550514    20A     -0.431432    21A     -0.395132
      22A     -0.307065

  @DF-RHF Final Energy:  -263.94727255150957

   => Energetics <=

    Nuclear Repulsion Energy =            223.0354968225371124
    One-Electron Energy =                -798.7567830227374088
    Two-Electron Energy =                 311.7740136486907545
    Total Energy =                       -263.9472725515095703
  Basis Set: (AUG-CC-PVTZ AUX)
    Blend: AUG-CC-PVTZ-RI
    Molecular point group: c1

    Geometry (in Angstrom), charge = 0, multiplicity = 1:

       Center              X                  Y                   Z               Mass
    ------------   -----------------  -----------------  -----------------  -----------------
         N            0.112573634022    -1.054555031679     0.000113068850    14.003074004430
         N            1.481089634022     0.700008968321    -0.000035931150    14.003074004430
         C           -0.707158365978     0.055003968321    -0.000029931150    12.000000000000
         C           -2.245531165978    -0.033320031679    -0.000043331150    12.000000000000
         C            0.169865634022     1.121051968321    -0.000113931150    12.000000000000
         C            1.409657634022    -0.622403031679     0.000098068850    12.000000000000
         H           -0.196682365978    -2.019020031679     0.000171068850     1.007825032230
         H           -2.576154365978    -0.549635031679     0.886150068850     1.007825032230
         H           -2.614116365978     0.978607968321    -0.000192931150     1.007825032230
         H           -2.576125365978    -0.549886031679    -0.886101931150     1.007825032230
         H           -0.080006365978     2.174552968321    -0.000228931150     1.007825032230
         H            2.250224634022    -1.303947031679     0.000192068850     1.007825032230

  Basis Set: AUG-CC-PVTZ
    Blend: AUG-CC-PVTZ
  Basis Set: (AUG-CC-PVTZ AUX)
    Blend: AUG-CC-PVTZ-JKFIT
	 Reference Energy          =    -263.9472725515095703 [Eh]
	 Singles Energy            =      -0.0000000000000000 [Eh]
	 Same-Spin Energy          =      -0.2864569053586274 [Eh]
	 Opposite-Spin Energy      =      -0.8967867961075837 [Eh]
	 Correlation Energy        =      -1.1832437014662112 [Eh]
	 Total Energy              =    -265.1305162529757808 [Eh]

	 ================> DF-SCS-MP2 Energies <==================
	-----------------------------------------------------------
	 SCS Same-Spin Scale       =       0.3333333333333333 [-]
	 SCS Opposite-Spin Scale   =       1.2000000000000000 [-]
	 SCS Same-Spin Energy      =      -0.0954856351195425 [Eh]
	 SCS Opposite-Spin Energy  =      -1.0761441553291005 [Eh]
	 SCS Correlation Energy    =      -1.1716297904486430 [Eh]
	 SCS Total Energy          =    -265.1189023419582327 [Eh]
	-----------------------------------------------------------

  Dipole Moment: [D]
     X:    -2.8234      Y:    -3.0031      Z:     0.0002     Total:     4.1219

*** Psi4 exiting successfully. Buy a developer a beer!
