                               Psi4 1.3.2 release

  ==> Input File <==

--------------------------------------------------------------------------
#psi4
#
memory 32 gb

molecule  {
0 1
  N        0.0919041    -1.0950999    -0.0000236
  N        1.5395640     0.7140220    -0.0006150
  C       -0.6486520     0.0688480    -0.0000100
  C       -2.1370900    -0.0166370     0.0000170
  C        0.2282570     1.1348590     0.0002090
  C        1.4683060    -0.6083830     0.0003860
  H       -0.1378750    -2.0050800    -0.0000100
  H       -2.5173940    -0.5355380     0.8864280
  H       -2.5554930     0.9924890    -0.0004510
  H       -2.5174040    -0.5363680    -0.8859050
  H       -0.0216830     2.1883360     0.0002760
  H        2.3089220    -1.2898710     0.0005270
units angstrom
no_reorient  #important for SAPT in psi4, default
symmetry c1  #important for SAPT in psi4, default
}

set PROPERTIES_ORIGIN ["COM"]
properties('MP2/aug-cc-pvtz', properties = ['dipole'])
--------------------------------------------------------------------------

    Molecular point group: c1
  Charge       = 0
  Multiplicity = 1
  Basis Set: AUG-CC-PVTZ
    Blend: AUG-CC-PVTZ
  Basis Set: (AUG-CC-PVTZ AUX)
    Blend: AUG-CC-PVTZ-JKFIT

    Orbital Energies [Eh]
    ---------------------

    Doubly Occupied:

       1A    -15.610927     2A    -15.555051     3A    -11.303325
       4A    -11.272533     5A    -11.238689     6A    -11.237792
       7A     -1.317800     8A     -1.173597     9A     -1.039120
      10A     -0.935396    11A     -0.838454    12A     -0.784649
      13A     -0.709396    14A     -0.635221    15A     -0.609467
      16A     -0.564609    17A     -0.564199    18A     -0.549505
      19A     -0.542927    20A     -0.439059    21A     -0.403377
      22A     -0.304682

  @DF-RHF Final Energy:  -263.93449665719481

   => Energetics <=

    Nuclear Repulsion Energy =            222.4697011063086904
    One-Electron Energy =                -797.5488425078189039
    Two-Electron Energy =                 311.1446447443154284
    Total Energy =                       -263.9344966571948135
  Basis Set: (AUG-CC-PVTZ AUX)
    Blend: AUG-CC-PVTZ-RI
    Molecular point group: c1

    Geometry (in Angstrom), charge = 0, multiplicity = 1:

       Center              X                  Y                   Z               Mass
    ------------   -----------------  -----------------  -----------------  -----------------
         N            0.039597505794    -1.100129194874    -0.000013282359    14.003074004430
         N            1.487257405794     0.708992705126    -0.000604682359    14.003074004430
         C           -0.700958594206     0.063818705126     0.000000317641    12.000000000000
         C           -2.189396594206    -0.021666294874     0.000027317641    12.000000000000
         C            0.175950405794     1.129829705126     0.000219317641    12.000000000000
         C            1.415999405794    -0.613412294874     0.000396317641    12.000000000000
         H           -0.190181594206    -2.010109294874     0.000000317641     1.007825032230
         H           -2.569700594206    -0.540567294874     0.886438317641     1.007825032230
         H           -2.607799594206     0.987459705126    -0.000440682359     1.007825032230
         H           -2.569710594206    -0.541397294874    -0.885894682359     1.007825032230
         H           -0.073989594206     2.183306705126     0.000286317641     1.007825032230
         H            2.256615405794    -1.294900294874     0.000537317641     1.007825032230

  Basis Set: AUG-CC-PVTZ
    Blend: AUG-CC-PVTZ
  Basis Set: (AUG-CC-PVTZ AUX)
    Blend: AUG-CC-PVTZ-JKFIT
	 Reference Energy          =    -263.9344966571948135 [Eh]
	 Singles Energy            =      -0.0000000000000000 [Eh]
	 Same-Spin Energy          =      -0.2864821457604658 [Eh]
	 Opposite-Spin Energy      =      -0.8983097203061535 [Eh]
	 Correlation Energy        =      -1.1847918660666195 [Eh]
	 Total Energy              =    -265.1192885232614458 [Eh]

	 ================> DF-SCS-MP2 Energies <==================
	-----------------------------------------------------------
	 SCS Same-Spin Scale       =       0.3333333333333333 [-]
	 SCS Opposite-Spin Scale   =       1.2000000000000000 [-]
	 SCS Same-Spin Energy      =      -0.0954940485868219 [Eh]
	 SCS Opposite-Spin Energy  =      -1.0779716643673842 [Eh]
	 SCS Correlation Energy    =      -1.1734657129542061 [Eh]
	 SCS Total Energy          =    -265.1079623701490391 [Eh]
	-----------------------------------------------------------

  Dipole Moment: [D]
     X:    -2.6026      Y:    -2.7614      Z:     0.0013     Total:     3.7945

*** Psi4 exiting successfully. Buy a developer a beer!
