                               Psi4 1.3.2 release

  ==> Input File <==

--------------------------------------------------------------------------
#psi4
#
memory 32 gb

molecule  {
0 1
  N        0.1712930    -1.0406060    -0.0000250
  N        1.5395640     0.7140220    -0.0006150
  C       -0.6486520     0.0688480    -0.0000100
  C       -2.2369255    -0.0223708     0.0000188
  C        0.2282570     1.1348590     0.0002090
  C        1.4683060    -0.6083830     0.0003860
  H       -0.1378750    -2.0050800    -0.0000100
  H       -2.5173940    -0.5355380     0.8864280
  H       -2.5554930     0.9924890    -0.0004510
  H       -2.5174040    -0.5363680    -0.8859050
  H       -0.0216830     2.1883360     0.0002760
  H        2.3089220    -1.2898710     0.0005270
units angstrom
no_reorient  #important for SAPT in psi4, default
symmetry c1  #important for SAPT in psi4, default
}

set PROPERTIES_ORIGIN ["COM"]
properties('MP2/aug-cc-pvtz', properties = ['dipole'])
--------------------------------------------------------------------------

    Molecular point group: c1
  Charge       = 0
  Multiplicity = 1
  Basis Set: AUG-CC-PVTZ
    Blend: AUG-CC-PVTZ
  Basis Set: (AUG-CC-PVTZ AUX)
    Blend: AUG-CC-PVTZ-JKFIT

    Orbital Energies [Eh]
    ---------------------

    Doubly Occupied:

       1A    -15.618285     2A    -15.542462     3A    -11.292539
       4A    -11.268356     5A    -11.240974     6A    -11.234716
       7A     -1.332445     8A     -1.160031     9A     -1.032735
      10A     -0.942114    11A     -0.820299    12A     -0.787267
      13A     -0.716259    14A     -0.618410    15A     -0.618324
      16A     -0.570519    17A     -0.569490    18A     -0.560498
      19A     -0.536769    20A     -0.430609    21A     -0.394708
      22A     -0.307204

  @DF-RHF Final Energy:  -263.94150278329738

   => Energetics <=

    Nuclear Repulsion Energy =            222.3300650800248661
    One-Electron Energy =                -797.3531085549710724
    Two-Electron Energy =                 311.0815406916488541
    Total Energy =                       -263.9415027832973806
  Basis Set: (AUG-CC-PVTZ AUX)
    Blend: AUG-CC-PVTZ-RI
    Molecular point group: c1

    Geometry (in Angstrom), charge = 0, multiplicity = 1:

       Center              X                  Y                   Z               Mass
    ------------   -----------------  -----------------  -----------------  -----------------
         N            0.120038619056    -1.054096602609    -0.000014706681    14.003074004430
         N            1.488309619056     0.700531397391    -0.000604706681    14.003074004430
         C           -0.699906380944     0.055357397391     0.000000293319    12.000000000000
         C           -2.288179880944    -0.035861402609     0.000029093319    12.000000000000
         C            0.177002619056     1.121368397391     0.000219293319    12.000000000000
         C            1.417051619056    -0.621873602609     0.000396293319    12.000000000000
         H           -0.189129380944    -2.018570602609     0.000000293319     1.007825032230
         H           -2.568648380944    -0.549028602609     0.886438293319     1.007825032230
         H           -2.606747380944     0.978998397391    -0.000440706681     1.007825032230
         H           -2.568658380944    -0.549858602609    -0.885894706681     1.007825032230
         H           -0.072937380944     2.174845397391     0.000286293319     1.007825032230
         H            2.257667619056    -1.303361602609     0.000537293319     1.007825032230

  Basis Set: AUG-CC-PVTZ
    Blend: AUG-CC-PVTZ
  Basis Set: (AUG-CC-PVTZ AUX)
    Blend: AUG-CC-PVTZ-JKFIT
	 Reference Energy          =    -263.9415027832973806 [Eh]
	 Singles Energy            =      -0.0000000000000000 [Eh]
	 Same-Spin Energy          =      -0.2863107203364881 [Eh]
	 Opposite-Spin Energy      =      -0.8968909633099776 [Eh]
	 Correlation Energy        =      -1.1832016836464658 [Eh]
	 Total Energy              =    -265.1247044669438537 [Eh]

	 ================> DF-SCS-MP2 Energies <==================
	-----------------------------------------------------------
	 SCS Same-Spin Scale       =       0.3333333333333333 [-]
	 SCS Opposite-Spin Scale   =       1.2000000000000000 [-]
	 SCS Same-Spin Energy      =      -0.0954369067788294 [Eh]
	 SCS Opposite-Spin Energy  =      -1.0762691559719730 [Eh]
	 SCS Correlation Energy    =      -1.1717060627508025 [Eh]
	 SCS Total Energy          =    -265.1132088460481668 [Eh]
	-----------------------------------------------------------

  Dipole Moment: [D]
     X:    -2.8382      Y:    -3.0134      Z:     0.0013     Total:     4.1395

*** Psi4 exiting successfully. Buy a developer a beer!
