                               Psi4 1.3.2 release

  ==> Input File <==

--------------------------------------------------------------------------
#psi4
#
memory 32 gb

molecule  {
0 1
  N        0.1712930    -1.0406060    -0.0000250
  N        1.5395640     0.7140220    -0.0006150
  C       -0.6510169     0.0941711    -0.0454108
  C       -2.1370900    -0.0166370     0.0000170
  C        0.2282570     1.1348590     0.0002090
  C        1.4683060    -0.6083830     0.0003860
  H       -0.1378750    -2.0050800    -0.0000100
  H       -2.5173940    -0.5355380     0.8864280
  H       -2.5554930     0.9924890    -0.0004510
  H       -2.5174040    -0.5363680    -0.8859050
  H       -0.0216830     2.1883360     0.0002760
  H        2.3089220    -1.2898710     0.0005270
units angstrom
no_reorient  #important for SAPT in psi4, default
symmetry c1  #important for SAPT in psi4, default
}

set PROPERTIES_ORIGIN ["COM"]
properties('MP2/aug-cc-pvtz', properties = ['dipole'])
--------------------------------------------------------------------------

    Molecular point group: c1
  Charge       = 0
  Multiplicity = 1
  Basis Set: AUG-CC-PVTZ
    Blend: AUG-CC-PVTZ
  Basis Set: (AUG-CC-PVTZ AUX)
    Blend: AUG-CC-PVTZ-JKFIT

    Orbital Energies [Eh]
    ---------------------

    Doubly Occupied:

       1A    -15.616156     2A    -15.542213     3A    -11.295871
       4A    -11.264540     5A    -11.240961     6A    -11.235956
       7A     -1.330207     8A     -1.158677     9A     -1.045385
      10A     -0.939063    11A     -0.821010    12A     -0.786069
      13A     -0.720706    14A     -0.616896    15A     -0.612860
      16A     -0.574728    17A     -0.561839    18A     -0.556183
      19A     -0.545104    20A     -0.432394    21A     -0.393856
      22A     -0.311047

  @DF-RHF Final Energy:  -263.94811555004407

   => Energetics <=

    Nuclear Repulsion Energy =            223.6603329073286659
    One-Electron Energy =                -800.0134560883960830
    Two-Electron Energy =                 312.4050076310233521
    Total Energy =                       -263.9481155500440650
  Basis Set: (AUG-CC-PVTZ AUX)
    Blend: AUG-CC-PVTZ-RI
    Molecular point group: c1

    Geometry (in Angstrom), charge = 0, multiplicity = 1:

       Center              X                  Y                   Z               Mass
    ------------   -----------------  -----------------  -----------------  -----------------
         N            0.105783859326    -1.058638573701     0.006625276597    14.003074004430
         N            1.474054859326     0.695989426299     0.006035276597    14.003074004430
         C           -0.716526040674     0.076138526299    -0.038760523403    12.000000000000
         C           -2.202599140674    -0.034669573701     0.006667276597    12.000000000000
         C            0.162747859326     1.116826426299     0.006859276597    12.000000000000
         C            1.402796859326    -0.626415573701     0.007036276597    12.000000000000
         H           -0.203384140674    -2.023112573701     0.006640276597     1.007825032230
         H           -2.582903140674    -0.553570573701     0.893078276597     1.007825032230
         H           -2.621002140674     0.974456426299     0.006199276597     1.007825032230
         H           -2.582913140674    -0.554400573701    -0.879254723403     1.007825032230
         H           -0.087192140674     2.170303426299     0.006926276597     1.007825032230
         H            2.243412859326    -1.307903573701     0.007177276597     1.007825032230

  Basis Set: AUG-CC-PVTZ
    Blend: AUG-CC-PVTZ
  Basis Set: (AUG-CC-PVTZ AUX)
    Blend: AUG-CC-PVTZ-JKFIT
	 Reference Energy          =    -263.9481155500440650 [Eh]
	 Singles Energy            =      -0.0000000000000000 [Eh]
	 Same-Spin Energy          =      -0.2864112645885865 [Eh]
	 Opposite-Spin Energy      =      -0.8967513010005799 [Eh]
	 Correlation Energy        =      -1.1831625655891664 [Eh]
	 Total Energy              =    -265.1312781156332221 [Eh]

	 ================> DF-SCS-MP2 Energies <==================
	-----------------------------------------------------------
	 SCS Same-Spin Scale       =       0.3333333333333333 [-]
	 SCS Opposite-Spin Scale   =       1.2000000000000000 [-]
	 SCS Same-Spin Energy      =      -0.0954704215295288 [Eh]
	 SCS Opposite-Spin Energy  =      -1.0761015612006959 [Eh]
	 SCS Correlation Energy    =      -1.1715719827302247 [Eh]
	 SCS Total Energy          =    -265.1196875327742646 [Eh]
	-----------------------------------------------------------

  Dipole Moment: [D]
     X:    -2.7927      Y:    -2.9554      Z:     0.0233     Total:     4.0662

*** Psi4 exiting successfully. Buy a developer a beer!
