                               Psi4 1.3.2 release

  ==> Input File <==

--------------------------------------------------------------------------
#psi4
#
memory 32 gb

molecule  {
0 1
  N        0.0508317    -1.1202359    -0.0000228
  N        1.5395640     0.7140220    -0.0006150
  C       -0.6486520     0.0688480    -0.0000100
  C       -2.1370900    -0.0166370     0.0000170
  C        0.2282570     1.1348590     0.0002090
  C        1.4683060    -0.6083830     0.0003860
  H       -0.1378750    -2.0050800    -0.0000100
  H       -2.5173940    -0.5355380     0.8864280
  H       -2.5554930     0.9924890    -0.0004510
  H       -2.5174040    -0.5363680    -0.8859050
  H       -0.0216830     2.1883360     0.0002760
  H        2.3089220    -1.2898710     0.0005270
units angstrom
no_reorient  #important for SAPT in psi4, default
symmetry c1  #important for SAPT in psi4, default
}

set PROPERTIES_ORIGIN ["COM"]
properties('MP2/aug-cc-pvtz', properties = ['dipole'])
--------------------------------------------------------------------------

    Molecular point group: c1
  Charge       = 0
  Multiplicity = 1
  Basis Set: AUG-CC-PVTZ
    Blend: AUG-CC-PVTZ
  Basis Set: (AUG-CC-PVTZ AUX)
    Blend: AUG-CC-PVTZ-JKFIT

    Orbital Energies [Eh]
    ---------------------

    Doubly Occupied:

       1A    -15.607062     2A    -15.560676     3A    -11.307634
       4A    -11.276460     5A    -11.238840     6A    -11.237433
       7A     -1.311763     8A     -1.179455     9A     -1.038286
      10A     -0.934933    11A     -0.846828    12A     -0.782974
      13A     -0.702875    14A     -0.643516    15A     -0.607641
      16A     -0.565560    17A     -0.563506    18A     -0.545896
      19A     -0.535399    20A     -0.441931    21A     -0.407349
      22A     -0.303834

  @DF-RHF Final Energy:  -263.91747745155379

   => Energetics <=

    Nuclear Repulsion Energy =            221.8972188399695256
    One-Electron Energy =                -796.3496894124014034
    Two-Electron Energy =                 310.5349931208780276
    Total Energy =                       -263.9174774515537933
  Basis Set: (AUG-CC-PVTZ AUX)
    Blend: AUG-CC-PVTZ-RI
    Molecular point group: c1

    Geometry (in Angstrom), charge = 0, multiplicity = 1:

       Center              X                  Y                   Z               Mass
    ------------   -----------------  -----------------  -----------------  -----------------
         N            0.005534467650    -1.120975518118    -0.000012618886    14.003074004430
         N            1.494266767650     0.713282381882    -0.000604818886    14.003074004430
         C           -0.693949232350     0.068108381882     0.000000181114    12.000000000000
         C           -2.182387232350    -0.017376618118     0.000027181114    12.000000000000
         C            0.182959767650     1.134119381882     0.000219181114    12.000000000000
         C            1.423008767650    -0.609122618118     0.000396181114    12.000000000000
         H           -0.183172232350    -2.005819618118     0.000000181114     1.007825032230
         H           -2.562691232350    -0.536277618118     0.886438181114     1.007825032230
         H           -2.600790232350     0.991749381882    -0.000440818886     1.007825032230
         H           -2.562701232350    -0.537107618118    -0.885894818886     1.007825032230
         H           -0.066980232350     2.187596381882     0.000286181114     1.007825032230
         H            2.263624767650    -1.290610618118     0.000537181114     1.007825032230

  Basis Set: AUG-CC-PVTZ
    Blend: AUG-CC-PVTZ
  Basis Set: (AUG-CC-PVTZ AUX)
    Blend: AUG-CC-PVTZ-JKFIT
	 Reference Energy          =    -263.9174774515537933 [Eh]
	 Singles Energy            =      -0.0000000000000000 [Eh]
	 Same-Spin Energy          =      -0.2865674387707323 [Eh]
	 Opposite-Spin Energy      =      -0.8995215307467512 [Eh]
	 Correlation Energy        =      -1.1860889695174834 [Eh]
	 Total Energy              =    -265.1035664210712639 [Eh]

	 ================> DF-SCS-MP2 Energies <==================
	-----------------------------------------------------------
	 SCS Same-Spin Scale       =       0.3333333333333333 [-]
	 SCS Opposite-Spin Scale   =       1.2000000000000000 [-]
	 SCS Same-Spin Energy      =      -0.0955224795902441 [Eh]
	 SCS Opposite-Spin Energy  =      -1.0794258368961014 [Eh]
	 SCS Correlation Energy    =      -1.1749483164863455 [Eh]
	 SCS Total Energy          =    -265.0924257680401297 [Eh]
	-----------------------------------------------------------

  Dipole Moment: [D]
     X:    -2.4868      Y:    -2.6427      Z:     0.0013     Total:     3.6288

*** Psi4 exiting successfully. Buy a developer a beer!
