                               Psi4 1.3.2 release

  ==> Input File <==

--------------------------------------------------------------------------
#psi4
#
memory 32 gb

molecule  {
0 1
  N        0.1712930    -1.0406060    -0.0000250
  N        1.5395640     0.7140220    -0.0006150
  C       -0.6486520     0.0688480    -0.0000100
  C       -2.1378718     0.1394154     0.0000531
  C        0.2282570     1.1348590     0.0002090
  C        1.4683060    -0.6083830     0.0003860
  H       -0.1378750    -2.0050800    -0.0000100
  H       -2.5173940    -0.5355380     0.8864280
  H       -2.5554930     0.9924890    -0.0004510
  H       -2.5174040    -0.5363680    -0.8859050
  H       -0.0216830     2.1883360     0.0002760
  H        2.3089220    -1.2898710     0.0005270
units angstrom
no_reorient  #important for SAPT in psi4, default
symmetry c1  #important for SAPT in psi4, default
}

set PROPERTIES_ORIGIN ["COM"]
properties('MP2/aug-cc-pvtz', properties = ['dipole'])
--------------------------------------------------------------------------

    Molecular point group: c1
  Charge       = 0
  Multiplicity = 1
  Basis Set: AUG-CC-PVTZ
    Blend: AUG-CC-PVTZ
  Basis Set: (AUG-CC-PVTZ AUX)
    Blend: AUG-CC-PVTZ-JKFIT

    Orbital Energies [Eh]
    ---------------------

    Doubly Occupied:

       1A    -15.622302     2A    -15.542946     3A    -11.294622
       4A    -11.267203     5A    -11.245955     6A    -11.233244
       7A     -1.334897     8A     -1.161738     9A     -1.048078
      10A     -0.939537    11A     -0.822128    12A     -0.792141
      13A     -0.725835    14A     -0.632390    15A     -0.606671
      16A     -0.594773    17A     -0.561988    18A     -0.552113
      19A     -0.526769    20A     -0.429866    21A     -0.396147
      22A     -0.303272

  @DF-RHF Final Energy:  -263.91910776944223

   => Energetics <=

    Nuclear Repulsion Energy =            223.7451775896659285
    One-Electron Energy =                -800.0593392757976972
    Two-Electron Energy =                 312.3950539166895624
    Total Energy =                       -263.9191077694422347
  Basis Set: (AUG-CC-PVTZ AUX)
    Blend: AUG-CC-PVTZ-RI
    Molecular point group: c1

    Geometry (in Angstrom), charge = 0, multiplicity = 1:

       Center              X                  Y                   Z               Mass
    ------------   -----------------  -----------------  -----------------  -----------------
         N            0.105552336076    -1.077757310645    -0.000019722945    14.003074004430
         N            1.473823336076     0.676870689355    -0.000609722945    14.003074004430
         C           -0.714392663924     0.031696689355    -0.000004722945    12.000000000000
         C           -2.203612463924     0.102264089355     0.000058377055    12.000000000000
         C            0.162516336076     1.097707689355     0.000214277055    12.000000000000
         C            1.402565336076    -0.645534310645     0.000391277055    12.000000000000
         H           -0.203615663924    -2.042231310645    -0.000004722945     1.007825032230
         H           -2.583134663924    -0.572689310645     0.886433277055     1.007825032230
         H           -2.621233663924     0.955337689355    -0.000445722945     1.007825032230
         H           -2.583144663924    -0.573519310645    -0.885899722945     1.007825032230
         H           -0.087423663924     2.151184689355     0.000281277055     1.007825032230
         H            2.243181336076    -1.327022310645     0.000532277055     1.007825032230

  Basis Set: AUG-CC-PVTZ
    Blend: AUG-CC-PVTZ
  Basis Set: (AUG-CC-PVTZ AUX)
    Blend: AUG-CC-PVTZ-JKFIT
	 Reference Energy          =    -263.9191077694422347 [Eh]
	 Singles Energy            =      -0.0000000000000000 [Eh]
	 Same-Spin Energy          =      -0.2869667724331832 [Eh]
	 Opposite-Spin Energy      =      -0.8977704997242707 [Eh]
	 Correlation Energy        =      -1.1847372721574541 [Eh]
	 Total Energy              =    -265.1038450415996977 [Eh]

	 ================> DF-SCS-MP2 Energies <==================
	-----------------------------------------------------------
	 SCS Same-Spin Scale       =       0.3333333333333333 [-]
	 SCS Opposite-Spin Scale   =       1.2000000000000000 [-]
	 SCS Same-Spin Energy      =      -0.0956555908110611 [Eh]
	 SCS Opposite-Spin Energy  =      -1.0773245996691247 [Eh]
	 SCS Correlation Energy    =      -1.1729801904801858 [Eh]
	 SCS Total Energy          =    -265.0920879599224236 [Eh]
	-----------------------------------------------------------

  Dipole Moment: [D]
     X:    -2.7850      Y:    -2.9622      Z:     0.0014     Total:     4.0658

*** Psi4 exiting successfully. Buy a developer a beer!
