                               Psi4 1.3.2 release

  ==> Input File <==

--------------------------------------------------------------------------
#psi4
#
memory 32 gb

molecule  {
0 1
  N        0.1712930    -1.0406060    -0.0000250
  N        1.5395640     0.7140220    -0.0006150
  C       -0.6493632     0.0179203     0.0907364
  C       -2.1370900    -0.0166370     0.0000170
  C        0.2282570     1.1348590     0.0002090
  C        1.4683060    -0.6083830     0.0003860
  H       -0.1378750    -2.0050800    -0.0000100
  H       -2.5173940    -0.5355380     0.8864280
  H       -2.5554930     0.9924890    -0.0004510
  H       -2.5174040    -0.5363680    -0.8859050
  H       -0.0216830     2.1883360     0.0002760
  H        2.3089220    -1.2898710     0.0005270
units angstrom
no_reorient  #important for SAPT in psi4, default
symmetry c1  #important for SAPT in psi4, default
}

set PROPERTIES_ORIGIN ["COM"]
properties('MP2/aug-cc-pvtz', properties = ['dipole'])
--------------------------------------------------------------------------

    Molecular point group: c1
  Charge       = 0
  Multiplicity = 1
  Basis Set: AUG-CC-PVTZ
    Blend: AUG-CC-PVTZ
  Basis Set: (AUG-CC-PVTZ AUX)
    Blend: AUG-CC-PVTZ-JKFIT

    Orbital Energies [Eh]
    ---------------------

    Doubly Occupied:

       1A    -15.623268     2A    -15.545790     3A    -11.290723
       4A    -11.267876     5A    -11.241653     6A    -11.238590
       7A     -1.341239     8A     -1.168033     9A     -1.040725
      10A     -0.934896    11A     -0.822582    12A     -0.794859
      13A     -0.720664    14A     -0.619840    15A     -0.617349
      16A     -0.574169    17A     -0.561185    18A     -0.553575
      19A     -0.550704    20A     -0.431276    21A     -0.398857
      22A     -0.297843

  @DF-RHF Final Energy:  -263.94176802893276

   => Energetics <=

    Nuclear Repulsion Energy =            223.7840916839562055
    One-Electron Energy =                -800.1803228447462288
    Two-Electron Energy =                 312.4544631318572101
    Total Energy =                       -263.9417680289327564
  Basis Set: (AUG-CC-PVTZ AUX)
    Blend: AUG-CC-PVTZ-RI
    Molecular point group: c1

    Geometry (in Angstrom), charge = 0, multiplicity = 1:

       Center              X                  Y                   Z               Mass
    ------------   -----------------  -----------------  -----------------  -----------------
         N            0.105542011054    -1.047487141030    -0.013285810684    14.003074004430
         N            1.473813011054     0.707140858970    -0.013875810684    14.003074004430
         C           -0.715114188946     0.011039158970     0.077475589316    12.000000000000
         C           -2.202840988946    -0.023518141030    -0.013243810684    12.000000000000
         C            0.162506011054     1.127977858970    -0.013051810684    12.000000000000
         C            1.402555011054    -0.615264141030    -0.012874810684    12.000000000000
         H           -0.203625988946    -2.011961141030    -0.013270810684     1.007825032230
         H           -2.583144988946    -0.542419141030     0.873167189316     1.007825032230
         H           -2.621243988946     0.985607858970    -0.013711810684     1.007825032230
         H           -2.583154988946    -0.543249141030    -0.899165810684     1.007825032230
         H           -0.087433988946     2.181454858970    -0.012984810684     1.007825032230
         H            2.243171011054    -1.296752141030    -0.012733810684     1.007825032230

  Basis Set: AUG-CC-PVTZ
    Blend: AUG-CC-PVTZ
  Basis Set: (AUG-CC-PVTZ AUX)
    Blend: AUG-CC-PVTZ-JKFIT
	 Reference Energy          =    -263.9417680289327564 [Eh]
	 Singles Energy            =      -0.0000000000000000 [Eh]
	 Same-Spin Energy          =      -0.2878369391282923 [Eh]
	 Opposite-Spin Energy      =      -0.8981743652492331 [Eh]
	 Correlation Energy        =      -1.1860113043775256 [Eh]
	 Total Energy              =    -265.1277793333102863 [Eh]

	 ================> DF-SCS-MP2 Energies <==================
	-----------------------------------------------------------
	 SCS Same-Spin Scale       =       0.3333333333333333 [-]
	 SCS Opposite-Spin Scale   =       1.2000000000000000 [-]
	 SCS Same-Spin Energy      =      -0.0959456463760974 [Eh]
	 SCS Opposite-Spin Energy  =      -1.0778092382990796 [Eh]
	 SCS Correlation Energy    =      -1.1737548846751771 [Eh]
	 SCS Total Energy          =    -265.1155229136079470 [Eh]
	-----------------------------------------------------------

  Dipole Moment: [D]
     X:    -2.7931      Y:    -3.0442      Z:    -0.0438     Total:     4.1316

*** Psi4 exiting successfully. Buy a developer a beer!
