                               Psi4 1.3.2 release

  ==> Input File <==

--------------------------------------------------------------------------
#psi4
#
memory 32 gb

molecule  {
0 1
  N        0.1712930    -1.0406060    -0.0000250
  N        1.5395640     0.7140220    -0.0006150
  C       -0.6551924     0.1193592    -0.0907562
  C       -2.1370900    -0.0166370     0.0000170
  C        0.2282570     1.1348590     0.0002090
  C        1.4683060    -0.6083830     0.0003860
  H       -0.1378750    -2.0050800    -0.0000100
  H       -2.5173940    -0.5355380     0.8864280
  H       -2.5554930     0.9924890    -0.0004510
  H       -2.5174040    -0.5363680    -0.8859050
  H       -0.0216830     2.1883360     0.0002760
  H        2.3089220    -1.2898710     0.0005270
units angstrom
no_reorient  #important for SAPT in psi4, default
symmetry c1  #important for SAPT in psi4, default
}

set PROPERTIES_ORIGIN ["COM"]
properties('MP2/aug-cc-pvtz', properties = ['dipole'])
--------------------------------------------------------------------------

    Molecular point group: c1
  Charge       = 0
  Multiplicity = 1
  Basis Set: AUG-CC-PVTZ
    Blend: AUG-CC-PVTZ
  Basis Set: (AUG-CC-PVTZ AUX)
    Blend: AUG-CC-PVTZ-JKFIT

    Orbital Energies [Eh]
    ---------------------

    Doubly Occupied:

       1A    -15.613724     2A    -15.541377     3A    -11.298041
       4A    -11.264198     5A    -11.240760     6A    -11.236596
       7A     -1.326200     8A     -1.155394     9A     -1.047021
      10A     -0.940406    11A     -0.820429    12A     -0.782440
      13A     -0.720375    14A     -0.615877    15A     -0.610498
      16A     -0.579670    17A     -0.562049    18A     -0.554733
      19A     -0.538397    20A     -0.432911    21A     -0.392246
      22A     -0.315164

  @DF-RHF Final Energy:  -263.94442654646826

   => Energetics <=

    Nuclear Repulsion Energy =            223.4780555547721690
    One-Electron Energy =                -799.6679547984127794
    Two-Electron Energy =                 312.2454726971723744
    Total Energy =                       -263.9444265464682644
  Basis Set: (AUG-CC-PVTZ AUX)
    Blend: AUG-CC-PVTZ-RI
    Molecular point group: c1

    Geometry (in Angstrom), charge = 0, multiplicity = 1:

       Center              X                  Y                   Z               Mass
    ------------   -----------------  -----------------  -----------------  -----------------
         N            0.106394512685    -1.062322251790     0.013256894561    14.003074004430
         N            1.474665512685     0.692305748210     0.012666894561    14.003074004430
         C           -0.720090887315     0.097642948210    -0.077474305439    12.000000000000
         C           -2.201988487315    -0.038353251790     0.013298894561    12.000000000000
         C            0.163358512685     1.113142748210     0.013490894561    12.000000000000
         C            1.403407512685    -0.630099251790     0.013667894561    12.000000000000
         H           -0.202773487315    -2.026796251790     0.013271894561     1.007825032230
         H           -2.582292487315    -0.557254251790     0.899709894561     1.007825032230
         H           -2.620391487315     0.970772748210     0.012830894561     1.007825032230
         H           -2.582302487315    -0.558084251790    -0.872623105439     1.007825032230
         H           -0.086581487315     2.166619748210     0.013557894561     1.007825032230
         H            2.244023512685    -1.311587251790     0.013808894561     1.007825032230

  Basis Set: AUG-CC-PVTZ
    Blend: AUG-CC-PVTZ
  Basis Set: (AUG-CC-PVTZ AUX)
    Blend: AUG-CC-PVTZ-JKFIT
	 Reference Energy          =    -263.9444265464682644 [Eh]
	 Singles Energy            =      -0.0000000000000000 [Eh]
	 Same-Spin Energy          =      -0.2861509548091757 [Eh]
	 Opposite-Spin Energy      =      -0.8967825926065783 [Eh]
	 Correlation Energy        =      -1.1829335474157541 [Eh]
	 Total Energy              =    -265.1273600938840218 [Eh]

	 ================> DF-SCS-MP2 Energies <==================
	-----------------------------------------------------------
	 SCS Same-Spin Scale       =       0.3333333333333333 [-]
	 SCS Opposite-Spin Scale   =       1.2000000000000000 [-]
	 SCS Same-Spin Energy      =      -0.0953836516030586 [Eh]
	 SCS Opposite-Spin Energy  =      -1.0761391111278940 [Eh]
	 SCS Correlation Energy    =      -1.1715227627309526 [Eh]
	 SCS Total Energy          =    -265.1159493091992090 [Eh]
	-----------------------------------------------------------

  Dipole Moment: [D]
     X:    -2.7735      Y:    -2.9151      Z:     0.0455     Total:     4.0240

*** Psi4 exiting successfully. Buy a developer a beer!
