                               Psi4 1.3.2 release

  ==> Input File <==

--------------------------------------------------------------------------
#psi4
#
memory 32 gb

molecule  {
0 1
  N        0.1905308    -1.0261270    -0.0000253
  N        1.5395640     0.7140220    -0.0006150
  C       -0.6486520     0.0688480    -0.0000100
  C       -2.1370900    -0.0166370     0.0000170
  C        0.2282570     1.1348590     0.0002090
  C        1.4683060    -0.6083830     0.0003860
  H       -0.1378750    -2.0050800    -0.0000100
  H       -2.5173940    -0.5355380     0.8864280
  H       -2.5554930     0.9924890    -0.0004510
  H       -2.5174040    -0.5363680    -0.8859050
  H       -0.0216830     2.1883360     0.0002760
  H        2.3089220    -1.2898710     0.0005270
units angstrom
no_reorient  #important for SAPT in psi4, default
symmetry c1  #important for SAPT in psi4, default
}

set PROPERTIES_ORIGIN ["COM"]
properties('MP2/aug-cc-pvtz', properties = ['dipole'])
--------------------------------------------------------------------------

    Molecular point group: c1
  Charge       = 0
  Multiplicity = 1
  Basis Set: AUG-CC-PVTZ
    Blend: AUG-CC-PVTZ
  Basis Set: (AUG-CC-PVTZ AUX)
    Blend: AUG-CC-PVTZ-JKFIT

    Orbital Energies [Eh]
    ---------------------

    Doubly Occupied:

       1A    -15.620371     2A    -15.540222     3A    -11.291406
       4A    -11.263642     5A    -11.241819     6A    -11.235782
       7A     -1.339204     8A     -1.159041     9A     -1.045550
      10A     -0.938580    11A     -0.817973    12A     -0.790224
      13A     -0.723419    14A     -0.616807    15A     -0.613578
      16A     -0.572772    17A     -0.561417    18A     -0.559551
      19A     -0.549414    20A     -0.430011    21A     -0.393634
      22A     -0.307279

  @DF-RHF Final Energy:  -263.94812830592502

   => Energetics <=

    Nuclear Repulsion Energy =            224.1336529076560566
    One-Electron Energy =                -800.9401748042976124
    Two-Electron Energy =                 312.8583935907165596
    Total Energy =                       -263.9481283059250245
  Basis Set: (AUG-CC-PVTZ AUX)
    Blend: AUG-CC-PVTZ-RI
    Molecular point group: c1

    Geometry (in Angstrom), charge = 0, multiplicity = 1:

       Center              X                  Y                   Z               Mass
    ------------   -----------------  -----------------  -----------------  -----------------
         N            0.121392702667    -1.042927119428    -0.000014692239    14.003074004430
         N            1.470425902667     0.697221880572    -0.000604392239    14.003074004430
         C           -0.717790097333     0.052047880572     0.000000607761    12.000000000000
         C           -2.206228097333    -0.033437119428     0.000027607761    12.000000000000
         C            0.159118902667     1.118058880572     0.000219607761    12.000000000000
         C            1.399167902667    -0.625183119428     0.000396607761    12.000000000000
         H           -0.207013097333    -2.021880119428     0.000000607761     1.007825032230
         H           -2.586532097333    -0.552338119428     0.886438607761     1.007825032230
         H           -2.624631097333     0.975688880572    -0.000440392239     1.007825032230
         H           -2.586542097333    -0.553168119428    -0.885894392239     1.007825032230
         H           -0.090821097333     2.171535880572     0.000286607761     1.007825032230
         H            2.239783902667    -1.306671119428     0.000537607761     1.007825032230

  Basis Set: AUG-CC-PVTZ
    Blend: AUG-CC-PVTZ
  Basis Set: (AUG-CC-PVTZ AUX)
    Blend: AUG-CC-PVTZ-JKFIT
	 Reference Energy          =    -263.9481283059250245 [Eh]
	 Singles Energy            =      -0.0000000000000000 [Eh]
	 Same-Spin Energy          =      -0.2869418321122068 [Eh]
	 Opposite-Spin Energy      =      -0.8968573170579845 [Eh]
	 Correlation Energy        =      -1.1837991491701914 [Eh]
	 Total Energy              =    -265.1319274550951945 [Eh]

	 ================> DF-SCS-MP2 Energies <==================
	-----------------------------------------------------------
	 SCS Same-Spin Scale       =       0.3333333333333333 [-]
	 SCS Opposite-Spin Scale   =       1.2000000000000000 [-]
	 SCS Same-Spin Energy      =      -0.0956472773707356 [Eh]
	 SCS Opposite-Spin Energy  =      -1.0762287804695814 [Eh]
	 SCS Correlation Energy    =      -1.1718760578403169 [Eh]
	 SCS Total Energy          =    -265.1200043637653607 [Eh]
	-----------------------------------------------------------

  Dipole Moment: [D]
     X:    -2.8457      Y:    -3.0450      Z:     0.0013     Total:     4.1678

*** Psi4 exiting successfully. Buy a developer a beer!
