                               Psi4 1.3.2 release

  ==> Input File <==

--------------------------------------------------------------------------
#psi4
#
memory 32 gb

molecule  {
0 1
  N        0.1712930    -1.0406060    -0.0000250
  N        1.5395640     0.7140220    -0.0006150
  C       -0.6486520     0.0688480    -0.0000100
  C       -2.1353714    -0.0426008     0.0000109
  C        0.2282570     1.1348590     0.0002090
  C        1.4683060    -0.6083830     0.0003860
  H       -0.1378750    -2.0050800    -0.0000100
  H       -2.5173940    -0.5355380     0.8864280
  H       -2.5554930     0.9924890    -0.0004510
  H       -2.5174040    -0.5363680    -0.8859050
  H       -0.0216830     2.1883360     0.0002760
  H        2.3089220    -1.2898710     0.0005270
units angstrom
no_reorient  #important for SAPT in psi4, default
symmetry c1  #important for SAPT in psi4, default
}

set PROPERTIES_ORIGIN ["COM"]
properties('MP2/aug-cc-pvtz', properties = ['dipole'])
--------------------------------------------------------------------------

    Molecular point group: c1
  Charge       = 0
  Multiplicity = 1
  Basis Set: AUG-CC-PVTZ
    Blend: AUG-CC-PVTZ
  Basis Set: (AUG-CC-PVTZ AUX)
    Blend: AUG-CC-PVTZ-JKFIT

    Orbital Energies [Eh]
    ---------------------

    Doubly Occupied:

       1A    -15.618060     2A    -15.543385     3A    -11.293871
       4A    -11.265364     5A    -11.241178     6A    -11.236700
       7A     -1.334137     8A     -1.162071     9A     -1.043413
      10A     -0.937922    11A     -0.821624    12A     -0.789236
      13A     -0.720983    14A     -0.617518    15A     -0.616325
      16A     -0.572185    17A     -0.561967    18A     -0.561548
      19A     -0.541468    20A     -0.432297    21A     -0.395514
      22A     -0.307294

  @DF-RHF Final Energy:  -263.94808523361348

   => Energetics <=

    Nuclear Repulsion Energy =            223.7905898969326870
    One-Electron Energy =                -800.2492335839893940
    Two-Electron Energy =                 312.5105584534431955
    Total Energy =                       -263.9480852336134831
  Basis Set: (AUG-CC-PVTZ AUX)
    Blend: AUG-CC-PVTZ-RI
    Molecular point group: c1

    Geometry (in Angstrom), charge = 0, multiplicity = 1:

       Center              X                  Y                   Z               Mass
    ------------   -----------------  -----------------  -----------------  -----------------
         N            0.105186660670    -1.051138030595    -0.000013551332    14.003074004430
         N            1.473457660670     0.703489969405    -0.000603551332    14.003074004430
         C           -0.714758339330     0.058315969405     0.000001448668    12.000000000000
         C           -2.201477739330    -0.053132830595     0.000022348668    12.000000000000
         C            0.162150660670     1.124326969405     0.000220448668    12.000000000000
         C            1.402199660670    -0.618915030595     0.000397448668    12.000000000000
         H           -0.203981339330    -2.015612030595     0.000001448668     1.007825032230
         H           -2.583500339330    -0.546070030595     0.886439448668     1.007825032230
         H           -2.621599339330     0.981956969405    -0.000439551332     1.007825032230
         H           -2.583510339330    -0.546900030595    -0.885893551332     1.007825032230
         H           -0.087789339330     2.177803969405     0.000287448668     1.007825032230
         H            2.242815660670    -1.300403030595     0.000538448668     1.007825032230

  Basis Set: AUG-CC-PVTZ
    Blend: AUG-CC-PVTZ
  Basis Set: (AUG-CC-PVTZ AUX)
    Blend: AUG-CC-PVTZ-JKFIT
	 Reference Energy          =    -263.9480852336134831 [Eh]
	 Singles Energy            =      -0.0000000000000000 [Eh]
	 Same-Spin Energy          =      -0.2868413129664258 [Eh]
	 Opposite-Spin Energy      =      -0.8971021087349434 [Eh]
	 Correlation Energy        =      -1.1839434217013691 [Eh]
	 Total Energy              =    -265.1320286553148549 [Eh]

	 ================> DF-SCS-MP2 Energies <==================
	-----------------------------------------------------------
	 SCS Same-Spin Scale       =       0.3333333333333333 [-]
	 SCS Opposite-Spin Scale   =       1.2000000000000000 [-]
	 SCS Same-Spin Energy      =      -0.0956137709888086 [Eh]
	 SCS Opposite-Spin Energy  =      -1.0765225304819321 [Eh]
	 SCS Correlation Energy    =      -1.1721363014707407 [Eh]
	 SCS Total Energy          =    -265.1202215350842266 [Eh]
	-----------------------------------------------------------

  Dipole Moment: [D]
     X:    -2.7973      Y:    -2.9971      Z:     0.0013     Total:     4.0997

*** Psi4 exiting successfully. Buy a developer a beer!
