                               Psi4 1.3.2 release

  ==> Input File <==

--------------------------------------------------------------------------
#psi4
#
memory 32 gb

molecule  {
0 1
  N        0.1712930    -1.0406060    -0.0000250
  N        1.5395640     0.7140220    -0.0006150
  C       -0.6486520     0.0688480    -0.0000100
  C       -2.1391667     0.0353608     0.0000291
  C        0.2282570     1.1348590     0.0002090
  C        1.4683060    -0.6083830     0.0003860
  H       -0.1378750    -2.0050800    -0.0000100
  H       -2.5173940    -0.5355380     0.8864280
  H       -2.5554930     0.9924890    -0.0004510
  H       -2.5174040    -0.5363680    -0.8859050
  H       -0.0216830     2.1883360     0.0002760
  H        2.3089220    -1.2898710     0.0005270
units angstrom
no_reorient  #important for SAPT in psi4, default
symmetry c1  #important for SAPT in psi4, default
}

set PROPERTIES_ORIGIN ["COM"]
properties('MP2/aug-cc-pvtz', properties = ['dipole'])
--------------------------------------------------------------------------

    Molecular point group: c1
  Charge       = 0
  Multiplicity = 1
  Basis Set: AUG-CC-PVTZ
    Blend: AUG-CC-PVTZ
  Basis Set: (AUG-CC-PVTZ AUX)
    Blend: AUG-CC-PVTZ-JKFIT

    Orbital Energies [Eh]
    ---------------------

    Doubly Occupied:

       1A    -15.619645     2A    -15.543028     3A    -11.294018
       4A    -11.265494     5A    -11.241903     6A    -11.235009
       7A     -1.334214     8A     -1.161688     9A     -1.044783
      10A     -0.937563    11A     -0.821616    12A     -0.790011
      13A     -0.721238    14A     -0.621468    15A     -0.610919
      16A     -0.571559    17A     -0.562645    18A     -0.559753
      19A     -0.548170    20A     -0.431296    21A     -0.395596
      22A     -0.305577

  @DF-RHF Final Energy:  -263.94616783071331

   => Energetics <=

    Nuclear Repulsion Energy =            223.7469526223484309
    One-Electron Energy =                -800.1518554198012225
    Two-Electron Energy =                 312.4587349667394847
    Total Energy =                       -263.9461678307133070
  Basis Set: (AUG-CC-PVTZ AUX)
    Blend: AUG-CC-PVTZ-RI
    Molecular point group: c1

    Geometry (in Angstrom), charge = 0, multiplicity = 1:

       Center              X                  Y                   Z               Mass
    ------------   -----------------  -----------------  -----------------  -----------------
         N            0.105741711009    -1.062539662228    -0.000016213023    14.003074004430
         N            1.474012711009     0.692088337772    -0.000606213023    14.003074004430
         C           -0.714203288991     0.046914337772    -0.000001213023    12.000000000000
         C           -2.204717988991     0.013427137772     0.000037886977    12.000000000000
         C            0.162705711009     1.112925337772     0.000217786977    12.000000000000
         C            1.402754711009    -0.630316662228     0.000394786977    12.000000000000
         H           -0.203426288991    -2.027013662228    -0.000001213023     1.007825032230
         H           -2.582945288991    -0.557471662228     0.886436786977     1.007825032230
         H           -2.621044288991     0.970555337772    -0.000442213023     1.007825032230
         H           -2.582955288991    -0.558301662228    -0.885896213023     1.007825032230
         H           -0.087234288991     2.166402337772     0.000284786977     1.007825032230
         H            2.243370711009    -1.311804662228     0.000535786977     1.007825032230

  Basis Set: AUG-CC-PVTZ
    Blend: AUG-CC-PVTZ
  Basis Set: (AUG-CC-PVTZ AUX)
    Blend: AUG-CC-PVTZ-JKFIT
	 Reference Energy          =    -263.9461678307133070 [Eh]
	 Singles Energy            =      -0.0000000000000000 [Eh]
	 Same-Spin Energy          =      -0.2867340286969514 [Eh]
	 Opposite-Spin Energy      =      -0.8969236155589166 [Eh]
	 Correlation Energy        =      -1.1836576442558679 [Eh]
	 Total Energy              =    -265.1298254749691523 [Eh]

	 ================> DF-SCS-MP2 Energies <==================
	-----------------------------------------------------------
	 SCS Same-Spin Scale       =       0.3333333333333333 [-]
	 SCS Opposite-Spin Scale   =       1.2000000000000000 [-]
	 SCS Same-Spin Energy      =      -0.0955780095656505 [Eh]
	 SCS Opposite-Spin Energy  =      -1.0763083386707000 [Eh]
	 SCS Correlation Energy    =      -1.1718863482363504 [Eh]
	 SCS Total Energy          =    -265.1180541789496488 [Eh]
	-----------------------------------------------------------

  Dipole Moment: [D]
     X:    -2.8083      Y:    -2.9795      Z:     0.0013     Total:     4.0944

*** Psi4 exiting successfully. Buy a developer a beer!
