                               Psi4 1.3.2 release

  ==> Input File <==

--------------------------------------------------------------------------
#psi4
#
memory 32 gb

molecule  {
0 1
  N        0.2466873    -0.9807070    -0.0000264
  N        1.5395640     0.7140220    -0.0006150
  C       -0.6486520     0.0688480    -0.0000100
  C       -2.1370900    -0.0166370     0.0000170
  C        0.2282570     1.1348590     0.0002090
  C        1.4683060    -0.6083830     0.0003860
  H       -0.1378750    -2.0050800    -0.0000100
  H       -2.5173940    -0.5355380     0.8864280
  H       -2.5554930     0.9924890    -0.0004510
  H       -2.5174040    -0.5363680    -0.8859050
  H       -0.0216830     2.1883360     0.0002760
  H        2.3089220    -1.2898710     0.0005270
units angstrom
no_reorient  #important for SAPT in psi4, default
symmetry c1  #important for SAPT in psi4, default
}

set PROPERTIES_ORIGIN ["COM"]
properties('MP2/aug-cc-pvtz', properties = ['dipole'])
--------------------------------------------------------------------------

    Molecular point group: c1
  Charge       = 0
  Multiplicity = 1
  Basis Set: AUG-CC-PVTZ
    Blend: AUG-CC-PVTZ
  Basis Set: (AUG-CC-PVTZ AUX)
    Blend: AUG-CC-PVTZ-JKFIT

    Orbital Energies [Eh]
    ---------------------

    Doubly Occupied:

       1A    -15.625532     2A    -15.531236     3A    -11.283804
       4A    -11.259070     5A    -11.243665     6A    -11.235094
       7A     -1.357101     8A     -1.150783     9A     -1.052237
      10A     -0.942202    11A     -0.812088    12A     -0.787847
      13A     -0.730633    14A     -0.624125    15A     -0.602661
      16A     -0.579804    17A     -0.565680    18A     -0.560215
      19A     -0.543845    20A     -0.423811    21A     -0.388485
      22A     -0.308984

  @DF-RHF Final Energy:  -263.93394376642755

   => Energetics <=

    Nuclear Repulsion Energy =            225.3056836193654249
    One-Electron Energy =                -803.2614523912232016
    Two-Electron Energy =                 314.0218250054301734
    Total Energy =                       -263.9339437664275465
  Basis Set: (AUG-CC-PVTZ AUX)
    Blend: AUG-CC-PVTZ-RI
    Molecular point group: c1

    Geometry (in Angstrom), charge = 0, multiplicity = 1:

       Center              X                  Y                   Z               Mass
    ------------   -----------------  -----------------  -----------------  -----------------
         N            0.167965608110    -1.005258436992    -0.000015604515    14.003074004430
         N            1.460842308110     0.689470563008    -0.000604204515    14.003074004430
         C           -0.727373691890     0.044296563008     0.000000795485    12.000000000000
         C           -2.215811691890    -0.041188436992     0.000027795485    12.000000000000
         C            0.149535308110     1.110307563008     0.000219795485    12.000000000000
         C            1.389584308110    -0.632934436992     0.000396795485    12.000000000000
         H           -0.216596691890    -2.029631436992     0.000000795485     1.007825032230
         H           -2.596115691890    -0.560089436992     0.886438795485     1.007825032230
         H           -2.634214691890     0.967937563008    -0.000440204515     1.007825032230
         H           -2.596125691890    -0.560919436992    -0.885894204515     1.007825032230
         H           -0.100404691890     2.163784563008     0.000286795485     1.007825032230
         H            2.230200308110    -1.314422436992     0.000537795485     1.007825032230

  Basis Set: AUG-CC-PVTZ
    Blend: AUG-CC-PVTZ
  Basis Set: (AUG-CC-PVTZ AUX)
    Blend: AUG-CC-PVTZ-JKFIT
	 Reference Energy          =    -263.9339437664275465 [Eh]
	 Singles Energy            =      -0.0000000000000000 [Eh]
	 Same-Spin Energy          =      -0.2876158053324320 [Eh]
	 Opposite-Spin Energy      =      -0.8970360354009057 [Eh]
	 Correlation Energy        =      -1.1846518407333377 [Eh]
	 Total Energy              =    -265.1185956071608985 [Eh]

	 ================> DF-SCS-MP2 Energies <==================
	-----------------------------------------------------------
	 SCS Same-Spin Scale       =       0.3333333333333333 [-]
	 SCS Opposite-Spin Scale   =       1.2000000000000000 [-]
	 SCS Same-Spin Energy      =      -0.0958719351108107 [Eh]
	 SCS Opposite-Spin Energy  =      -1.0764432424810868 [Eh]
	 SCS Correlation Energy    =      -1.1723151775918974 [Eh]
	 SCS Total Energy          =    -265.1062589440194301 [Eh]
	-----------------------------------------------------------

  Dipole Moment: [D]
     X:    -2.9486      Y:    -3.1920      Z:     0.0013     Total:     4.3455

*** Psi4 exiting successfully. Buy a developer a beer!
