                               Psi4 1.3.2 release

  ==> Input File <==

--------------------------------------------------------------------------
#psi4
#
memory 32 gb

molecule  {
0 1
  N        0.1712930    -1.0406060    -0.0000250
  N        1.5395640     0.7140220    -0.0006150
  C       -0.6486520     0.0688480    -0.0000100
  C       -2.1200006    -0.1717528    -0.0000194
  C        0.2282570     1.1348590     0.0002090
  C        1.4683060    -0.6083830     0.0003860
  H       -0.1378750    -2.0050800    -0.0000100
  H       -2.5173940    -0.5355380     0.8864280
  H       -2.5554930     0.9924890    -0.0004510
  H       -2.5174040    -0.5363680    -0.8859050
  H       -0.0216830     2.1883360     0.0002760
  H        2.3089220    -1.2898710     0.0005270
units angstrom
no_reorient  #important for SAPT in psi4, default
symmetry c1  #important for SAPT in psi4, default
}

set PROPERTIES_ORIGIN ["COM"]
properties('MP2/aug-cc-pvtz', properties = ['dipole'])
--------------------------------------------------------------------------

    Molecular point group: c1
  Charge       = 0
  Multiplicity = 1
  Basis Set: AUG-CC-PVTZ
    Blend: AUG-CC-PVTZ
  Basis Set: (AUG-CC-PVTZ AUX)
    Blend: AUG-CC-PVTZ-JKFIT

    Orbital Energies [Eh]
    ---------------------

    Doubly Occupied:

       1A    -15.616144     2A    -15.544463     3A    -11.294116
       4A    -11.267046     5A    -11.244444     6A    -11.240043
       7A     -1.334777     8A     -1.163473     9A     -1.042827
      10A     -0.940491    11A     -0.822215    12A     -0.789474
      13A     -0.723147    14A     -0.635268    15A     -0.611468
      16A     -0.580415    17A     -0.575372    18A     -0.562817
      19A     -0.497333    20A     -0.433270    21A     -0.395940
      22A     -0.310159

  @DF-RHF Final Energy:  -263.92583312055376

   => Energetics <=

    Nuclear Repulsion Energy =            223.9157811543312846
    One-Electron Energy =                -800.4338266673858016
    Two-Electron Energy =                 312.5922123925007554
    Total Energy =                       -263.9258331205537615
  Basis Set: (AUG-CC-PVTZ AUX)
    Blend: AUG-CC-PVTZ-RI
    Molecular point group: c1

    Geometry (in Angstrom), charge = 0, multiplicity = 1:

       Center              X                  Y                   Z               Mass
    ------------   -----------------  -----------------  -----------------  -----------------
         N            0.102938730926    -1.032249968670    -0.000009120055    14.003074004430
         N            1.471209730926     0.722378031330    -0.000599120055    14.003074004430
         C           -0.717006269074     0.077204031330     0.000005879945    12.000000000000
         C           -2.188354869074    -0.163396768670    -0.000003520055    12.000000000000
         C            0.159902730926     1.143215031330     0.000224879945    12.000000000000
         C            1.399951730926    -0.600026968670     0.000401879945    12.000000000000
         H           -0.206229269074    -1.996723968670     0.000005879945     1.007825032230
         H           -2.585748269074    -0.527181968670     0.886443879945     1.007825032230
         H           -2.623847269074     1.000845031330    -0.000435120055     1.007825032230
         H           -2.585758269074    -0.528011968670    -0.885889120055     1.007825032230
         H           -0.090037269074     2.196692031330     0.000291879945     1.007825032230
         H            2.240567730926    -1.281514968670     0.000542879945     1.007825032230

  Basis Set: AUG-CC-PVTZ
    Blend: AUG-CC-PVTZ
  Basis Set: (AUG-CC-PVTZ AUX)
    Blend: AUG-CC-PVTZ-JKFIT
	 Reference Energy          =    -263.9258331205537615 [Eh]
	 Singles Energy            =      -0.0000000000000000 [Eh]
	 Same-Spin Energy          =      -0.2875142424349664 [Eh]
	 Opposite-Spin Energy      =      -0.8987416021778973 [Eh]
	 Correlation Energy        =      -1.1862558446128637 [Eh]
	 Total Energy              =    -265.1120889651666062 [Eh]

	 ================> DF-SCS-MP2 Energies <==================
	-----------------------------------------------------------
	 SCS Same-Spin Scale       =       0.3333333333333333 [-]
	 SCS Opposite-Spin Scale   =       1.2000000000000000 [-]
	 SCS Same-Spin Energy      =      -0.0958380808116555 [Eh]
	 SCS Opposite-Spin Energy  =      -1.0784899226134768 [Eh]
	 SCS Correlation Energy    =      -1.1743280034251322 [Eh]
	 SCS Total Energy          =    -265.1001611239789213 [Eh]
	-----------------------------------------------------------

  Dipole Moment: [D]
     X:    -2.7383      Y:    -3.0282      Z:     0.0013     Total:     4.0827

*** Psi4 exiting successfully. Buy a developer a beer!
