                               Psi4 1.3.2 release

  ==> Input File <==

--------------------------------------------------------------------------
#psi4
#
memory 32 gb

molecule  {
0 1
  N        0.1712930    -1.0406060    -0.0000250
  N        1.5395640     0.7140220    -0.0006150
  C       -0.6486520     0.0688480    -0.0000100
  C       -2.3367610    -0.0281046     0.0000206
  C        0.2282570     1.1348590     0.0002090
  C        1.4683060    -0.6083830     0.0003860
  H       -0.1378750    -2.0050800    -0.0000100
  H       -2.5173940    -0.5355380     0.8864280
  H       -2.5554930     0.9924890    -0.0004510
  H       -2.5174040    -0.5363680    -0.8859050
  H       -0.0216830     2.1883360     0.0002760
  H        2.3089220    -1.2898710     0.0005270
units angstrom
no_reorient  #important for SAPT in psi4, default
symmetry c1  #important for SAPT in psi4, default
}

set PROPERTIES_ORIGIN ["COM"]
properties('MP2/aug-cc-pvtz', properties = ['dipole'])
--------------------------------------------------------------------------

    Molecular point group: c1
  Charge       = 0
  Multiplicity = 1
  Basis Set: AUG-CC-PVTZ
    Blend: AUG-CC-PVTZ
  Basis Set: (AUG-CC-PVTZ AUX)
    Blend: AUG-CC-PVTZ-JKFIT

    Orbital Energies [Eh]
    ---------------------

    Doubly Occupied:

       1A    -15.617821     2A    -15.541721     3A    -11.291354
       4A    -11.269801     5A    -11.243988     6A    -11.233535
       7A     -1.330944     8A     -1.158476     9A     -1.024821
      10A     -0.946494    11A     -0.819046    12A     -0.785340
      13A     -0.712669    14A     -0.625628    15A     -0.621663
      16A     -0.580530    17A     -0.578560    18A     -0.559605
      19A     -0.506514    20A     -0.427945    21A     -0.393854
      22A     -0.306934

  @DF-RHF Final Energy:  -263.92100123162152

   => Energetics <=

    Nuclear Repulsion Energy =            220.9700789977856346
    One-Electron Energy =                -794.6276789186262022
    Two-Electron Energy =                 309.7365986892190222
    Total Energy =                       -263.9210012316215170
  Basis Set: (AUG-CC-PVTZ AUX)
    Blend: AUG-CC-PVTZ-RI
    Molecular point group: c1

    Geometry (in Angstrom), charge = 0, multiplicity = 1:

       Center              X                  Y                   Z               Mass
    ------------   -----------------  -----------------  -----------------  -----------------
         N            0.134639237756    -1.053258052920    -0.000014969925    14.003074004430
         N            1.502910237756     0.701369947080    -0.000604969925    14.003074004430
         C           -0.685305762244     0.056195947080     0.000000030075    12.000000000000
         C           -2.373414762244    -0.040756652920     0.000030630075    12.000000000000
         C            0.191603237756     1.122206947080     0.000219030075    12.000000000000
         C            1.431652237756    -0.621035052920     0.000396030075    12.000000000000
         H           -0.174528762244    -2.017732052920     0.000000030075     1.007825032230
         H           -2.554047762244    -0.548190052920     0.886438030075     1.007825032230
         H           -2.592146762244     0.979836947080    -0.000440969925     1.007825032230
         H           -2.554057762244    -0.549020052920    -0.885894969925     1.007825032230
         H           -0.058336762244     2.175683947080     0.000286030075     1.007825032230
         H            2.272268237756    -1.302523052920     0.000537030075     1.007825032230

  Basis Set: AUG-CC-PVTZ
    Blend: AUG-CC-PVTZ
  Basis Set: (AUG-CC-PVTZ AUX)
    Blend: AUG-CC-PVTZ-JKFIT
	 Reference Energy          =    -263.9210012316215170 [Eh]
	 Singles Energy            =      -0.0000000000000000 [Eh]
	 Same-Spin Energy          =      -0.2864954721834015 [Eh]
	 Opposite-Spin Energy      =      -0.8979382909114755 [Eh]
	 Correlation Energy        =      -1.1844337630948769 [Eh]
	 Total Energy              =    -265.1054349947164042 [Eh]

	 ================> DF-SCS-MP2 Energies <==================
	-----------------------------------------------------------
	 SCS Same-Spin Scale       =       0.3333333333333333 [-]
	 SCS Opposite-Spin Scale   =       1.2000000000000000 [-]
	 SCS Same-Spin Energy      =      -0.0954984907278005 [Eh]
	 SCS Opposite-Spin Energy  =      -1.0775259490937705 [Eh]
	 SCS Correlation Energy    =      -1.1730244398215710 [Eh]
	 SCS Total Energy          =    -265.0940256714430916 [Eh]
	-----------------------------------------------------------

  Dipole Moment: [D]
     X:    -2.8496      Y:    -3.0272      Z:     0.0013     Total:     4.1574

*** Psi4 exiting successfully. Buy a developer a beer!
