                               Psi4 1.3.2 release

  ==> Input File <==

--------------------------------------------------------------------------
#psi4
#
memory 32 gb

molecule  {
0 1
  N        0.1712930    -1.0406060    -0.0000250
  N        1.5395640     0.7140220    -0.0006150
  C       -0.6486520     0.0688480    -0.0000100
  C       -2.0372545    -0.0109032     0.0000152
  C        0.2282570     1.1348590     0.0002090
  C        1.4683060    -0.6083830     0.0003860
  H       -0.1378750    -2.0050800    -0.0000100
  H       -2.5173940    -0.5355380     0.8864280
  H       -2.5554930     0.9924890    -0.0004510
  H       -2.5174040    -0.5363680    -0.8859050
  H       -0.0216830     2.1883360     0.0002760
  H        2.3089220    -1.2898710     0.0005270
units angstrom
no_reorient  #important for SAPT in psi4, default
symmetry c1  #important for SAPT in psi4, default
}

set PROPERTIES_ORIGIN ["COM"]
properties('MP2/aug-cc-pvtz', properties = ['dipole'])
--------------------------------------------------------------------------

    Molecular point group: c1
  Charge       = 0
  Multiplicity = 1
  Basis Set: AUG-CC-PVTZ
    Blend: AUG-CC-PVTZ
  Basis Set: (AUG-CC-PVTZ AUX)
    Blend: AUG-CC-PVTZ-JKFIT

    Orbital Energies [Eh]
    ---------------------

    Doubly Occupied:

       1A    -15.618599     2A    -15.544153     3A    -11.295576
       4A    -11.260311     5A    -11.244079     6A    -11.237921
       7A     -1.336133     8A     -1.164408     9A     -1.059013
      10A     -0.933727    11A     -0.822983    12A     -0.791779
      13A     -0.726243    14A     -0.619455    15A     -0.615200
      16A     -0.597295    17A     -0.563374    18A     -0.541893
      19A     -0.530929    20A     -0.432278    21A     -0.396310
      22A     -0.305006

  @DF-RHF Final Energy:  -263.93636990590647

   => Energetics <=

    Nuclear Repulsion Energy =            225.3386144021993971
    One-Electron Energy =                -803.2766380818304697
    Two-Electron Energy =                 314.0016537737246267
    Total Energy =                       -263.9363699059064743
  Basis Set: (AUG-CC-PVTZ AUX)
    Blend: AUG-CC-PVTZ-RI
    Molecular point group: c1

    Geometry (in Angstrom), charge = 0, multiplicity = 1:

       Center              X                  Y                   Z               Mass
    ------------   -----------------  -----------------  -----------------  -----------------
         N            0.090837381657    -1.055773701988    -0.000014180193    14.003074004430
         N            1.459108381657     0.698854298012    -0.000604180193    14.003074004430
         C           -0.729107618343     0.053680298012     0.000000819807    12.000000000000
         C           -2.117710118343    -0.026070901988     0.000026019807    12.000000000000
         C            0.147801381657     1.119691298012     0.000219819807    12.000000000000
         C            1.387850381657    -0.623550701988     0.000396819807    12.000000000000
         H           -0.218330618343    -2.020247701988     0.000000819807     1.007825032230
         H           -2.597849618343    -0.550705701988     0.886438819807     1.007825032230
         H           -2.635948618343     0.977321298012    -0.000440180193     1.007825032230
         H           -2.597859618343    -0.551535701988    -0.885894180193     1.007825032230
         H           -0.102138618343     2.173168298012     0.000286819807     1.007825032230
         H            2.228466381657    -1.305038701988     0.000537819807     1.007825032230

  Basis Set: AUG-CC-PVTZ
    Blend: AUG-CC-PVTZ
  Basis Set: (AUG-CC-PVTZ AUX)
    Blend: AUG-CC-PVTZ-JKFIT
	 Reference Energy          =    -263.9363699059064743 [Eh]
	 Singles Energy            =      -0.0000000000000000 [Eh]
	 Same-Spin Energy          =      -0.2880452111601737 [Eh]
	 Opposite-Spin Energy      =      -0.8983328124356231 [Eh]
	 Correlation Energy        =      -1.1863780235957968 [Eh]
	 Total Energy              =    -265.1227479295022817 [Eh]

	 ================> DF-SCS-MP2 Energies <==================
	-----------------------------------------------------------
	 SCS Same-Spin Scale       =       0.3333333333333333 [-]
	 SCS Opposite-Spin Scale   =       1.2000000000000000 [-]
	 SCS Same-Spin Energy      =      -0.0960150703867245 [Eh]
	 SCS Opposite-Spin Energy  =      -1.0779993749227477 [Eh]
	 SCS Correlation Energy    =      -1.1740144453094723 [Eh]
	 SCS Total Energy          =    -265.1103843512159415 [Eh]
	-----------------------------------------------------------

  Dipole Moment: [D]
     X:    -2.7454      Y:    -2.9577      Z:     0.0013     Total:     4.0355

*** Psi4 exiting successfully. Buy a developer a beer!
