                               Psi4 1.3.2 release

  ==> Input File <==

--------------------------------------------------------------------------
#psi4
#
memory 32 gb

molecule  {
0 1
  N        0.1712930    -1.0406060    -0.0000250
  N        1.5395640     0.7140220    -0.0006150
  C       -0.6486520     0.0688480    -0.0000100
  C       -2.1331999    -0.0685307     0.0000049
  C        0.2282570     1.1348590     0.0002090
  C        1.4683060    -0.6083830     0.0003860
  H       -0.1378750    -2.0050800    -0.0000100
  H       -2.5173940    -0.5355380     0.8864280
  H       -2.5554930     0.9924890    -0.0004510
  H       -2.5174040    -0.5363680    -0.8859050
  H       -0.0216830     2.1883360     0.0002760
  H        2.3089220    -1.2898710     0.0005270
units angstrom
no_reorient  #important for SAPT in psi4, default
symmetry c1  #important for SAPT in psi4, default
}

set PROPERTIES_ORIGIN ["COM"]
properties('MP2/aug-cc-pvtz', properties = ['dipole'])
--------------------------------------------------------------------------

    Molecular point group: c1
  Charge       = 0
  Multiplicity = 1
  Basis Set: AUG-CC-PVTZ
    Blend: AUG-CC-PVTZ
  Basis Set: (AUG-CC-PVTZ AUX)
    Blend: AUG-CC-PVTZ-JKFIT

    Orbital Energies [Eh]
    ---------------------

    Doubly Occupied:

       1A    -15.617607     2A    -15.543556     3A    -11.293875
       4A    -11.265522     5A    -11.241383     6A    -11.237323
       7A     -1.334191     8A     -1.162277     9A     -1.043141
      10A     -0.938286    11A     -0.821688    12A     -0.789135
      13A     -0.721244    14A     -0.620492    15A     -0.615024
      16A     -0.574043    17A     -0.565177    18A     -0.562080
      19A     -0.532692    20A     -0.432596    21A     -0.395546
      22A     -0.307867

  @DF-RHF Final Energy:  -263.94585303445803

   => Energetics <=

    Nuclear Repulsion Energy =            223.8113909200312150
    One-Electron Energy =                -800.2850004605935510
    Two-Electron Energy =                 312.5277565061043674
    Total Energy =                       -263.9458530344580254
  Basis Set: (AUG-CC-PVTZ AUX)
    Blend: AUG-CC-PVTZ-RI
    Molecular point group: c1

    Geometry (in Angstrom), charge = 0, multiplicity = 1:

       Center              X                  Y                   Z               Mass
    ------------   -----------------  -----------------  -----------------  -----------------
         N            0.104869085824    -1.047345866657    -0.000012673851    14.003074004430
         N            1.473140085824     0.707282133343    -0.000602673851    14.003074004430
         C           -0.715075914176     0.062108133343     0.000002326149    12.000000000000
         C           -2.199623814176    -0.075270566657     0.000017226149    12.000000000000
         C            0.161833085824     1.128119133343     0.000221326149    12.000000000000
         C            1.401882085824    -0.615122866657     0.000398326149    12.000000000000
         H           -0.204298914176    -2.011819866657     0.000002326149     1.007825032230
         H           -2.583817914176    -0.542277866657     0.886440326149     1.007825032230
         H           -2.621916914176     0.985749133343    -0.000438673851     1.007825032230
         H           -2.583827914176    -0.543107866657    -0.885892673851     1.007825032230
         H           -0.088106914176     2.181596133343     0.000288326149     1.007825032230
         H            2.242498085824    -1.296610866657     0.000539326149     1.007825032230

  Basis Set: AUG-CC-PVTZ
    Blend: AUG-CC-PVTZ
  Basis Set: (AUG-CC-PVTZ AUX)
    Blend: AUG-CC-PVTZ-JKFIT
	 Reference Energy          =    -263.9458530344580254 [Eh]
	 Singles Energy            =      -0.0000000000000000 [Eh]
	 Same-Spin Energy          =      -0.2869277273871913 [Eh]
	 Opposite-Spin Energy      =      -0.8973005254051116 [Eh]
	 Correlation Energy        =      -1.1842282527923029 [Eh]
	 Total Energy              =    -265.1300812872503343 [Eh]

	 ================> DF-SCS-MP2 Energies <==================
	-----------------------------------------------------------
	 SCS Same-Spin Scale       =       0.3333333333333333 [-]
	 SCS Opposite-Spin Scale   =       1.2000000000000000 [-]
	 SCS Same-Spin Energy      =      -0.0956425757957304 [Eh]
	 SCS Opposite-Spin Energy  =      -1.0767606304861339 [Eh]
	 SCS Correlation Energy    =      -1.1724032062818643 [Eh]
	 SCS Total Energy          =    -265.1182562407398677 [Eh]
	-----------------------------------------------------------

  Dipole Moment: [D]
     X:    -2.7890      Y:    -3.0036      Z:     0.0013     Total:     4.0988

*** Psi4 exiting successfully. Buy a developer a beer!
