                               Psi4 1.3.2 release

  ==> Input File <==

--------------------------------------------------------------------------
#psi4
#
memory 32 gb

molecule  {
0 1
  N        0.1320741    -1.0685458    -0.0000243
  N        1.5395640     0.7140220    -0.0006150
  C       -0.6486520     0.0688480    -0.0000100
  C       -2.1370900    -0.0166370     0.0000170
  C        0.2282570     1.1348590     0.0002090
  C        1.4683060    -0.6083830     0.0003860
  H       -0.1378750    -2.0050800    -0.0000100
  H       -2.5173940    -0.5355380     0.8864280
  H       -2.5554930     0.9924890    -0.0004510
  H       -2.5174040    -0.5363680    -0.8859050
  H       -0.0216830     2.1883360     0.0002760
  H        2.3089220    -1.2898710     0.0005270
units angstrom
no_reorient  #important for SAPT in psi4, default
symmetry c1  #important for SAPT in psi4, default
}

set PROPERTIES_ORIGIN ["COM"]
properties('MP2/aug-cc-pvtz', properties = ['dipole'])
--------------------------------------------------------------------------

    Molecular point group: c1
  Charge       = 0
  Multiplicity = 1
  Basis Set: AUG-CC-PVTZ
    Blend: AUG-CC-PVTZ
  Basis Set: (AUG-CC-PVTZ AUX)
    Blend: AUG-CC-PVTZ-JKFIT

    Orbital Energies [Eh]
    ---------------------

    Doubly Occupied:

       1A    -15.614788     2A    -15.549218     3A    -11.298729
       4A    -11.268808     5A    -11.239946     6A    -11.236876
       7A     -1.325197     8A     -1.167722     9A     -1.040949
      10A     -0.936272    11A     -0.829832    12A     -0.787013
      13A     -0.715406    14A     -0.626551    15A     -0.611843
      16A     -0.566651    17A     -0.563044    18A     -0.553393
      19A     -0.548058    20A     -0.435699    21A     -0.399401
      22A     -0.305654

  @DF-RHF Final Energy:  -263.94516820294535

   => Energetics <=

    Nuclear Repulsion Energy =            223.0937006579211470
    One-Electron Energy =                -798.8356390353001188
    Two-Electron Energy =                 311.7967701744336750
    Total Energy =                       -263.9451682029453536
  Basis Set: (AUG-CC-PVTZ AUX)
    Blend: AUG-CC-PVTZ-RI
    Molecular point group: c1

    Geometry (in Angstrom), charge = 0, multiplicity = 1:

       Center              X                  Y                   Z               Mass
    ------------   -----------------  -----------------  -----------------  -----------------
         N            0.072912146336    -1.078106782715    -0.000013862898    14.003074004430
         N            1.480402046336     0.704461017285    -0.000604562898    14.003074004430
         C           -0.707813953664     0.059287017285     0.000000437102    12.000000000000
         C           -2.196251953664    -0.026197982715     0.000027437102    12.000000000000
         C            0.169095046336     1.125298017285     0.000219437102    12.000000000000
         C            1.409144046336    -0.617943982715     0.000396437102    12.000000000000
         H           -0.197036953664    -2.014640982715     0.000000437102     1.007825032230
         H           -2.576555953664    -0.545098982715     0.886438437102     1.007825032230
         H           -2.614654953664     0.982928017285    -0.000440562898     1.007825032230
         H           -2.576565953664    -0.545928982715    -0.885894562898     1.007825032230
         H           -0.080844953664     2.178775017285     0.000286437102     1.007825032230
         H            2.249760046336    -1.299431982715     0.000537437102     1.007825032230

  Basis Set: AUG-CC-PVTZ
    Blend: AUG-CC-PVTZ
  Basis Set: (AUG-CC-PVTZ AUX)
    Blend: AUG-CC-PVTZ-JKFIT
	 Reference Energy          =    -263.9451682029453536 [Eh]
	 Singles Energy            =      -0.0000000000000000 [Eh]
	 Same-Spin Energy          =      -0.2865575550472143 [Eh]
	 Opposite-Spin Energy      =      -0.8974618701480279 [Eh]
	 Correlation Energy        =      -1.1840194251952423 [Eh]
	 Total Energy              =    -265.1291876281405848 [Eh]

	 ================> DF-SCS-MP2 Energies <==================
	-----------------------------------------------------------
	 SCS Same-Spin Scale       =       0.3333333333333333 [-]
	 SCS Opposite-Spin Scale   =       1.2000000000000000 [-]
	 SCS Same-Spin Energy      =      -0.0955191850157381 [Eh]
	 SCS Opposite-Spin Energy  =      -1.0769542441776334 [Eh]
	 SCS Correlation Energy    =      -1.1724734291933716 [Eh]
	 SCS Total Energy          =    -265.1176416321387137 [Eh]
	-----------------------------------------------------------

  Dipole Moment: [D]
     X:    -2.7087      Y:    -2.8781      Z:     0.0013     Total:     3.9523

*** Psi4 exiting successfully. Buy a developer a beer!
