                               Psi4 1.3.2 release

  ==> Input File <==

--------------------------------------------------------------------------
#psi4
#
memory 32 gb

molecule  {
0 1
  N        0.1518055    -1.0547470    -0.0000246
  N        1.5395640     0.7140220    -0.0006150
  C       -0.6486520     0.0688480    -0.0000100
  C       -2.1370900    -0.0166370     0.0000170
  C        0.2282570     1.1348590     0.0002090
  C        1.4683060    -0.6083830     0.0003860
  H       -0.1378750    -2.0050800    -0.0000100
  H       -2.5173940    -0.5355380     0.8864280
  H       -2.5554930     0.9924890    -0.0004510
  H       -2.5174040    -0.5363680    -0.8859050
  H       -0.0216830     2.1883360     0.0002760
  H        2.3089220    -1.2898710     0.0005270
units angstrom
no_reorient  #important for SAPT in psi4, default
symmetry c1  #important for SAPT in psi4, default
}

set PROPERTIES_ORIGIN ["COM"]
properties('MP2/aug-cc-pvtz', properties = ['dipole'])
--------------------------------------------------------------------------

    Molecular point group: c1
  Charge       = 0
  Multiplicity = 1
  Basis Set: AUG-CC-PVTZ
    Blend: AUG-CC-PVTZ
  Basis Set: (AUG-CC-PVTZ AUX)
    Blend: AUG-CC-PVTZ-JKFIT

    Orbital Energies [Eh]
    ---------------------

    Doubly Occupied:

       1A    -15.616687     2A    -15.546242     3A    -11.296337
       4A    -11.267027     5A    -11.240573     6A    -11.236471
       7A     -1.329459     8A     -1.164801     9A     -1.042238
      10A     -0.936900    11A     -0.825605    12A     -0.788274
      13A     -0.718202    14A     -0.622163    15A     -0.613286
      16A     -0.568340    17A     -0.562468    18A     -0.555417
      19A     -0.549373    20A     -0.433876    21A     -0.397438
      22A     -0.306178

  @DF-RHF Final Energy:  -263.94795570396013

   => Energetics <=

    Nuclear Repulsion Energy =            223.4261279192038216
    One-Electron Energy =                -799.5134535665529256
    Two-Electron Energy =                 312.1393699433889424
    Total Energy =                       -263.9479557039601332
  Basis Set: (AUG-CC-PVTZ AUX)
    Blend: AUG-CC-PVTZ-RI
    Molecular point group: c1

    Geometry (in Angstrom), charge = 0, multiplicity = 1:

       Center              X                  Y                   Z               Mass
    ------------   -----------------  -----------------  -----------------  -----------------
         N            0.089276211520    -1.066662867806    -0.000014111700    14.003074004430
         N            1.477034711520     0.702106132194    -0.000604511700    14.003074004430
         C           -0.711181288480     0.056932132194     0.000000488300    12.000000000000
         C           -2.199619288480    -0.028552867806     0.000027488300    12.000000000000
         C            0.165727711520     1.122943132194     0.000219488300    12.000000000000
         C            1.405776711520    -0.620298867806     0.000396488300    12.000000000000
         H           -0.200404288480    -2.016995867806     0.000000488300     1.007825032230
         H           -2.579923288480    -0.547453867806     0.886438488300     1.007825032230
         H           -2.618022288480     0.980573132194    -0.000440511700     1.007825032230
         H           -2.579933288480    -0.548283867806    -0.885894511700     1.007825032230
         H           -0.084212288480     2.176420132194     0.000286488300     1.007825032230
         H            2.246392711520    -1.301786867806     0.000537488300     1.007825032230

  Basis Set: AUG-CC-PVTZ
    Blend: AUG-CC-PVTZ
  Basis Set: (AUG-CC-PVTZ AUX)
    Blend: AUG-CC-PVTZ-JKFIT
	 Reference Energy          =    -263.9479557039601332 [Eh]
	 Singles Energy            =      -0.0000000000000000 [Eh]
	 Same-Spin Energy          =      -0.2866512163090886 [Eh]
	 Opposite-Spin Energy      =      -0.8971725569096427 [Eh]
	 Correlation Energy        =      -1.1838237732187313 [Eh]
	 Total Energy              =    -265.1317794771788385 [Eh]

	 ================> DF-SCS-MP2 Energies <==================
	-----------------------------------------------------------
	 SCS Same-Spin Scale       =       0.3333333333333333 [-]
	 SCS Opposite-Spin Scale   =       1.2000000000000000 [-]
	 SCS Same-Spin Energy      =      -0.0955504054363629 [Eh]
	 SCS Opposite-Spin Energy  =      -1.0766070682915712 [Eh]
	 SCS Correlation Energy    =      -1.1721574737279341 [Eh]
	 SCS Total Energy          =    -265.1201131776880402 [Eh]
	-----------------------------------------------------------

  Dipole Moment: [D]
     X:    -2.7576      Y:    -2.9351      Z:     0.0013     Total:     4.0273

*** Psi4 exiting successfully. Buy a developer a beer!
