                               Psi4 1.3.2 release

  ==> Input File <==

--------------------------------------------------------------------------
#psi4
#
memory 32 gb

molecule  {
0 1
  N        0.1712930    -1.0406060    -0.0000250
  N        1.5395640     0.7140220    -0.0006150
  C       -0.6486520     0.0688480    -0.0000100
  C       -2.1275011    -0.1202569    -0.0000073
  C        0.2282570     1.1348590     0.0002090
  C        1.4683060    -0.6083830     0.0003860
  H       -0.1378750    -2.0050800    -0.0000100
  H       -2.5173940    -0.5355380     0.8864280
  H       -2.5554930     0.9924890    -0.0004510
  H       -2.5174040    -0.5363680    -0.8859050
  H       -0.0216830     2.1883360     0.0002760
  H        2.3089220    -1.2898710     0.0005270
units angstrom
no_reorient  #important for SAPT in psi4, default
symmetry c1  #important for SAPT in psi4, default
}

set PROPERTIES_ORIGIN ["COM"]
properties('MP2/aug-cc-pvtz', properties = ['dipole'])
--------------------------------------------------------------------------

    Molecular point group: c1
  Charge       = 0
  Multiplicity = 1
  Basis Set: AUG-CC-PVTZ
    Blend: AUG-CC-PVTZ
  Basis Set: (AUG-CC-PVTZ AUX)
    Blend: AUG-CC-PVTZ-JKFIT

    Orbital Energies [Eh]
    ---------------------

    Doubly Occupied:

       1A    -15.616809     2A    -15.543968     3A    -11.293953
       4A    -11.266116     5A    -11.242468     6A    -11.238643
       7A     -1.334413     8A     -1.162803     9A     -1.042841
      10A     -0.939272    11A     -0.821900    12A     -0.789160
      13A     -0.722075    14A     -0.627453    15A     -0.612922
      16A     -0.577533    17A     -0.571083    18A     -0.562404
      19A     -0.514810    20A     -0.433079    21A     -0.395693
      22A     -0.309015

  @DF-RHF Final Energy:  -263.93781528504769

   => Energetics <=

    Nuclear Repulsion Energy =            223.8601141069974005
    One-Electron Energy =                -800.3590326362020733
    Two-Electron Energy =                 312.5611032441570387
    Total Energy =                       -263.9378152850476908
  Basis Set: (AUG-CC-PVTZ AUX)
    Blend: AUG-CC-PVTZ-RI
    Molecular point group: c1

    Geometry (in Angstrom), charge = 0, multiplicity = 1:

       Center              X                  Y                   Z               Mass
    ------------   -----------------  -----------------  -----------------  -----------------
         N            0.104035654771    -1.039781077349    -0.000010889641    14.003074004430
         N            1.472306654771     0.714846922651    -0.000600889641    14.003074004430
         C           -0.715909345229     0.069672922651     0.000004110359    12.000000000000
         C           -2.194758445229    -0.119431977349     0.000006810359    12.000000000000
         C            0.160999654771     1.135683922651     0.000223110359    12.000000000000
         C            1.401048654771    -0.607558077349     0.000400110359    12.000000000000
         H           -0.205132345229    -2.004255077349     0.000004110359     1.007825032230
         H           -2.584651345229    -0.534713077349     0.886442110359     1.007825032230
         H           -2.622750345229     0.993313922651    -0.000436889641     1.007825032230
         H           -2.584661345229    -0.535543077349    -0.885890889641     1.007825032230
         H           -0.088940345229     2.189160922651     0.000290110359     1.007825032230
         H            2.241664654771    -1.289046077349     0.000541110359     1.007825032230

  Basis Set: AUG-CC-PVTZ
    Blend: AUG-CC-PVTZ
  Basis Set: (AUG-CC-PVTZ AUX)
    Blend: AUG-CC-PVTZ-JKFIT
	 Reference Energy          =    -263.9378152850476908 [Eh]
	 Singles Energy            =      -0.0000000000000000 [Eh]
	 Same-Spin Energy          =      -0.2871734846972700 [Eh]
	 Opposite-Spin Energy      =      -0.8978931539328865 [Eh]
	 Correlation Energy        =      -1.1850666386301565 [Eh]
	 Total Energy              =    -265.1228819236778236 [Eh]

	 ================> DF-SCS-MP2 Energies <==================
	-----------------------------------------------------------
	 SCS Same-Spin Scale       =       0.3333333333333333 [-]
	 SCS Opposite-Spin Scale   =       1.2000000000000000 [-]
	 SCS Same-Spin Energy      =      -0.0957244948990900 [Eh]
	 SCS Opposite-Spin Energy  =      -1.0774717847194637 [Eh]
	 SCS Correlation Energy    =      -1.1731962796185538 [Eh]
	 SCS Total Energy          =    -265.1110115646662280 [Eh]
	-----------------------------------------------------------

  Dipole Moment: [D]
     X:    -2.7666      Y:    -3.0165      Z:     0.0013     Total:     4.0931

*** Psi4 exiting successfully. Buy a developer a beer!
