                               Psi4 1.3.2 release

  ==> Input File <==

--------------------------------------------------------------------------
#psi4
#
memory 32 gb

molecule  {
0 1
  N        0.1712930    -1.0406060    -0.0000250
  N        1.5395640     0.7140220    -0.0006150
  C       -0.6481005     0.0434207     0.0453908
  C       -2.1370900    -0.0166370     0.0000170
  C        0.2282570     1.1348590     0.0002090
  C        1.4683060    -0.6083830     0.0003860
  H       -0.1378750    -2.0050800    -0.0000100
  H       -2.5173940    -0.5355380     0.8864280
  H       -2.5554930     0.9924890    -0.0004510
  H       -2.5174040    -0.5363680    -0.8859050
  H       -0.0216830     2.1883360     0.0002760
  H        2.3089220    -1.2898710     0.0005270
units angstrom
no_reorient  #important for SAPT in psi4, default
symmetry c1  #important for SAPT in psi4, default
}

set PROPERTIES_ORIGIN ["COM"]
properties('MP2/aug-cc-pvtz', properties = ['dipole'])
--------------------------------------------------------------------------

    Molecular point group: c1
  Charge       = 0
  Multiplicity = 1
  Basis Set: AUG-CC-PVTZ
    Blend: AUG-CC-PVTZ
  Basis Set: (AUG-CC-PVTZ AUX)
    Blend: AUG-CC-PVTZ-JKFIT

    Orbital Energies [Eh]
    ---------------------

    Doubly Occupied:

       1A    -15.620920     2A    -15.544436     3A    -11.292156
       4A    -11.266438     5A    -11.241440     6A    -11.237000
       7A     -1.337839     8A     -1.165032     9A     -1.042215
      10A     -0.936265    11A     -0.822129    12A     -0.792369
      13A     -0.720852    14A     -0.618722    15A     -0.616518
      16A     -0.570156    17A     -0.561517    18A     -0.556620
      19A     -0.551926    20A     -0.431621    21A     -0.397187
      22A     -0.302282

  @DF-RHF Final Energy:  -263.94685236125736

   => Energetics <=

    Nuclear Repulsion Energy =            223.8140908490566972
    One-Electron Energy =                -800.2706060489173296
    Two-Electron Energy =                 312.5096628386032762
    Total Energy =                       -263.9468523612573563
  Basis Set: (AUG-CC-PVTZ AUX)
    Blend: AUG-CC-PVTZ-RI
    Molecular point group: c1

    Geometry (in Angstrom), charge = 0, multiplicity = 1:

       Center              X                  Y                   Z               Mass
    ------------   -----------------  -----------------  -----------------  -----------------
         N            0.105357345267    -1.051216491984    -0.006654163471    14.003074004430
         N            1.473628345267     0.703411508016    -0.007244163471    14.003074004430
         C           -0.714036154733     0.032810208016     0.038761636529    12.000000000000
         C           -2.203025654733    -0.027247491984    -0.006612163471    12.000000000000
         C            0.162321345267     1.124248508016    -0.006420163471    12.000000000000
         C            1.402370345267    -0.618993491984    -0.006243163471    12.000000000000
         H           -0.203810654733    -2.015690491984    -0.006639163471     1.007825032230
         H           -2.583329654733    -0.546148491984     0.879798836529     1.007825032230
         H           -2.621428654733     0.981878508016    -0.007080163471     1.007825032230
         H           -2.583339654733    -0.546978491984    -0.892534163471     1.007825032230
         H           -0.087618654733     2.177725508016    -0.006353163471     1.007825032230
         H            2.242986345267    -1.300481491984    -0.006102163471     1.007825032230

  Basis Set: AUG-CC-PVTZ
    Blend: AUG-CC-PVTZ
  Basis Set: (AUG-CC-PVTZ AUX)
    Blend: AUG-CC-PVTZ-JKFIT
	 Reference Energy          =    -263.9468523612573563 [Eh]
	 Singles Energy            =      -0.0000000000000000 [Eh]
	 Same-Spin Energy          =      -0.2872551912068878 [Eh]
	 Opposite-Spin Energy      =      -0.8974395382698327 [Eh]
	 Correlation Energy        =      -1.1846947294767205 [Eh]
	 Total Energy              =    -265.1315470907341023 [Eh]

	 ================> DF-SCS-MP2 Energies <==================
	-----------------------------------------------------------
	 SCS Same-Spin Scale       =       0.3333333333333333 [-]
	 SCS Opposite-Spin Scale   =       1.2000000000000000 [-]
	 SCS Same-Spin Energy      =      -0.0957517304022959 [Eh]
	 SCS Opposite-Spin Energy  =      -1.0769274459237992 [Eh]
	 SCS Correlation Energy    =      -1.1726791763260951 [Eh]
	 SCS Total Energy          =    -265.1195315375834411 [Eh]
	-----------------------------------------------------------

  Dipole Moment: [D]
     X:    -2.8041      Y:    -3.0208      Z:    -0.0208     Total:     4.1217

*** Psi4 exiting successfully. Buy a developer a beer!
