                               Psi4 1.3.2 release

  ==> Input File <==

--------------------------------------------------------------------------
#psi4
#
memory 32 gb

molecule  {
0 1
  N        0.2827708    -0.9488207    -0.0000270
  N        1.5395640     0.7140220    -0.0006150
  C       -0.6486520     0.0688480    -0.0000100
  C       -2.1370900    -0.0166370     0.0000170
  C        0.2282570     1.1348590     0.0002090
  C        1.4683060    -0.6083830     0.0003860
  H       -0.1378750    -2.0050800    -0.0000100
  H       -2.5173940    -0.5355380     0.8864280
  H       -2.5554930     0.9924890    -0.0004510
  H       -2.5174040    -0.5363680    -0.8859050
  H       -0.0216830     2.1883360     0.0002760
  H        2.3089220    -1.2898710     0.0005270
units angstrom
no_reorient  #important for SAPT in psi4, default
symmetry c1  #important for SAPT in psi4, default
}

set PROPERTIES_ORIGIN ["COM"]
properties('MP2/aug-cc-pvtz', properties = ['dipole'])
--------------------------------------------------------------------------

    Molecular point group: c1
  Charge       = 0
  Multiplicity = 1
  Basis Set: AUG-CC-PVTZ
    Blend: AUG-CC-PVTZ
  Basis Set: (AUG-CC-PVTZ AUX)
    Blend: AUG-CC-PVTZ-JKFIT

    Orbital Energies [Eh]
    ---------------------

    Doubly Occupied:

       1A    -15.628727     2A    -15.525494     3A    -11.278773
       4A    -11.256435     5A    -11.244881     6A    -11.234924
       7A     -1.371319     8A     -1.145714     9A     -1.057700
      10A     -0.945287    11A     -0.812676    12A     -0.781702
      13A     -0.735357    14A     -0.630738    15A     -0.598600
      16A     -0.582841    17A     -0.569484    18A     -0.559718
      19A     -0.536591    20A     -0.419500    21A     -0.385664
      22A     -0.310095

  @DF-RHF Final Energy:  -263.91405408798590

   => Energetics <=

    Nuclear Repulsion Energy =            226.1628823360828449
    One-Electron Energy =                -804.9294312472341062
    Two-Electron Energy =                 314.8524948231653866
    Total Energy =                       -263.9140540879859032
  Basis Set: (AUG-CC-PVTZ AUX)
    Blend: AUG-CC-PVTZ-RI
    Molecular point group: c1

    Geometry (in Angstrom), charge = 0, multiplicity = 1:

       Center              X                  Y                   Z               Mass
    ------------   -----------------  -----------------  -----------------  -----------------
         N            0.197891145378    -0.978813811084    -0.000016102120    14.003074004430
         N            1.454684345378     0.684028888916    -0.000604102120    14.003074004430
         C           -0.733531654622     0.038854888916     0.000000897880    12.000000000000
         C           -2.221969654622    -0.046630111084     0.000027897880    12.000000000000
         C            0.143377345378     1.104865888916     0.000219897880    12.000000000000
         C            1.383426345378    -0.638376111084     0.000396897880    12.000000000000
         H           -0.222754654622    -2.035073111084     0.000000897880     1.007825032230
         H           -2.602273654622    -0.565531111084     0.886438897880     1.007825032230
         H           -2.640372654622     0.962495888916    -0.000440102120     1.007825032230
         H           -2.602283654622    -0.566361111084    -0.885894102120     1.007825032230
         H           -0.106562654622     2.158342888916     0.000286897880     1.007825032230
         H            2.224042345378    -1.319864111084     0.000537897880     1.007825032230

  Basis Set: AUG-CC-PVTZ
    Blend: AUG-CC-PVTZ
  Basis Set: (AUG-CC-PVTZ AUX)
    Blend: AUG-CC-PVTZ-JKFIT
	 Reference Energy          =    -263.9140540879859032 [Eh]
	 Singles Energy            =      -0.0000000000000000 [Eh]
	 Same-Spin Energy          =      -0.2882177629845470 [Eh]
	 Opposite-Spin Energy      =      -0.8976006329204151 [Eh]
	 Correlation Energy        =      -1.1858183959049622 [Eh]
	 Total Energy              =    -265.0998724838908629 [Eh]

	 ================> DF-SCS-MP2 Energies <==================
	-----------------------------------------------------------
	 SCS Same-Spin Scale       =       0.3333333333333333 [-]
	 SCS Opposite-Spin Scale   =       1.2000000000000000 [-]
	 SCS Same-Spin Energy      =      -0.0960725876615157 [Eh]
	 SCS Opposite-Spin Energy  =      -1.0771207595044980 [Eh]
	 SCS Correlation Energy    =      -1.1731933471660136 [Eh]
	 SCS Total Energy          =    -265.0872474351519372 [Eh]
	-----------------------------------------------------------

  Dipole Moment: [D]
     X:    -2.9927      Y:    -3.2698      Z:     0.0013     Total:     4.4326

*** Psi4 exiting successfully. Buy a developer a beer!
