                               Psi4 1.3.2 release

  ==> Input File <==

--------------------------------------------------------------------------
#psi4
#
memory 32 gb

molecule  {
0 1
  O       -1.4243350     1.8531120    -0.0084660
  N       -1.1176450    -0.4263010     0.0065070
  N        0.7520872     1.0781747     0.0095402
  N        2.8919430     0.2615640    -0.0759850
  C       -0.2733660    -1.4960510    -0.0007800
  C        1.0883732    -1.3340641    -0.0041332
  C       -0.6338910     0.9109410     0.0155220
  C       -2.5617390    -0.6507120     0.0005160
  C        1.5376510     0.0247200    -0.0002060
  H       -0.7522370    -2.4720050    -0.0099570
  H        1.7553550    -2.1750520    -0.0313920
  H       -2.8635010    -1.2105310     0.8892080
  H       -2.8583950    -1.1972750    -0.8980640
  H       -3.0263160     0.3321150     0.0069490
  H        3.5027140    -0.4263080     0.3467730
  H        3.1453740     1.2255370     0.1175850
units angstrom
no_reorient  #important for SAPT in psi4, default
symmetry c1  #important for SAPT in psi4, default
}

set PROPERTIES_ORIGIN ["COM"]
properties('MP2/aug-cc-pvtz', properties = ['dipole'])
--------------------------------------------------------------------------

    Molecular point group: c1
  Charge       = 0
  Multiplicity = 1
  Basis Set: AUG-CC-PVTZ
    Blend: AUG-CC-PVTZ
  Basis Set: (AUG-CC-PVTZ AUX)
    Blend: AUG-CC-PVTZ-JKFIT

    Orbital Energies [Eh]
    ---------------------

    Doubly Occupied:

       1A    -20.504967     2A    -15.627070     3A    -15.589783
       4A    -15.544614     5A    -11.373582     6A    -11.348089
       7A    -11.329476     8A    -11.271390     9A    -11.246308
      10A     -1.382808    11A     -1.295818    12A     -1.267643
      13A     -1.168458    14A     -1.070971    15A     -0.965728
      16A     -0.900453    17A     -0.851481    18A     -0.757679
      19A     -0.723176    20A     -0.686193    21A     -0.674026
      22A     -0.655796    23A     -0.623618    24A     -0.599617
      25A     -0.593403    26A     -0.579365    27A     -0.559725
      28A     -0.521851    29A     -0.475756    30A     -0.442932
      31A     -0.420198    32A     -0.387204    33A     -0.338322

  @DF-RHF Final Energy:  -431.79992664037007

   => Energetics <=

    Nuclear Repulsion Energy =            440.4804707728495714
    One-Electron Energy =               -1461.0057926941897222
    Two-Electron Energy =                 588.7253952809700195
    Total Energy =                       -431.7999266403701313
  Basis Set: (AUG-CC-PVTZ AUX)
    Blend: AUG-CC-PVTZ-RI
    Molecular point group: c1

    Geometry (in Angstrom), charge = 0, multiplicity = 1:

       Center              X                  Y                   Z               Mass
    ------------   -----------------  -----------------  -----------------  -----------------
         O           -1.435320146735     1.805778787860    -0.005113150904    15.994914619570
         N           -1.128630146735    -0.473634212140     0.009859849096    14.003074004430
         N            0.741102053265     1.030841487860     0.012893049096    14.003074004430
         N            2.880957853265     0.214230787860    -0.072632150904    14.003074004430
         C           -0.284351146735    -1.543384212140     0.002572849096    12.000000000000
         C            1.077388053265    -1.381397312140    -0.000780350904    12.000000000000
         C           -0.644876146735     0.863607787860     0.018874849096    12.000000000000
         C           -2.572724146735    -0.698045212140     0.003868849096    12.000000000000
         C            1.526665853265    -0.022613212140     0.003146849096    12.000000000000
         H           -0.763222146735    -2.519338212140    -0.006604150904     1.007825032230
         H            1.744369853265    -2.222385212140    -0.028039150904     1.007825032230
         H           -2.874486146735    -1.257864212140     0.892560849096     1.007825032230
         H           -2.869380146735    -1.244608212140    -0.894711150904     1.007825032230
         H           -3.037301146735     0.284781787860     0.010301849096     1.007825032230
         H            3.491728853265    -0.473641212140     0.350125849096     1.007825032230
         H            3.134388853265     1.178203787860     0.120937849096     1.007825032230

  Basis Set: AUG-CC-PVTZ
    Blend: AUG-CC-PVTZ
  Basis Set: (AUG-CC-PVTZ AUX)
    Blend: AUG-CC-PVTZ-JKFIT
	 Reference Energy          =    -431.7999266403700744 [Eh]
	 Singles Energy            =      -0.0000000000000000 [Eh]
	 Same-Spin Energy          =      -0.4504371251014047 [Eh]
	 Opposite-Spin Energy      =      -1.3725311302979355 [Eh]
	 Correlation Energy        =      -1.8229682553993403 [Eh]
	 Total Energy              =    -433.6228948957694342 [Eh]

	 ================> DF-SCS-MP2 Energies <==================
	-----------------------------------------------------------
	 SCS Same-Spin Scale       =       0.3333333333333333 [-]
	 SCS Opposite-Spin Scale   =       1.2000000000000000 [-]
	 SCS Same-Spin Energy      =      -0.1501457083671349 [Eh]
	 SCS Opposite-Spin Energy  =      -1.6470373563575225 [Eh]
	 SCS Correlation Energy    =      -1.7971830647246574 [Eh]
	 SCS Total Energy          =    -433.5971097050947378 [Eh]
	-----------------------------------------------------------

  Dipole Moment: [D]
     X:     1.6206      Y:    -5.6339      Z:     0.8318     Total:     5.9211

*** Psi4 exiting successfully. Buy a developer a beer!
