                               Psi4 1.3.2 release

  ==> Input File <==

--------------------------------------------------------------------------
#psi4
#
memory 32 gb

molecule  {
0 1
  O       -1.4243350     1.8531120    -0.0084660
  N       -1.1176450    -0.4263010     0.0065070
  N        0.7799331     1.0983782     0.0094735
  N        2.8919430     0.2615640    -0.0759850
  C       -0.2733660    -1.4960510    -0.0007800
  C        1.1240954    -1.3453582    -0.0043991
  C       -0.6338910     0.9109410     0.0155220
  C       -2.5617390    -0.6507120     0.0005160
  C        1.5376510     0.0247200    -0.0002060
  H       -0.7522370    -2.4720050    -0.0099570
  H        1.7553550    -2.1750520    -0.0313920
  H       -2.8635010    -1.2105310     0.8892080
  H       -2.8583950    -1.1972750    -0.8980640
  H       -3.0263160     0.3321150     0.0069490
  H        3.5027140    -0.4263080     0.3467730
  H        3.1453740     1.2255370     0.1175850
units angstrom
no_reorient  #important for SAPT in psi4, default
symmetry c1  #important for SAPT in psi4, default
}

set PROPERTIES_ORIGIN ["COM"]
properties('MP2/aug-cc-pvtz', properties = ['dipole'])
--------------------------------------------------------------------------

    Molecular point group: c1
  Charge       = 0
  Multiplicity = 1
  Basis Set: AUG-CC-PVTZ
    Blend: AUG-CC-PVTZ
  Basis Set: (AUG-CC-PVTZ AUX)
    Blend: AUG-CC-PVTZ-JKFIT

    Orbital Energies [Eh]
    ---------------------

    Doubly Occupied:

       1A    -20.509167     2A    -15.632077     3A    -15.584623
       4A    -15.547743     5A    -11.377477     6A    -11.344855
       7A    -11.336150     8A    -11.274126     9A    -11.247334
      10A     -1.383744    11A     -1.295588    12A     -1.268196
      13A     -1.161782    14A     -1.066073    15A     -0.967290
      16A     -0.903887    17A     -0.844780    18A     -0.753972
      19A     -0.721839    20A     -0.689318    21A     -0.672446
      22A     -0.656849    23A     -0.628793    24A     -0.595498
      25A     -0.592910    26A     -0.578051    27A     -0.560979
      28A     -0.521882    29A     -0.474508    30A     -0.449286
      31A     -0.420929    32A     -0.385269    33A     -0.336236

  @DF-RHF Final Energy:  -431.79238809571166

   => Energetics <=

    Nuclear Repulsion Energy =            439.2020815352033196
    One-Electron Energy =               -1458.4216267093825081
    Two-Electron Energy =                 587.4271570784675305
    Total Energy =                       -431.7923880957116580
  Basis Set: (AUG-CC-PVTZ AUX)
    Blend: AUG-CC-PVTZ-RI
    Molecular point group: c1

    Geometry (in Angstrom), charge = 0, multiplicity = 1:

       Center              X                  Y                   Z               Mass
    ------------   -----------------  -----------------  -----------------  -----------------
         O           -1.441865818581     1.804600288036    -0.005080168009    15.994914619570
         N           -1.135175818581    -0.474812711964     0.009892831991    14.003074004430
         N            0.762402281419     1.049866488036     0.012859331991    14.003074004430
         N            2.874412181419     0.213052288036    -0.072599168009    14.003074004430
         C           -0.290896818581    -1.544562711964     0.002605831991    12.000000000000
         C            1.106564581419    -1.393869911964    -0.001013268009    12.000000000000
         C           -0.651421818581     0.862429288036     0.018907831991    12.000000000000
         C           -2.579269818581    -0.699223711964     0.003901831991    12.000000000000
         C            1.520120181419    -0.023791711964     0.003179831991    12.000000000000
         H           -0.769767818581    -2.520516711964    -0.006571168009     1.007825032230
         H            1.737824181419    -2.223563711964    -0.028006168009     1.007825032230
         H           -2.881031818581    -1.259042711964     0.892593831991     1.007825032230
         H           -2.875925818581    -1.245786711964    -0.894678168009     1.007825032230
         H           -3.043846818581     0.283603288036     0.010334831991     1.007825032230
         H            3.485183181419    -0.474819711964     0.350158831991     1.007825032230
         H            3.127843181419     1.177025288036     0.120970831991     1.007825032230

  Basis Set: AUG-CC-PVTZ
    Blend: AUG-CC-PVTZ
  Basis Set: (AUG-CC-PVTZ AUX)
    Blend: AUG-CC-PVTZ-JKFIT
	 Reference Energy          =    -431.7923880957116580 [Eh]
	 Singles Energy            =      -0.0000000000000000 [Eh]
	 Same-Spin Energy          =      -0.4507109862387317 [Eh]
	 Opposite-Spin Energy      =      -1.3739015221762649 [Eh]
	 Correlation Energy        =      -1.8246125084149967 [Eh]
	 Total Energy              =    -433.6170006041266447 [Eh]

	 ================> DF-SCS-MP2 Energies <==================
	-----------------------------------------------------------
	 SCS Same-Spin Scale       =       0.3333333333333333 [-]
	 SCS Opposite-Spin Scale   =       1.2000000000000000 [-]
	 SCS Same-Spin Energy      =      -0.1502369954129106 [Eh]
	 SCS Opposite-Spin Energy  =      -1.6486818266115180 [Eh]
	 SCS Correlation Energy    =      -1.7989188220244285 [Eh]
	 SCS Total Energy          =    -433.5913069177360626 [Eh]
	-----------------------------------------------------------

  Dipole Moment: [D]
     X:     1.3743      Y:    -5.6285      Z:     0.8298     Total:     5.8530

*** Psi4 exiting successfully. Buy a developer a beer!
