                               Psi4 1.3.2 release

  ==> Input File <==

--------------------------------------------------------------------------
#psi4
#
memory 32 gb

molecule  {
0 1
  O       -1.4243350     1.8531120    -0.0084660
  N       -1.1176450    -0.4263010     0.0065070
  N        0.7429240     1.0712790     0.0095610
  N        2.8919430     0.2615640    -0.0759850
  C       -0.2365457    -1.4659351    -0.0005786
  C        1.0765330    -1.3300920    -0.0040440
  C       -0.5875156     0.8932440     0.0153995
  C       -2.5617390    -0.6507120     0.0005160
  C        1.5376510     0.0247200    -0.0002060
  H       -0.7522370    -2.4720050    -0.0099570
  H        1.7553550    -2.1750520    -0.0313920
  H       -2.8635010    -1.2105310     0.8892080
  H       -2.8583950    -1.1972750    -0.8980640
  H       -3.0263160     0.3321150     0.0069490
  H        3.5027140    -0.4263080     0.3467730
  H        3.1453740     1.2255370     0.1175850
units angstrom
no_reorient  #important for SAPT in psi4, default
symmetry c1  #important for SAPT in psi4, default
}

set PROPERTIES_ORIGIN ["COM"]
properties('MP2/aug-cc-pvtz', properties = ['dipole'])
--------------------------------------------------------------------------

    Molecular point group: c1
  Charge       = 0
  Multiplicity = 1
  Basis Set: AUG-CC-PVTZ
    Blend: AUG-CC-PVTZ
  Basis Set: (AUG-CC-PVTZ AUX)
    Blend: AUG-CC-PVTZ-JKFIT

    Orbital Energies [Eh]
    ---------------------

    Doubly Occupied:

       1A    -20.490275     2A    -15.625738     3A    -15.597612
       4A    -15.547649     5A    -11.369247     6A    -11.356747
       7A    -11.325983     8A    -11.270801     9A    -11.245625
      10A     -1.369300    11A     -1.288107    12A     -1.265825
      13A     -1.183312    14A     -1.084575    15A     -0.968220
      16A     -0.893429    17A     -0.864743    18A     -0.765724
      19A     -0.724825    20A     -0.689739    21A     -0.672045
      22A     -0.655583    23A     -0.615539    24A     -0.603101
      25A     -0.587240    26A     -0.581520    27A     -0.554926
      28A     -0.516865    29A     -0.474498    30A     -0.437009
      31A     -0.415902    32A     -0.391737    33A     -0.343034

  @DF-RHF Final Energy:  -431.79306575431707

   => Energetics <=

    Nuclear Repulsion Energy =            441.8183426363302146
    One-Electron Energy =               -1463.6698664877455940
    Two-Electron Energy =                 590.0584580970981960
    Total Energy =                       -431.7930657543171264
  Basis Set: (AUG-CC-PVTZ AUX)
    Blend: AUG-CC-PVTZ-RI
    Molecular point group: c1

    Geometry (in Angstrom), charge = 0, multiplicity = 1:

       Center              X                  Y                   Z               Mass
    ------------   -----------------  -----------------  -----------------  -----------------
         O           -1.441141027642     1.804978117192    -0.005131609916    15.994914619570
         N           -1.134451027642    -0.474434882808     0.009841390084    14.003074004430
         N            0.726117972358     1.023145117192     0.012895390084    14.003074004430
         N            2.875136972358     0.213430117192    -0.072650609916    14.003074004430
         C           -0.253351727642    -1.514068982808     0.002755790084    12.000000000000
         C            1.059726972358    -1.378225882808    -0.000709609916    12.000000000000
         C           -0.604321627642     0.845110117192     0.018733890084    12.000000000000
         C           -2.578545027642    -0.698845882808     0.003850390084    12.000000000000
         C            1.520844972358    -0.023413882808     0.003128390084    12.000000000000
         H           -0.769043027642    -2.520138882808    -0.006622609916     1.007825032230
         H            1.738548972358    -2.223185882808    -0.028057609916     1.007825032230
         H           -2.880307027642    -1.258664882808     0.892542390084     1.007825032230
         H           -2.875201027642    -1.245408882808    -0.894729609916     1.007825032230
         H           -3.043122027642     0.283981117192     0.010283390084     1.007825032230
         H            3.485907972358    -0.474441882808     0.350107390084     1.007825032230
         H            3.128567972358     1.177403117192     0.120919390084     1.007825032230

  Basis Set: AUG-CC-PVTZ
    Blend: AUG-CC-PVTZ
  Basis Set: (AUG-CC-PVTZ AUX)
    Blend: AUG-CC-PVTZ-JKFIT
	 Reference Energy          =    -431.7930657543170696 [Eh]
	 Singles Energy            =      -0.0000000000000000 [Eh]
	 Same-Spin Energy          =      -0.4508475191745557 [Eh]
	 Opposite-Spin Energy      =      -1.3725240917138808 [Eh]
	 Correlation Energy        =      -1.8233716108884366 [Eh]
	 Total Energy              =    -433.6164373652055133 [Eh]

	 ================> DF-SCS-MP2 Energies <==================
	-----------------------------------------------------------
	 SCS Same-Spin Scale       =       0.3333333333333333 [-]
	 SCS Opposite-Spin Scale   =       1.2000000000000000 [-]
	 SCS Same-Spin Energy      =      -0.1502825063915185 [Eh]
	 SCS Opposite-Spin Energy  =      -1.6470289100566569 [Eh]
	 SCS Correlation Energy    =      -1.7973114164481754 [Eh]
	 SCS Total Energy          =    -433.5903771707652368 [Eh]
	-----------------------------------------------------------

  Dipole Moment: [D]
     X:     2.1777      Y:    -5.8937      Z:     0.8309     Total:     6.3378

*** Psi4 exiting successfully. Buy a developer a beer!
