                               Psi4 1.3.2 release

  ==> Input File <==

--------------------------------------------------------------------------
#psi4
#
memory 32 gb

molecule  {
0 1
  O       -1.4243350     1.8531120    -0.0084660
  N       -1.0942331    -0.4345387     0.0063105
  N        0.7455115     1.0472265     0.0093386
  N        2.8919430     0.2615640    -0.0759850
  C       -0.2733660    -1.4960510    -0.0007800
  C        1.0765330    -1.3300920    -0.0040440
  C       -0.6338910     0.9109410     0.0155220
  C       -2.5617390    -0.6507120     0.0005160
  C        1.5376510     0.0247200    -0.0002060
  H       -0.7522370    -2.4720050    -0.0099570
  H        1.7553550    -2.1750520    -0.0313920
  H       -2.8635010    -1.2105310     0.8892080
  H       -2.8583950    -1.1972750    -0.8980640
  H       -3.0263160     0.3321150     0.0069490
  H        3.5027140    -0.4263080     0.3467730
  H        3.1453740     1.2255370     0.1175850
units angstrom
no_reorient  #important for SAPT in psi4, default
symmetry c1  #important for SAPT in psi4, default
}

set PROPERTIES_ORIGIN ["COM"]
properties('MP2/aug-cc-pvtz', properties = ['dipole'])
--------------------------------------------------------------------------

    Molecular point group: c1
  Charge       = 0
  Multiplicity = 1
  Basis Set: AUG-CC-PVTZ
    Blend: AUG-CC-PVTZ
  Basis Set: (AUG-CC-PVTZ AUX)
    Blend: AUG-CC-PVTZ-JKFIT

    Orbital Energies [Eh]
    ---------------------

    Doubly Occupied:

       1A    -20.507687     2A    -15.625973     3A    -15.588381
       4A    -15.540300     5A    -11.375272     6A    -11.344555
       7A    -11.323898     8A    -11.273104     9A    -11.241974
      10A     -1.385062    11A     -1.300679    12A     -1.268810
      13A     -1.172274    14A     -1.070066    15A     -0.965823
      16A     -0.900608    17A     -0.856617    18A     -0.759257
      19A     -0.725073    20A     -0.684316    21A     -0.672233
      22A     -0.656012    23A     -0.622758    24A     -0.601130
      25A     -0.590339    26A     -0.581485    27A     -0.562611
      28A     -0.522649    29A     -0.480241    30A     -0.442609
      31A     -0.417150    32A     -0.389125    33A     -0.337379

  @DF-RHF Final Energy:  -431.80068838511022

   => Energetics <=

    Nuclear Repulsion Energy =            441.6376265687998171
    One-Electron Energy =               -1463.3057278370101812
    Two-Electron Energy =                 589.8674128831002008
    Total Energy =                       -431.8006883851102202
  Basis Set: (AUG-CC-PVTZ AUX)
    Blend: AUG-CC-PVTZ-RI
    Molecular point group: c1

    Geometry (in Angstrom), charge = 0, multiplicity = 1:

       Center              X                  Y                   Z               Mass
    ------------   -----------------  -----------------  -----------------  -----------------
         O           -1.436069202945     1.809785362443    -0.005077134089    15.994914619570
         N           -1.105967302945    -0.477865337557     0.009699365911    14.003074004430
         N            0.733777297055     1.003899862443     0.012727465911    14.003074004430
         N            2.880208797055     0.218237362443    -0.072596134089    14.003074004430
         C           -0.285100202945    -1.539377637557     0.002608865911    12.000000000000
         C            1.064798797055    -1.373418637557    -0.000655134089    12.000000000000
         C           -0.645625202945     0.867614362443     0.018910865911    12.000000000000
         C           -2.573473202945    -0.694038637557     0.003904865911    12.000000000000
         C            1.525916797055    -0.018606637557     0.003182865911    12.000000000000
         H           -0.763971202945    -2.515331637557    -0.006568134089     1.007825032230
         H            1.743620797055    -2.218378637557    -0.028003134089     1.007825032230
         H           -2.875235202945    -1.253857637557     0.892596865911     1.007825032230
         H           -2.870129202945    -1.240601637557    -0.894675134089     1.007825032230
         H           -3.038050202945     0.288788362443     0.010337865911     1.007825032230
         H            3.490979797055    -0.469634637557     0.350161865911     1.007825032230
         H            3.133639797055     1.182210362443     0.120973865911     1.007825032230

  Basis Set: AUG-CC-PVTZ
    Blend: AUG-CC-PVTZ
  Basis Set: (AUG-CC-PVTZ AUX)
    Blend: AUG-CC-PVTZ-JKFIT
	 Reference Energy          =    -431.8006883851102202 [Eh]
	 Singles Energy            =      -0.0000000000000000 [Eh]
	 Same-Spin Energy          =      -0.4504053529386985 [Eh]
	 Opposite-Spin Energy      =      -1.3718078925165420 [Eh]
	 Correlation Energy        =      -1.8222132454552404 [Eh]
	 Total Energy              =    -433.6229016305654795 [Eh]

	 ================> DF-SCS-MP2 Energies <==================
	-----------------------------------------------------------
	 SCS Same-Spin Scale       =       0.3333333333333333 [-]
	 SCS Opposite-Spin Scale   =       1.2000000000000000 [-]
	 SCS Same-Spin Energy      =      -0.1501351176462328 [Eh]
	 SCS Opposite-Spin Energy  =      -1.6461694710198504 [Eh]
	 SCS Correlation Energy    =      -1.7963045886660833 [Eh]
	 SCS Total Energy          =    -433.5969929737763096 [Eh]
	-----------------------------------------------------------

  Dipole Moment: [D]
     X:     1.5093      Y:    -5.5377      Z:     0.8359     Total:     5.8003

*** Psi4 exiting successfully. Buy a developer a beer!
