                               Psi4 1.4a3.dev225

  ==> Input File <==

--------------------------------------------------------------------------
#psi4
#
memory 32 gb

molecule  {
0 1
  O       -1.4602810    -1.8042760    -0.0008590
  N       -1.1067000     0.4494610     0.0014260
  N        0.7338450    -1.0777760     0.0056990
  N        2.8872480    -0.2944040    -0.0665390
  C       -0.2576190     1.5082170    -0.0002850
  C        1.0914800     1.3228940    -0.0047970
  C       -0.6483126    -0.8482857    -0.0013801
  C       -2.5563510     0.6193970     0.0049040
  C        1.5404980    -0.0347530    -0.0000590
  H       -0.7147670     2.4940890    -0.0022110
  H        1.7746080     2.1637920    -0.0246520
  H       -2.7835150     1.6863950     0.0041520
  H       -2.9802500     0.1433220     0.8903410
  H       -2.9840040     0.1411790    -0.8774920
  H        3.5206970     0.4000120     0.3068300
  H        3.1306380    -1.2574880     0.1361150
units angstrom
no_reorient  #important for SAPT in psi4, default
symmetry c1  #important for SAPT in psi4, default
}

set PROPERTIES_ORIGIN ["COM"]
properties('MP2/aug-cc-pvtz', properties = ['dipole'])
--------------------------------------------------------------------------

    Molecular point group: c1
  Charge       = 0
  Multiplicity = 1
  Basis Set: AUG-CC-PVTZ
    Blend: AUG-CC-PVTZ
  Basis Set: (AUG-CC-PVTZ AUX)
    Blend: AUG-CC-PVTZ-JKFIT

    Orbital Energies [Eh]
    ---------------------

    Doubly Occupied:

       1A    -20.496505     2A    -15.632025     3A    -15.591022
       4A    -15.545023     5A    -11.367238     6A    -11.347362
       7A    -11.330584     8A    -11.276673     9A    -11.248300
      10A     -1.379031    11A     -1.289841    12A     -1.271617
      13A     -1.167737    14A     -1.075881    15A     -0.971695
      16A     -0.910424    17A     -0.850636    18A     -0.761601
      19A     -0.726172    20A     -0.689164    21A     -0.674265
      22A     -0.661428    23A     -0.621904    24A     -0.604063
      25A     -0.584268    26A     -0.576114    27A     -0.565373
      28A     -0.515786    29A     -0.475436    30A     -0.438131
      31A     -0.418795    32A     -0.384723    33A     -0.339203

  @DF-RHF Final Energy:  -431.79923600096129

   => Energetics <=

    Nuclear Repulsion Energy =            441.8672766414667876
    One-Electron Energy =               -1463.7569877454732250
    Two-Electron Energy =                 590.0904751030451507
    Total Energy =                       -431.7992360009612867
  Basis Set: (AUG-CC-PVTZ AUX)
    Blend: AUG-CC-PVTZ-RI
    Molecular point group: c1

    Geometry (in Angstrom), charge = 0, multiplicity = 1:

       Center              X                  Y                   Z               Mass
    ------------   -----------------  -----------------  -----------------  -----------------
         O           -1.467028234191    -1.763063025095     0.002568597248    15.994914619570
         N           -1.113447234191     0.490673974905     0.004853597248    14.003074004430
         N            0.727097765809    -1.036563025095     0.009126597248    14.003074004430
         N            2.880500765809    -0.253191025095    -0.063111402752    14.003074004430
         C           -0.264366234191     1.549429974905     0.003142597248    12.000000000000
         C            1.084732765809     1.364106974905    -0.001369402752    12.000000000000
         C           -0.655059834191    -0.807072725095     0.002047497248    12.000000000000
         C           -2.563098234191     0.660609974905     0.008331597248    12.000000000000
         C            1.533750765809     0.006459974905     0.003368597248    12.000000000000
         H           -0.721514234191     2.535301974905     0.001216597248     1.007825032230
         H            1.767860765809     2.205004974905    -0.021224402752     1.007825032230
         H           -2.790262234191     1.727607974905     0.007579597248     1.007825032230
         H           -2.986997234191     0.184534974905     0.893768597248     1.007825032230
         H           -2.990751234191     0.182391974905    -0.874064402752     1.007825032230
         H            3.513949765809     0.441224974905     0.310257597248     1.007825032230
         H            3.123890765809    -1.216275025095     0.139542597248     1.007825032230

  Basis Set: AUG-CC-PVTZ
    Blend: AUG-CC-PVTZ
  Basis Set: (AUG-CC-PVTZ AUX)
    Blend: AUG-CC-PVTZ-JKFIT
	 Reference Energy          =    -431.7992360009612867 [Eh]
	 Singles Energy            =      -0.0000000000000000 [Eh]
	 Same-Spin Energy          =      -0.4507647321645391 [Eh]
	 Opposite-Spin Energy      =      -1.3730400964172884 [Eh]
	 Correlation Energy        =      -1.8238048285818276 [Eh]
	 Total Energy              =    -433.6230408295431289 [Eh]

	 ================> DF-SCS-MP2 Energies <==================
	-----------------------------------------------------------
	 SCS Same-Spin Scale       =       0.3333333333333333 [-]
	 SCS Opposite-Spin Scale   =       1.2000000000000000 [-]
	 SCS Same-Spin Energy      =      -0.1502549107215130 [Eh]
	 SCS Opposite-Spin Energy  =      -1.6476481157007461 [Eh]
	 SCS Correlation Energy    =      -1.7979030264222591 [Eh]
	 SCS Total Energy          =    -433.5971390273835482 [Eh]
	-----------------------------------------------------------

  Dipole Moment: [D]
     X:     1.8232      Y:     5.9206      Z:     0.7720     Total:     6.2429

*** Psi4 exiting successfully. Buy a developer a beer!
