                               Psi4 1.3.2 release

  ==> Input File <==

--------------------------------------------------------------------------
#psi4
#
memory 32 gb

molecule  {
0 1
  O       -1.4243350     1.8531120    -0.0084660
  N       -1.1176450    -0.4263010     0.0065070
  N        0.7429240     1.0712790     0.0095610
  N        2.8919430     0.2615640    -0.0759850
  C       -0.2827336    -1.5033777    -0.0008290
  C        1.0765330    -1.3300920    -0.0040440
  C       -0.6455792     0.9151115     0.0155509
  C       -2.5617390    -0.6507120     0.0005160
  C        1.5376510     0.0247200    -0.0002060
  H       -0.7522370    -2.4720050    -0.0099570
  H        1.7553550    -2.1750520    -0.0313920
  H       -2.8635010    -1.2105310     0.8892080
  H       -2.8583950    -1.1972750    -0.8980640
  H       -3.0263160     0.3321150     0.0069490
  H        3.5027140    -0.4263080     0.3467730
  H        3.1453740     1.2255370     0.1175850
units angstrom
no_reorient  #important for SAPT in psi4, default
symmetry c1  #important for SAPT in psi4, default
}

set PROPERTIES_ORIGIN ["COM"]
properties('MP2/aug-cc-pvtz', properties = ['dipole'])
--------------------------------------------------------------------------

    Molecular point group: c1
  Charge       = 0
  Multiplicity = 1
  Basis Set: AUG-CC-PVTZ
    Blend: AUG-CC-PVTZ
  Basis Set: (AUG-CC-PVTZ AUX)
    Blend: AUG-CC-PVTZ-JKFIT

    Orbital Energies [Eh]
    ---------------------

    Doubly Occupied:

       1A    -20.506863     2A    -15.625367     3A    -15.590041
       4A    -15.542526     5A    -11.372923     6A    -11.347429
       7A    -11.327568     8A    -11.270402     9A    -11.246122
      10A     -1.387811    11A     -1.297652    12A     -1.266903
      13A     -1.167522    14A     -1.069908    15A     -0.964558
      16A     -0.900954    17A     -0.850917    18A     -0.757507
      19A     -0.724074    20A     -0.684795    21A     -0.674790
      22A     -0.655699    23A     -0.624536    24A     -0.602633
      25A     -0.592022    26A     -0.579151    27A     -0.559422
      28A     -0.523572    29A     -0.476801    30A     -0.443562
      31A     -0.418535    32A     -0.386677    33A     -0.337658

  @DF-RHF Final Energy:  -431.80055356183374

   => Energetics <=

    Nuclear Repulsion Energy =            440.7120050625873660
    One-Electron Energy =               -1461.4713156343161700
    Two-Electron Energy =                 588.9587570098949527
    Total Energy =                       -431.8005535618337944
  Basis Set: (AUG-CC-PVTZ AUX)
    Blend: AUG-CC-PVTZ-RI
    Molecular point group: c1

    Geometry (in Angstrom), charge = 0, multiplicity = 1:

       Center              X                  Y                   Z               Mass
    ------------   -----------------  -----------------  -----------------  -----------------
         O           -1.431137598207     1.806472622439    -0.005122110393    15.994914619570
         N           -1.124447598207    -0.472940377561     0.009850889607    14.003074004430
         N            0.736121401793     1.024639622439     0.012904889607    14.003074004430
         N            2.885140401793     0.214924622439    -0.072641110393    14.003074004430
         C           -0.289536198207    -1.550017077561     0.002514889607    12.000000000000
         C            1.069730401793    -1.376731377561    -0.000700110393    12.000000000000
         C           -0.652381798207     0.868472122439     0.018894789607    12.000000000000
         C           -2.568541598207    -0.697351377561     0.003859889607    12.000000000000
         C            1.530848401793    -0.021919377561     0.003137889607    12.000000000000
         H           -0.759039598207    -2.518644377561    -0.006613110393     1.007825032230
         H            1.748552401793    -2.221691377561    -0.028048110393     1.007825032230
         H           -2.870303598207    -1.257170377561     0.892551889607     1.007825032230
         H           -2.865197598207    -1.243914377561    -0.894720110393     1.007825032230
         H           -3.033118598207     0.285475622439     0.010292889607     1.007825032230
         H            3.495911401793    -0.472947377561     0.350116889607     1.007825032230
         H            3.138571401793     1.178897622439     0.120928889607     1.007825032230

  Basis Set: AUG-CC-PVTZ
    Blend: AUG-CC-PVTZ
  Basis Set: (AUG-CC-PVTZ AUX)
    Blend: AUG-CC-PVTZ-JKFIT
	 Reference Energy          =    -431.8005535618337376 [Eh]
	 Singles Energy            =      -0.0000000000000000 [Eh]
	 Same-Spin Energy          =      -0.4503226795449737 [Eh]
	 Opposite-Spin Energy      =      -1.3722026389603410 [Eh]
	 Correlation Energy        =      -1.8225253185053147 [Eh]
	 Total Energy              =    -433.6230788803390510 [Eh]

	 ================> DF-SCS-MP2 Energies <==================
	-----------------------------------------------------------
	 SCS Same-Spin Scale       =       0.3333333333333333 [-]
	 SCS Opposite-Spin Scale   =       1.2000000000000000 [-]
	 SCS Same-Spin Energy      =      -0.1501075598483246 [Eh]
	 SCS Opposite-Spin Energy  =      -1.6466431667524091 [Eh]
	 SCS Correlation Energy    =      -1.7967507266007336 [Eh]
	 SCS Total Energy          =    -433.5973042884344864 [Eh]
	-----------------------------------------------------------

  Dipole Moment: [D]
     X:     1.5867      Y:    -5.5645      Z:     0.8328     Total:     5.8460

*** Psi4 exiting successfully. Buy a developer a beer!
