                               Psi4 1.3.2 release

  ==> Input File <==

--------------------------------------------------------------------------
#psi4
#
memory 32 gb

molecule  {
0 1
  O       -1.4243350     1.8531120    -0.0084660
  N       -1.1176450    -0.4263010     0.0065070
  N        0.7069564     1.0429362     0.0122191
  N        2.8994468     0.2141025    -0.0749772
  C       -0.2733660    -1.4960510    -0.0007800
  C        1.0765330    -1.3300920    -0.0040440
  C       -0.6338910     0.9109410     0.0155220
  C       -2.5617390    -0.6507120     0.0005160
  C        1.5376510     0.0247200    -0.0002060
  H       -0.7522370    -2.4720050    -0.0099570
  H        1.7553550    -2.1750520    -0.0313920
  H       -2.8635010    -1.2105310     0.8892080
  H       -2.8583950    -1.1972750    -0.8980640
  H       -3.0263160     0.3321150     0.0069490
  H        3.5027140    -0.4263080     0.3467730
  H        3.1453740     1.2255370     0.1175850
units angstrom
no_reorient  #important for SAPT in psi4, default
symmetry c1  #important for SAPT in psi4, default
}

set PROPERTIES_ORIGIN ["COM"]
properties('MP2/aug-cc-pvtz', properties = ['dipole'])
--------------------------------------------------------------------------

    Molecular point group: c1
  Charge       = 0
  Multiplicity = 1
  Basis Set: AUG-CC-PVTZ
    Blend: AUG-CC-PVTZ
  Basis Set: (AUG-CC-PVTZ AUX)
    Blend: AUG-CC-PVTZ-JKFIT

    Orbital Energies [Eh]
    ---------------------

    Doubly Occupied:

       1A    -20.499636     2A    -15.623086     3A    -15.596053
       4A    -15.540636     5A    -11.368599     6A    -11.353663
       7A    -11.325512     8A    -11.268655     9A    -11.243617
      10A     -1.383279    11A     -1.296207    12A     -1.266626
      13A     -1.180776    14A     -1.071723    15A     -0.965811
      16A     -0.896670    17A     -0.863642    18A     -0.758073
      19A     -0.729229    20A     -0.694416    21A     -0.670135
      22A     -0.655359    23A     -0.618273    24A     -0.598078
      25A     -0.593589    26A     -0.582030    27A     -0.557438
      28A     -0.522660    29A     -0.475372    30A     -0.434974
      31A     -0.418424    32A     -0.390776    33A     -0.338097

  @DF-RHF Final Energy:  -431.79666627669900

   => Energetics <=

    Nuclear Repulsion Energy =            441.8662304019583758
    One-Electron Energy =               -1463.7635696101417579
    Two-Electron Energy =                 590.1006729314844961
    Total Energy =                       -431.7966662766989430
  Basis Set: (AUG-CC-PVTZ AUX)
    Blend: AUG-CC-PVTZ-RI
    Molecular point group: c1

    Geometry (in Angstrom), charge = 0, multiplicity = 1:

       Center              X                  Y                   Z               Mass
    ------------   -----------------  -----------------  -----------------  -----------------
         O           -1.429970859303     1.814657715429    -0.005534516580    15.994914619570
         N           -1.123280859303    -0.464755284571     0.009438483420    14.003074004430
         N            0.701320540697     1.004481915429     0.015150583420    14.003074004430
         N            2.893810940697     0.175648215429    -0.072045716580    14.003074004430
         C           -0.279001859303    -1.534505284571     0.002151483420    12.000000000000
         C            1.070897140697    -1.368546284571    -0.001112516580    12.000000000000
         C           -0.639526859303     0.872486715429     0.018453483420    12.000000000000
         C           -2.567374859303    -0.689166284571     0.003447483420    12.000000000000
         C            1.532015140697    -0.013734284571     0.002725483420    12.000000000000
         H           -0.757872859303    -2.510459284571    -0.007025516580     1.007825032230
         H            1.749719140697    -2.213506284571    -0.028460516580     1.007825032230
         H           -2.869136859303    -1.248985284571     0.892139483420     1.007825032230
         H           -2.864030859303    -1.235729284571    -0.895132516580     1.007825032230
         H           -3.031951859303     0.293660715429     0.009880483420     1.007825032230
         H            3.497078140697    -0.464762284571     0.349704483420     1.007825032230
         H            3.139738140697     1.187082715429     0.120516483420     1.007825032230

  Basis Set: AUG-CC-PVTZ
    Blend: AUG-CC-PVTZ
  Basis Set: (AUG-CC-PVTZ AUX)
    Blend: AUG-CC-PVTZ-JKFIT
	 Reference Energy          =    -431.7966662766989998 [Eh]
	 Singles Energy            =      -0.0000000000000000 [Eh]
	 Same-Spin Energy          =      -0.4507541028010662 [Eh]
	 Opposite-Spin Energy      =      -1.3718937976738004 [Eh]
	 Correlation Energy        =      -1.8226479004748666 [Eh]
	 Total Energy              =    -433.6193141771738624 [Eh]

	 ================> DF-SCS-MP2 Energies <==================
	-----------------------------------------------------------
	 SCS Same-Spin Scale       =       0.3333333333333333 [-]
	 SCS Opposite-Spin Scale   =       1.2000000000000000 [-]
	 SCS Same-Spin Energy      =      -0.1502513676003554 [Eh]
	 SCS Opposite-Spin Energy  =      -1.6462725572085604 [Eh]
	 SCS Correlation Energy    =      -1.7965239248089158 [Eh]
	 SCS Total Energy          =    -433.5931902015079231 [Eh]
	-----------------------------------------------------------

  Dipole Moment: [D]
     X:     1.9013      Y:    -5.5749      Z:     0.8347     Total:     5.9490

*** Psi4 exiting successfully. Buy a developer a beer!
