                               Psi4 1.4a3.dev225

  ==> Input File <==

--------------------------------------------------------------------------
#psi4
#
memory 32 gb

molecule  {
0 1
  O       -1.4602810    -1.8042760    -0.0008590
  N       -1.1067000     0.4494610     0.0014260
  N        0.7338450    -1.0777760     0.0056990
  N        2.8872480    -0.2944040    -0.0665390
  C       -0.2576190     1.5082170    -0.0002850
  C        1.0914800     1.3228940    -0.0047970
  C       -0.6150074    -0.9425763    -0.0015839
  C       -2.5563510     0.6193970     0.0049040
  C        1.5404980    -0.0347530    -0.0000590
  H       -0.7147670     2.4940890    -0.0022110
  H        1.7746080     2.1637920    -0.0246520
  H       -2.7835150     1.6863950     0.0041520
  H       -2.9802500     0.1433220     0.8903410
  H       -2.9840040     0.1411790    -0.8774920
  H        3.5206970     0.4000120     0.3068300
  H        3.1306380    -1.2574880     0.1361150
units angstrom
no_reorient  #important for SAPT in psi4, default
symmetry c1  #important for SAPT in psi4, default
}

set PROPERTIES_ORIGIN ["COM"]
properties('MP2/aug-cc-pvtz', properties = ['dipole'])
--------------------------------------------------------------------------

    Molecular point group: c1
  Charge       = 0
  Multiplicity = 1
  Basis Set: AUG-CC-PVTZ
    Blend: AUG-CC-PVTZ
  Basis Set: (AUG-CC-PVTZ AUX)
    Blend: AUG-CC-PVTZ-JKFIT

    Orbital Energies [Eh]
    ---------------------

    Doubly Occupied:

       1A    -20.509370     2A    -15.619438     3A    -15.592201
       4A    -15.540528     5A    -11.371231     6A    -11.351802
       7A    -11.325550     8A    -11.270357     9A    -11.238806
      10A     -1.392579    11A     -1.298375    12A     -1.262879
      13A     -1.175715    14A     -1.069287    15A     -0.959753
      16A     -0.887163    17A     -0.860137    18A     -0.757475
      19A     -0.722912    20A     -0.683825    21A     -0.673688
      22A     -0.649934    23A     -0.626264    24A     -0.602794
      25A     -0.591466    26A     -0.577614    27A     -0.564110
      28A     -0.521344    29A     -0.481565    30A     -0.448934
      31A     -0.414771    32A     -0.386337    33A     -0.335054

  @DF-RHF Final Energy:  -431.80218206712345

   => Energetics <=

    Nuclear Repulsion Energy =            441.3220362377118704
    One-Electron Energy =               -1462.7219168437006829
    Two-Electron Energy =                 589.5976985388653020
    Total Energy =                       -431.8021820671234536
  Basis Set: (AUG-CC-PVTZ AUX)
    Blend: AUG-CC-PVTZ-RI
    Molecular point group: c1

    Geometry (in Angstrom), charge = 0, multiplicity = 1:

       Center              X                  Y                   Z               Mass
    ------------   -----------------  -----------------  -----------------  -----------------
         O           -1.470224027230    -1.754015391598     0.002588152832    15.994914619570
         N           -1.116643027230     0.499721608402     0.004873152832    14.003074004430
         N            0.723901972770    -1.027515391598     0.009146152832    14.003074004430
         N            2.877304972770    -0.244143391598    -0.063091847168    14.003074004430
         C           -0.267562027230     1.558477608402     0.003162152832    12.000000000000
         C            1.081536972770     1.373154608402    -0.001349847168    12.000000000000
         C           -0.624950427230    -0.892315691598     0.001863252832    12.000000000000
         C           -2.566294027230     0.669657608402     0.008351152832    12.000000000000
         C            1.530554972770     0.015507608402     0.003388152832    12.000000000000
         H           -0.724710027230     2.544349608402     0.001236152832     1.007825032230
         H            1.764664972770     2.214052608402    -0.021204847168     1.007825032230
         H           -2.793458027230     1.736655608402     0.007599152832     1.007825032230
         H           -2.990193027230     0.193582608402     0.893788152832     1.007825032230
         H           -2.993947027230     0.191439608402    -0.874044847168     1.007825032230
         H            3.510753972770     0.450272608402     0.310277152832     1.007825032230
         H            3.120694972770    -1.207227391598     0.139562152832     1.007825032230

  Basis Set: AUG-CC-PVTZ
    Blend: AUG-CC-PVTZ
  Basis Set: (AUG-CC-PVTZ AUX)
    Blend: AUG-CC-PVTZ-JKFIT
	 Reference Energy          =    -431.8021820671234536 [Eh]
	 Singles Energy            =      -0.0000000000000000 [Eh]
	 Same-Spin Energy          =      -0.4502799811199477 [Eh]
	 Opposite-Spin Energy      =      -1.3711954940468263 [Eh]
	 Correlation Energy        =      -1.8214754751667739 [Eh]
	 Total Energy              =    -433.6236575422902320 [Eh]

	 ================> DF-SCS-MP2 Energies <==================
	-----------------------------------------------------------
	 SCS Same-Spin Scale       =       0.3333333333333333 [-]
	 SCS Opposite-Spin Scale   =       1.2000000000000000 [-]
	 SCS Same-Spin Energy      =      -0.1500933270399826 [Eh]
	 SCS Opposite-Spin Energy  =      -1.6454345928561915 [Eh]
	 SCS Correlation Energy    =      -1.7955279198961740 [Eh]
	 SCS Total Energy          =    -433.5977099870196412 [Eh]
	-----------------------------------------------------------

  Dipole Moment: [D]
     X:     1.7919      Y:     5.2821      Z:     0.7664     Total:     5.6301

*** Psi4 exiting successfully. Buy a developer a beer!
