                               Psi4 1.3.2 release

  ==> Input File <==

--------------------------------------------------------------------------
#psi4
#
memory 32 gb

molecule  {
0 1
  O       -1.4243350     1.8531120    -0.0084660
  N       -1.1176450    -0.4263010     0.0065070
  N        0.7429240     1.0712790     0.0095610
  N        2.8919430     0.2615640    -0.0759850
  C       -0.3972695    -1.3390581     0.0002894
  C        1.0765330    -1.3300920    -0.0040440
  C       -0.6338910     0.9109410     0.0155220
  C       -2.5617390    -0.6507120     0.0005160
  C        1.5376510     0.0247200    -0.0002060
  H       -0.7522370    -2.4720050    -0.0099570
  H        1.7553550    -2.1750520    -0.0313920
  H       -2.8635010    -1.2105310     0.8892080
  H       -2.8583950    -1.1972750    -0.8980640
  H       -3.0263160     0.3321150     0.0069490
  H        3.5027140    -0.4263080     0.3467730
  H        3.1453740     1.2255370     0.1175850
units angstrom
no_reorient  #important for SAPT in psi4, default
symmetry c1  #important for SAPT in psi4, default
}

set PROPERTIES_ORIGIN ["COM"]
properties('MP2/aug-cc-pvtz', properties = ['dipole'])
--------------------------------------------------------------------------

    Molecular point group: c1
  Charge       = 0
  Multiplicity = 1
  Basis Set: AUG-CC-PVTZ
    Blend: AUG-CC-PVTZ
  Basis Set: (AUG-CC-PVTZ AUX)
    Blend: AUG-CC-PVTZ-JKFIT

    Orbital Energies [Eh]
    ---------------------

    Doubly Occupied:

       1A    -20.514958     2A    -15.649275     3A    -15.578039
       4A    -15.536134     5A    -11.381422     6A    -11.334078
       7A    -11.332320     8A    -11.288891     9A    -11.231943
      10A     -1.424908    11A     -1.344788    12A     -1.271953
      13A     -1.167565    14A     -1.050540    15A     -0.988245
      16A     -0.926189    17A     -0.847198    18A     -0.758665
      19A     -0.730053    20A     -0.695548    21A     -0.688212
      22A     -0.663863    23A     -0.626151    24A     -0.603066
      25A     -0.589011    26A     -0.586607    27A     -0.539479
      28A     -0.524868    29A     -0.504055    30A     -0.445034
      31A     -0.415839    32A     -0.385759    33A     -0.315322

  @DF-RHF Final Energy:  -431.73973416253466

   => Energetics <=

    Nuclear Repulsion Energy =            444.2302400338770099
    One-Electron Energy =               -1468.0599858305663474
    Two-Electron Energy =                 592.0900116341547346
    Total Energy =                       -431.7397341625346598
  Basis Set: (AUG-CC-PVTZ AUX)
    Blend: AUG-CC-PVTZ-RI
    Molecular point group: c1

    Geometry (in Angstrom), charge = 0, multiplicity = 1:

       Center              X                  Y                   Z               Mass
    ------------   -----------------  -----------------  -----------------  -----------------
         O           -1.421268870088     1.791105551261    -0.005226653123    15.994914619570
         N           -1.114578870088    -0.488307448739     0.009746346877    14.003074004430
         N            0.745990129912     1.009272551261     0.012800346877    14.003074004430
         N            2.895009129912     0.199557551261    -0.072745653123    14.003074004430
         C           -0.394203370088    -1.401064548739     0.003528746877    12.000000000000
         C            1.079599129912    -1.392098448739    -0.000804653123    12.000000000000
         C           -0.630824870088     0.848934551261     0.018761346877    12.000000000000
         C           -2.558672870088    -0.712718448739     0.003755346877    12.000000000000
         C            1.540717129912    -0.037286448739     0.003033346877    12.000000000000
         H           -0.749170870088    -2.534011448739    -0.006717653123     1.007825032230
         H            1.758421129912    -2.237058448739    -0.028152653123     1.007825032230
         H           -2.860434870088    -1.272537448739     0.892447346877     1.007825032230
         H           -2.855328870088    -1.259281448739    -0.894824653123     1.007825032230
         H           -3.023249870088     0.270108551261     0.010188346877     1.007825032230
         H            3.505780129912    -0.488314448739     0.350012346877     1.007825032230
         H            3.148440129912     1.163530551261     0.120824346877     1.007825032230

  Basis Set: AUG-CC-PVTZ
    Blend: AUG-CC-PVTZ
  Basis Set: (AUG-CC-PVTZ AUX)
    Blend: AUG-CC-PVTZ-JKFIT
	 Reference Energy          =    -431.7397341625346598 [Eh]
	 Singles Energy            =      -0.0000000000000000 [Eh]
	 Same-Spin Energy          =      -0.4517548931693207 [Eh]
	 Opposite-Spin Energy      =      -1.3721831614482318 [Eh]
	 Correlation Energy        =      -1.8239380546175525 [Eh]
	 Total Energy              =    -433.5636722171522024 [Eh]

	 ================> DF-SCS-MP2 Energies <==================
	-----------------------------------------------------------
	 SCS Same-Spin Scale       =       0.3333333333333333 [-]
	 SCS Opposite-Spin Scale   =       1.2000000000000000 [-]
	 SCS Same-Spin Energy      =      -0.1505849643897736 [Eh]
	 SCS Opposite-Spin Energy  =      -1.6466197937378781 [Eh]
	 SCS Correlation Energy    =      -1.7972047581276518 [Eh]
	 SCS Total Energy          =    -433.5369389206622941 [Eh]
	-----------------------------------------------------------

  Dipole Moment: [D]
     X:     0.5572      Y:    -5.4233      Z:     0.8288     Total:     5.5145

*** Psi4 exiting successfully. Buy a developer a beer!
