                               Psi4 1.3.2 release

  ==> Input File <==

--------------------------------------------------------------------------
#psi4
#
memory 32 gb

molecule  {
0 1
  O       -1.4243350     1.8531120    -0.0084660
  N       -1.1176450    -0.4263010     0.0065070
  N        0.7429240     1.0712790     0.0095610
  N        2.8919430     0.2615640    -0.0759850
  C       -0.2667573    -1.5430425    -0.0021196
  C        1.0765330    -1.3300920    -0.0040440
  C       -0.6338910     0.9109410     0.0155220
  C       -2.5617390    -0.6507120     0.0005160
  C        1.5376510     0.0247200    -0.0002060
  H       -0.7522370    -2.4720050    -0.0099570
  H        1.7254382    -2.1982239    -0.0318594
  H       -2.8635010    -1.2105310     0.8892080
  H       -2.8583950    -1.1972750    -0.8980640
  H       -3.0263160     0.3321150     0.0069490
  H        3.5027140    -0.4263080     0.3467730
  H        3.1453740     1.2255370     0.1175850
units angstrom
no_reorient  #important for SAPT in psi4, default
symmetry c1  #important for SAPT in psi4, default
}

set PROPERTIES_ORIGIN ["COM"]
properties('MP2/aug-cc-pvtz', properties = ['dipole'])
--------------------------------------------------------------------------

    Molecular point group: c1
  Charge       = 0
  Multiplicity = 1
  Basis Set: AUG-CC-PVTZ
    Blend: AUG-CC-PVTZ
  Basis Set: (AUG-CC-PVTZ AUX)
    Blend: AUG-CC-PVTZ-JKFIT

    Orbital Energies [Eh]
    ---------------------

    Doubly Occupied:

       1A    -20.502313     2A    -15.621432     3A    -15.593353
       4A    -15.545291     5A    -11.371443     6A    -11.352360
       7A    -11.327127     8A    -11.267081     9A    -11.250266
      10A     -1.379090    11A     -1.292789    12A     -1.260311
      13A     -1.170859    14A     -1.074434    15A     -0.960120
      16A     -0.901324    17A     -0.852153    18A     -0.757092
      19A     -0.727531    20A     -0.683319    21A     -0.677597
      22A     -0.650058    23A     -0.625314    24A     -0.608275
      25A     -0.588934    26A     -0.578932    27A     -0.551768
      28A     -0.521574    29A     -0.470939    30A     -0.441022
      31A     -0.420410    32A     -0.387617    33A     -0.340985

  @DF-RHF Final Energy:  -431.79647545485057

   => Energetics <=

    Nuclear Repulsion Energy =            439.9773961268550693
    One-Electron Energy =               -1460.0415228566323549
    Two-Electron Energy =                 588.2676512749267204
    Total Energy =                       -431.7964754548505653
  Basis Set: (AUG-CC-PVTZ AUX)
    Blend: AUG-CC-PVTZ-RI
    Molecular point group: c1

    Geometry (in Angstrom), charge = 0, multiplicity = 1:

       Center              X                  Y                   Z               Mass
    ------------   -----------------  -----------------  -----------------  -----------------
         O           -1.433551045562     1.810865566634    -0.004991731381    15.994914619570
         N           -1.126861045562    -0.468547433366     0.009981268619    14.003074004430
         N            0.733707954438     1.029032566634     0.013035268619    14.003074004430
         N            2.882726954438     0.219317566634    -0.072510731381    14.003074004430
         C           -0.275973345562    -1.585288933366     0.001354668619    12.000000000000
         C            1.067316954438    -1.372338433366    -0.000569731381    12.000000000000
         C           -0.643107045562     0.868694566634     0.018996268619    12.000000000000
         C           -2.570955045562    -0.692958433366     0.003990268619    12.000000000000
         C            1.528434954438    -0.017526433366     0.003268268619    12.000000000000
         H           -0.761453045562    -2.514251433366    -0.006482731381     1.007825032230
         H            1.716222154438    -2.240470333366    -0.028385131381     1.007825032230
         H           -2.872717045562    -1.252777433366     0.892682268619     1.007825032230
         H           -2.867611045562    -1.239521433366    -0.894589731381     1.007825032230
         H           -3.035532045562     0.289868566634     0.010423268619     1.007825032230
         H            3.493497954438    -0.468554433366     0.350247268619     1.007825032230
         H            3.136157954438     1.183290566634     0.121059268619     1.007825032230

  Basis Set: AUG-CC-PVTZ
    Blend: AUG-CC-PVTZ
  Basis Set: (AUG-CC-PVTZ AUX)
    Blend: AUG-CC-PVTZ-JKFIT
	 Reference Energy          =    -431.7964754548505653 [Eh]
	 Singles Energy            =      -0.0000000000000000 [Eh]
	 Same-Spin Energy          =      -0.4503852729047253 [Eh]
	 Opposite-Spin Energy      =      -1.3730122639729849 [Eh]
	 Correlation Energy        =      -1.8233975368777102 [Eh]
	 Total Energy              =    -433.6198729917283003 [Eh]

	 ================> DF-SCS-MP2 Energies <==================
	-----------------------------------------------------------
	 SCS Same-Spin Scale       =       0.3333333333333333 [-]
	 SCS Opposite-Spin Scale   =       1.2000000000000000 [-]
	 SCS Same-Spin Energy      =      -0.1501284243015751 [Eh]
	 SCS Opposite-Spin Energy  =      -1.6476147167675819 [Eh]
	 SCS Correlation Energy    =      -1.7977431410691569 [Eh]
	 SCS Total Energy          =    -433.5942185959196991 [Eh]
	-----------------------------------------------------------

  Dipole Moment: [D]
     X:     1.8604      Y:    -5.6913      Z:     0.8325     Total:     6.0452

*** Psi4 exiting successfully. Buy a developer a beer!
