                               Psi4 1.4a3.dev225

  ==> Input File <==

--------------------------------------------------------------------------
#psi4
#
memory 32 gb

molecule  {
0 1
  O       -1.4602810    -1.8042760    -0.0008590
  N       -1.1067000     0.4494610     0.0014260
  N        0.7338450    -1.0777760     0.0056990
  N        2.8872480    -0.2944040    -0.0665390
  C       -0.2576190     1.5082170    -0.0002850
  C        1.0914800     1.3228940    -0.0047970
  C       -0.5821006    -0.9020490    -0.0012214
  C       -2.5563510     0.6193970     0.0049040
  C        1.5404980    -0.0347530    -0.0000590
  H       -0.7147670     2.4940890    -0.0022110
  H        1.7746080     2.1637920    -0.0246520
  H       -2.7835150     1.6863950     0.0041520
  H       -2.9802500     0.1433220     0.8903410
  H       -2.9840040     0.1411790    -0.8774920
  H        3.5206970     0.4000120     0.3068300
  H        3.1306380    -1.2574880     0.1361150
units angstrom
no_reorient  #important for SAPT in psi4, default
symmetry c1  #important for SAPT in psi4, default
}

set PROPERTIES_ORIGIN ["COM"]
properties('MP2/aug-cc-pvtz', properties = ['dipole'])
--------------------------------------------------------------------------

    Molecular point group: c1
  Charge       = 0
  Multiplicity = 1
  Basis Set: AUG-CC-PVTZ
    Blend: AUG-CC-PVTZ
  Basis Set: (AUG-CC-PVTZ AUX)
    Blend: AUG-CC-PVTZ-JKFIT

    Orbital Energies [Eh]
    ---------------------

    Doubly Occupied:

       1A    -20.494298     2A    -15.626085     3A    -15.596306
       4A    -15.544881     5A    -11.368584     6A    -11.356380
       7A    -11.329471     8A    -11.272310     9A    -11.244030
      10A     -1.371597    11A     -1.290837    12A     -1.265787
      13A     -1.185099    14A     -1.073279    15A     -0.964593
      16A     -0.894524    17A     -0.865536    18A     -0.762198
      19A     -0.725862    20A     -0.687532    21A     -0.676724
      22A     -0.652213    23A     -0.619729    24A     -0.600649
      25A     -0.589813    26A     -0.579804    27A     -0.562051
      28A     -0.512628    29A     -0.477744    30A     -0.438471
      31A     -0.417993    32A     -0.387974    33A     -0.337001

  @DF-RHF Final Energy:  -431.79861230420829

   => Energetics <=

    Nuclear Repulsion Energy =            441.6003704704653501
    One-Electron Energy =               -1463.2539975026056709
    Two-Electron Energy =                 589.8550147279320299
    Total Energy =                       -431.7986123042082909
  Basis Set: (AUG-CC-PVTZ AUX)
    Blend: AUG-CC-PVTZ-RI
    Molecular point group: c1

    Geometry (in Angstrom), charge = 0, multiplicity = 1:

       Center              X                  Y                   Z               Mass
    ------------   -----------------  -----------------  -----------------  -----------------
         O           -1.473381591886    -1.757904179632     0.002553369225    15.994914619570
         N           -1.119800591886     0.495832820368     0.004838369225    14.003074004430
         N            0.720744408114    -1.031404179632     0.009111369225    14.003074004430
         N            2.874147408114    -0.248032179632    -0.063126630775    14.003074004430
         C           -0.270719591886     1.554588820368     0.003127369225    12.000000000000
         C            1.078379408114     1.369265820368    -0.001384630775    12.000000000000
         C           -0.595201191886    -0.855677179632     0.002190969225    12.000000000000
         C           -2.569451591886     0.665768820368     0.008316369225    12.000000000000
         C            1.527397408114     0.011618820368     0.003353369225    12.000000000000
         H           -0.727867591886     2.540460820368     0.001201369225     1.007825032230
         H            1.761507408114     2.210163820368    -0.021239630775     1.007825032230
         H           -2.796615591886     1.732766820368     0.007564369225     1.007825032230
         H           -2.993350591886     0.189693820368     0.893753369225     1.007825032230
         H           -2.997104591886     0.187550820368    -0.874079630775     1.007825032230
         H            3.507596408114     0.446383820368     0.310242369225     1.007825032230
         H            3.117537408114    -1.211116179632     0.139527369225     1.007825032230

  Basis Set: AUG-CC-PVTZ
    Blend: AUG-CC-PVTZ
  Basis Set: (AUG-CC-PVTZ AUX)
    Blend: AUG-CC-PVTZ-JKFIT
	 Reference Energy          =    -431.7986123042082909 [Eh]
	 Singles Energy            =      -0.0000000000000000 [Eh]
	 Same-Spin Energy          =      -0.4510838506694377 [Eh]
	 Opposite-Spin Energy      =      -1.3725053612179543 [Eh]
	 Correlation Energy        =      -1.8235892118873920 [Eh]
	 Total Energy              =    -433.6222015160956857 [Eh]

	 ================> DF-SCS-MP2 Energies <==================
	-----------------------------------------------------------
	 SCS Same-Spin Scale       =       0.3333333333333333 [-]
	 SCS Opposite-Spin Scale   =       1.2000000000000000 [-]
	 SCS Same-Spin Energy      =      -0.1503612835564792 [Eh]
	 SCS Opposite-Spin Energy  =      -1.6470064334615451 [Eh]
	 SCS Correlation Energy    =      -1.7973677170180242 [Eh]
	 SCS Total Energy          =    -433.5959800212262962 [Eh]
	-----------------------------------------------------------

  Dipole Moment: [D]
     X:     2.1601      Y:     5.7225      Z:     0.7679     Total:     6.1647

*** Psi4 exiting successfully. Buy a developer a beer!
