                               Psi4 1.3.2 release

  ==> Input File <==

--------------------------------------------------------------------------
#psi4
#
memory 32 gb

molecule  {
0 1
  O       -1.4243350     1.8531120    -0.0084660
  N       -1.1176450    -0.4263010     0.0065070
  N        0.7429240     1.0712790     0.0095610
  N        2.8919430     0.2615640    -0.0759850
  C       -0.2733660    -1.4960510    -0.0007800
  C        1.0765330    -1.3300920    -0.0040440
  C       -0.6338910     0.9109410     0.0155220
  C       -2.5617390    -0.6507120     0.0005160
  C        1.5376510     0.0247200    -0.0002060
  H       -0.7522370    -2.4720050    -0.0099570
  H        1.7553550    -2.1750520    -0.0313920
  H       -2.8409308    -1.1688698     0.9212741
  H       -2.8356444    -1.1551450    -0.9293792
  H       -3.0263160     0.3321150     0.0069490
  H        3.5027140    -0.4263080     0.3467730
  H        3.1453740     1.2255370     0.1175850
units angstrom
no_reorient  #important for SAPT in psi4, default
symmetry c1  #important for SAPT in psi4, default
}

set PROPERTIES_ORIGIN ["COM"]
properties('MP2/aug-cc-pvtz', properties = ['dipole'])
--------------------------------------------------------------------------

    Molecular point group: c1
  Charge       = 0
  Multiplicity = 1
  Basis Set: AUG-CC-PVTZ
    Blend: AUG-CC-PVTZ
  Basis Set: (AUG-CC-PVTZ AUX)
    Blend: AUG-CC-PVTZ-JKFIT

    Orbital Energies [Eh]
    ---------------------

    Doubly Occupied:

       1A    -20.503225     2A    -15.624304     3A    -15.591215
       4A    -15.543183     5A    -11.371652     6A    -11.348874
       7A    -11.326823     8A    -11.270375     9A    -11.245588
      10A     -1.382230    11A     -1.295674    12A     -1.267215
      13A     -1.170401    14A     -1.072543    15A     -0.965172
      16A     -0.898712    17A     -0.853165    18A     -0.758477
      19A     -0.723102    20A     -0.683922    21A     -0.673862
      22A     -0.660258    23A     -0.621681    24A     -0.600923
      25A     -0.589176    26A     -0.582300    27A     -0.555864
      28A     -0.522542    29A     -0.476879    30A     -0.440246
      31A     -0.419294    32A     -0.387600    33A     -0.338680

  @DF-RHF Final Energy:  -431.79992507339546

   => Energetics <=

    Nuclear Repulsion Energy =            441.0319227227067813
    One-Electron Energy =               -1462.1333811974689070
    Two-Electron Energy =                 589.3015334013666688
    Total Energy =                       -431.7999250733954568
  Basis Set: (AUG-CC-PVTZ AUX)
    Blend: AUG-CC-PVTZ-RI
    Molecular point group: c1

    Geometry (in Angstrom), charge = 0, multiplicity = 1:

       Center              X                  Y                   Z               Mass
    ------------   -----------------  -----------------  -----------------  -----------------
         O           -1.433523234163     1.805494513266    -0.005130090439    15.994914619570
         N           -1.126833234163    -0.473918486734     0.009842909561    14.003074004430
         N            0.733735765837     1.023661513266     0.012896909561    14.003074004430
         N            2.882754765837     0.213946513266    -0.072649090439    14.003074004430
         C           -0.282554234163    -1.543668486734     0.002555909561    12.000000000000
         C            1.067344765837    -1.377709486734    -0.000708090439    12.000000000000
         C           -0.643079234163     0.863323513266     0.018857909561    12.000000000000
         C           -2.570927234163    -0.698329486734     0.003851909561    12.000000000000
         C            1.528462765837    -0.022897486734     0.003129909561    12.000000000000
         H           -0.761425234163    -2.519622486734    -0.006621090439     1.007825032230
         H            1.746166765837    -2.222669486734    -0.028056090439     1.007825032230
         H           -2.850119034163    -1.216487286734     0.924610009561     1.007825032230
         H           -2.844832634163    -1.202762486734    -0.926043290439     1.007825032230
         H           -3.035504234163     0.284497513266     0.010284909561     1.007825032230
         H            3.493525765837    -0.473925486734     0.350108909561     1.007825032230
         H            3.136185765837     1.177919513266     0.120920909561     1.007825032230

  Basis Set: AUG-CC-PVTZ
    Blend: AUG-CC-PVTZ
  Basis Set: (AUG-CC-PVTZ AUX)
    Blend: AUG-CC-PVTZ-JKFIT
	 Reference Energy          =    -431.7999250733954568 [Eh]
	 Singles Energy            =      -0.0000000000000000 [Eh]
	 Same-Spin Energy          =      -0.4505094330567366 [Eh]
	 Opposite-Spin Energy      =      -1.3723578040413054 [Eh]
	 Correlation Energy        =      -1.8228672370980421 [Eh]
	 Total Energy              =    -433.6227923104934803 [Eh]

	 ================> DF-SCS-MP2 Energies <==================
	-----------------------------------------------------------
	 SCS Same-Spin Scale       =       0.3333333333333333 [-]
	 SCS Opposite-Spin Scale   =       1.2000000000000000 [-]
	 SCS Same-Spin Energy      =      -0.1501698110189122 [Eh]
	 SCS Opposite-Spin Energy  =      -1.6468293648495664 [Eh]
	 SCS Correlation Energy    =      -1.7969991758684787 [Eh]
	 SCS Total Energy          =    -433.5969242492639637 [Eh]
	-----------------------------------------------------------

  Dipole Moment: [D]
     X:     1.6768      Y:    -5.6023      Z:     0.8327     Total:     5.9068

*** Psi4 exiting successfully. Buy a developer a beer!
