                               Psi4 1.3.2 release

  ==> Input File <==

--------------------------------------------------------------------------
#psi4
#
memory 32 gb

molecule  {
0 1
  O       -1.4243350     1.8531120    -0.0084660
  N       -1.1176450    -0.4263010     0.0065070
  N        0.7068832     1.0429047     0.0096366
  N        2.8919430     0.2615640    -0.0759850
  C       -0.2733660    -1.4960510    -0.0007800
  C        1.0295324    -1.3131752    -0.0036843
  C       -0.6338910     0.9109410     0.0155220
  C       -2.5617390    -0.6507120     0.0005160
  C        1.5376510     0.0247200    -0.0002060
  H       -0.7522370    -2.4720050    -0.0099570
  H        1.7553550    -2.1750520    -0.0313920
  H       -2.8635010    -1.2105310     0.8892080
  H       -2.8583950    -1.1972750    -0.8980640
  H       -3.0263160     0.3321150     0.0069490
  H        3.5027140    -0.4263080     0.3467730
  H        3.1453740     1.2255370     0.1175850
units angstrom
no_reorient  #important for SAPT in psi4, default
symmetry c1  #important for SAPT in psi4, default
}

set PROPERTIES_ORIGIN ["COM"]
properties('MP2/aug-cc-pvtz', properties = ['dipole'])
--------------------------------------------------------------------------

    Molecular point group: c1
  Charge       = 0
  Multiplicity = 1
  Basis Set: AUG-CC-PVTZ
    Blend: AUG-CC-PVTZ
  Basis Set: (AUG-CC-PVTZ AUX)
    Blend: AUG-CC-PVTZ-JKFIT

    Orbital Energies [Eh]
    ---------------------

    Doubly Occupied:

       1A    -20.498046     2A    -15.618624     3A    -15.598519
       4A    -15.539406     5A    -11.366716     6A    -11.354376
       7A    -11.318070     8A    -11.266728     9A    -11.244728
      10A     -1.382187    11A     -1.297200    12A     -1.266636
      13A     -1.179509    14A     -1.080032    15A     -0.963972
      16A     -0.895689    17A     -0.862014    18A     -0.764330
      19A     -0.727054    20A     -0.687044    21A     -0.672428
      22A     -0.654707    23A     -0.618295    24A     -0.607877
      25A     -0.586535    26A     -0.580926    27A     -0.555865
      28A     -0.522257    29A     -0.478956    30A     -0.433259
      31A     -0.416671    32A     -0.390059    33A     -0.341527

  @DF-RHF Final Energy:  -431.79795362567455

   => Energetics <=

    Nuclear Repulsion Energy =            442.7252009280044263
    One-Electron Energy =               -1465.5058271983225495
    Two-Electron Energy =                 590.9826726446435714
    Total Energy =                       -431.7979536256746087
  Basis Set: (AUG-CC-PVTZ AUX)
    Blend: AUG-CC-PVTZ-RI
    Molecular point group: c1

    Geometry (in Angstrom), charge = 0, multiplicity = 1:

       Center              X                  Y                   Z               Mass
    ------------   -----------------  -----------------  -----------------  -----------------
         O           -1.424612516728     1.807723644221    -0.005167019087    15.994914619570
         N           -1.117922516728    -0.471689355779     0.009805980913    14.003074004430
         N            0.706605683272     0.997516344221     0.012935580913    14.003074004430
         N            2.891665483272     0.216175644221    -0.072686019087    14.003074004430
         C           -0.273643516728    -1.541439355779     0.002518980913    12.000000000000
         C            1.029254883272    -1.358563555779    -0.000385319087    12.000000000000
         C           -0.634168516728     0.865552644221     0.018820980913    12.000000000000
         C           -2.562016516728    -0.696100355779     0.003814980913    12.000000000000
         C            1.537373483272    -0.020668355779     0.003092980913    12.000000000000
         H           -0.752514516728    -2.517393355779    -0.006658019087     1.007825032230
         H            1.755077483272    -2.220440355779    -0.028093019087     1.007825032230
         H           -2.863778516728    -1.255919355779     0.892506980913     1.007825032230
         H           -2.858672516728    -1.242663355779    -0.894765019087     1.007825032230
         H           -3.026593516728     0.286726644221     0.010247980913     1.007825032230
         H            3.502436483272    -0.471696355779     0.350071980913     1.007825032230
         H            3.145096483272     1.180148644221     0.120883980913     1.007825032230

  Basis Set: AUG-CC-PVTZ
    Blend: AUG-CC-PVTZ
  Basis Set: (AUG-CC-PVTZ AUX)
    Blend: AUG-CC-PVTZ-JKFIT
	 Reference Energy          =    -431.7979536256745519 [Eh]
	 Singles Energy            =      -0.0000000000000000 [Eh]
	 Same-Spin Energy          =      -0.4503870209264609 [Eh]
	 Opposite-Spin Energy      =      -1.3711501187691106 [Eh]
	 Correlation Energy        =      -1.8215371396955715 [Eh]
	 Total Energy              =    -433.6194907653701307 [Eh]

	 ================> DF-SCS-MP2 Energies <==================
	-----------------------------------------------------------
	 SCS Same-Spin Scale       =       0.3333333333333333 [-]
	 SCS Opposite-Spin Scale   =       1.2000000000000000 [-]
	 SCS Same-Spin Energy      =      -0.1501290069754870 [Eh]
	 SCS Opposite-Spin Energy  =      -1.6453801425229326 [Eh]
	 SCS Correlation Energy    =      -1.7955091494984197 [Eh]
	 SCS Total Energy          =    -433.5934627751729522 [Eh]
	-----------------------------------------------------------

  Dipole Moment: [D]
     X:     2.0328      Y:    -5.6139      Z:     0.8349     Total:     6.0287

*** Psi4 exiting successfully. Buy a developer a beer!
