                               Psi4 1.3.2 release

  ==> Input File <==

--------------------------------------------------------------------------
#psi4
#
memory 32 gb

molecule  {
0 1
  O       -1.4243350     1.8531120    -0.0084660
  N       -1.1176450    -0.4263010     0.0065070
  N        0.7429240     1.0712790     0.0095610
  N        2.8919430     0.2615640    -0.0759850
  C       -0.2733660    -1.4960510    -0.0007800
  C        1.0765330    -1.3300920    -0.0040440
  C       -0.6338910     0.9109410     0.0155220
  C       -2.5617390    -0.6507120     0.0005160
  C        1.5376510     0.0247200    -0.0002060
  H       -0.7522370    -2.4720050    -0.0099570
  H        1.7553550    -2.1750520    -0.0313920
  H       -2.8635010    -1.2105310     0.8892080
  H       -2.8583950    -1.1972750    -0.8980640
  H       -3.0263160     0.3321150     0.0069490
  H        3.5630436    -0.4942534     0.3885314
  H        3.1453740     1.2255370     0.1175850
units angstrom
no_reorient  #important for SAPT in psi4, default
symmetry c1  #important for SAPT in psi4, default
}

set PROPERTIES_ORIGIN ["COM"]
properties('MP2/aug-cc-pvtz', properties = ['dipole'])
--------------------------------------------------------------------------

    Molecular point group: c1
  Charge       = 0
  Multiplicity = 1
  Basis Set: AUG-CC-PVTZ
    Blend: AUG-CC-PVTZ
  Basis Set: (AUG-CC-PVTZ AUX)
    Blend: AUG-CC-PVTZ-JKFIT

    Orbital Energies [Eh]
    ---------------------

    Doubly Occupied:

       1A    -20.503378     2A    -15.624984     3A    -15.600337
       4A    -15.543474     5A    -11.372110     6A    -11.349068
       7A    -11.326702     8A    -11.270228     9A    -11.245526
      10A     -1.382317    11A     -1.294442    12A     -1.263734
      13A     -1.163425    14A     -1.072034    15A     -0.963709
      16A     -0.898924    17A     -0.848442    18A     -0.755766
      19A     -0.721260    20A     -0.682342    21A     -0.659088
      22A     -0.653972    23A     -0.621638    24A     -0.600126
      25A     -0.591031    26A     -0.579107    27A     -0.558833
      28A     -0.521026    29A     -0.475907    30A     -0.440672
      31A     -0.419442    32A     -0.386584    33A     -0.338669

  @DF-RHF Final Energy:  -431.79066629334528

   => Energetics <=

    Nuclear Repulsion Energy =            440.4112676078852928
    One-Electron Energy =               -1460.9472705965533805
    Two-Electron Energy =                 588.7453366953227487
    Total Energy =                       -431.7906662933453390
  Basis Set: (AUG-CC-PVTZ AUX)
    Blend: AUG-CC-PVTZ-RI
    Molecular point group: c1

    Geometry (in Angstrom), charge = 0, multiplicity = 1:

       Center              X                  Y                   Z               Mass
    ------------   -----------------  -----------------  -----------------  -----------------
         O           -1.433644187113     1.806717328510    -0.005460561770    15.994914619570
         N           -1.126954187113    -0.472695671490     0.009512438230    14.003074004430
         N            0.733614812887     1.024884328510     0.012566438230    14.003074004430
         N            2.882633812887     0.215169328510    -0.072979561770    14.003074004430
         C           -0.282675187113    -1.542445671490     0.002225438230    12.000000000000
         C            1.067223812887    -1.376486671490    -0.001038561770    12.000000000000
         C           -0.643200187113     0.864546328510     0.018527438230    12.000000000000
         C           -2.571048187113    -0.697106671490     0.003521438230    12.000000000000
         C            1.528341812887    -0.021674671490     0.002799438230    12.000000000000
         H           -0.761546187113    -2.518399671490    -0.006951561770     1.007825032230
         H            1.746045812887    -2.221446671490    -0.028386561770     1.007825032230
         H           -2.872810187113    -1.256925671490     0.892213438230     1.007825032230
         H           -2.867704187113    -1.243669671490    -0.895058561770     1.007825032230
         H           -3.035625187113     0.285720328510     0.009954438230     1.007825032230
         H            3.553734412887    -0.540648071490     0.391536838230     1.007825032230
         H            3.136064812887     1.179142328510     0.120590438230     1.007825032230

  Basis Set: AUG-CC-PVTZ
    Blend: AUG-CC-PVTZ
  Basis Set: (AUG-CC-PVTZ AUX)
    Blend: AUG-CC-PVTZ-JKFIT
	 Reference Energy          =    -431.7906662933452822 [Eh]
	 Singles Energy            =      -0.0000000000000000 [Eh]
	 Same-Spin Energy          =      -0.4509738834335078 [Eh]
	 Opposite-Spin Energy      =      -1.3739318175787405 [Eh]
	 Correlation Energy        =      -1.8249057010122482 [Eh]
	 Total Energy              =    -433.6155719943575377 [Eh]

	 ================> DF-SCS-MP2 Energies <==================
	-----------------------------------------------------------
	 SCS Same-Spin Scale       =       0.3333333333333333 [-]
	 SCS Opposite-Spin Scale   =       1.2000000000000000 [-]
	 SCS Same-Spin Energy      =      -0.1503246278111693 [Eh]
	 SCS Opposite-Spin Energy  =      -1.6487181810944886 [Eh]
	 SCS Correlation Energy    =      -1.7990428089056578 [Eh]
	 SCS Total Energy          =    -433.5897091022509358 [Eh]
	-----------------------------------------------------------

  Dipole Moment: [D]
     X:     1.7670      Y:    -5.6776      Z:     0.8604     Total:     6.0081

*** Psi4 exiting successfully. Buy a developer a beer!
