                               Psi4 1.3.2 release

  ==> Input File <==

--------------------------------------------------------------------------
#psi4
#
memory 32 gb

molecule  {
0 1
  O       -1.4243350     1.8531120    -0.0084660
  N       -1.1176450    -0.4263010     0.0065070
  N        0.7429240     1.0712790     0.0095610
  N        2.8939386     0.2497215    -0.0763803
  C       -0.2733660    -1.4960510    -0.0007800
  C        1.0883497    -1.3340541    -0.0048454
  C       -0.6338910     0.9109410     0.0155220
  C       -2.5617390    -0.6507120     0.0005160
  C        1.5376510     0.0247200    -0.0002060
  H       -0.7522370    -2.4720050    -0.0099570
  H        1.7553550    -2.1750520    -0.0313920
  H       -2.8635010    -1.2105310     0.8892080
  H       -2.8583950    -1.1972750    -0.8980640
  H       -3.0263160     0.3321150     0.0069490
  H        3.5027140    -0.4263080     0.3467730
  H        3.1453740     1.2255370     0.1175850
units angstrom
no_reorient  #important for SAPT in psi4, default
symmetry c1  #important for SAPT in psi4, default
}

set PROPERTIES_ORIGIN ["COM"]
properties('MP2/aug-cc-pvtz', properties = ['dipole'])
--------------------------------------------------------------------------

    Molecular point group: c1
  Charge       = 0
  Multiplicity = 1
  Basis Set: AUG-CC-PVTZ
    Blend: AUG-CC-PVTZ
  Basis Set: (AUG-CC-PVTZ AUX)
    Blend: AUG-CC-PVTZ-JKFIT

    Orbital Energies [Eh]
    ---------------------

    Doubly Occupied:

       1A    -20.504013     2A    -15.626515     3A    -15.590952
       4A    -15.543879     5A    -11.372747     6A    -11.349078
       7A    -11.329027     8A    -11.270955     9A    -11.245712
      10A     -1.382920    11A     -1.295807    12A     -1.267400
      13A     -1.170962    14A     -1.070677    15A     -0.965743
      16A     -0.899740    17A     -0.853849    18A     -0.757623
      19A     -0.723639    20A     -0.687844    21A     -0.674157
      22A     -0.655736    23A     -0.622626    24A     -0.598749
      25A     -0.593912    26A     -0.579922    27A     -0.559318
      28A     -0.522004    29A     -0.475535    30A     -0.441317
      31A     -0.420165    32A     -0.387990    33A     -0.338104

  @DF-RHF Final Energy:  -431.80009795007180

   => Energetics <=

    Nuclear Repulsion Energy =            440.7078689987196753
    One-Electron Energy =               -1461.4587019389036868
    Two-Electron Energy =                 588.9507349901122097
    Total Energy =                       -431.8000979500717449
  Basis Set: (AUG-CC-PVTZ AUX)
    Blend: AUG-CC-PVTZ-RI
    Molecular point group: c1

    Geometry (in Angstrom), charge = 0, multiplicity = 1:

       Center              X                  Y                   Z               Mass
    ------------   -----------------  -----------------  -----------------  -----------------
         O           -1.434515322579     1.807875978676    -0.005002878466    15.994914619570
         N           -1.127825322579    -0.471537021324     0.009970121534    14.003074004430
         N            0.732743677421     1.026042978676     0.013024121534    14.003074004430
         N            2.883758277421     0.204485478676    -0.072917178466    14.003074004430
         C           -0.283546322579    -1.541287021324     0.002683121534    12.000000000000
         C            1.078169377421    -1.379290121324    -0.001382278466    12.000000000000
         C           -0.644071322579     0.865704978676     0.018985121534    12.000000000000
         C           -2.571919322579    -0.695948021324     0.003979121534    12.000000000000
         C            1.527470677421    -0.020516021324     0.003257121534    12.000000000000
         H           -0.762417322579    -2.517241021324    -0.006493878466     1.007825032230
         H            1.745174677421    -2.220288021324    -0.027928878466     1.007825032230
         H           -2.873681322579    -1.255767021324     0.892671121534     1.007825032230
         H           -2.868575322579    -1.242511021324    -0.894600878466     1.007825032230
         H           -3.036496322579     0.286878978676     0.010412121534     1.007825032230
         H            3.492533677421    -0.471544021324     0.350236121534     1.007825032230
         H            3.135193677421     1.180300978676     0.121048121534     1.007825032230

  Basis Set: AUG-CC-PVTZ
    Blend: AUG-CC-PVTZ
  Basis Set: (AUG-CC-PVTZ AUX)
    Blend: AUG-CC-PVTZ-JKFIT
	 Reference Energy          =    -431.8000979500718017 [Eh]
	 Singles Energy            =      -0.0000000000000000 [Eh]
	 Same-Spin Energy          =      -0.4504936571033771 [Eh]
	 Opposite-Spin Energy      =      -1.3723843656846317 [Eh]
	 Correlation Energy        =      -1.8228780227880088 [Eh]
	 Total Energy              =    -433.6229759728598196 [Eh]

	 ================> DF-SCS-MP2 Energies <==================
	-----------------------------------------------------------
	 SCS Same-Spin Scale       =       0.3333333333333333 [-]
	 SCS Opposite-Spin Scale   =       1.2000000000000000 [-]
	 SCS Same-Spin Energy      =      -0.1501645523677924 [Eh]
	 SCS Opposite-Spin Energy  =      -1.6468612388215580 [Eh]
	 SCS Correlation Energy    =      -1.7970257911893504 [Eh]
	 SCS Total Energy          =    -433.5971237412611572 [Eh]
	-----------------------------------------------------------

  Dipole Moment: [D]
     X:     1.6703      Y:    -5.6204      Z:     0.8353     Total:     5.9225

*** Psi4 exiting successfully. Buy a developer a beer!
