                               Psi4 1.3.2 release

  ==> Input File <==

--------------------------------------------------------------------------
#psi4
#
memory 32 gb

molecule  {
0 1
  O       -1.4243350     1.8531120    -0.0084660
  N       -1.1176450    -0.4263010     0.0065070
  N        0.7429240     1.0712790     0.0095610
  N        2.8919430     0.2615640    -0.0759850
  C       -0.1494625    -1.6530439    -0.0018494
  C        1.0765330    -1.3300920    -0.0040440
  C       -0.6338910     0.9109410     0.0155220
  C       -2.5617390    -0.6507120     0.0005160
  C        1.5376510     0.0247200    -0.0002060
  H       -0.7522370    -2.4720050    -0.0099570
  H        1.7553550    -2.1750520    -0.0313920
  H       -2.8635010    -1.2105310     0.8892080
  H       -2.8583950    -1.1972750    -0.8980640
  H       -3.0263160     0.3321150     0.0069490
  H        3.5027140    -0.4263080     0.3467730
  H        3.1453740     1.2255370     0.1175850
units angstrom
no_reorient  #important for SAPT in psi4, default
symmetry c1  #important for SAPT in psi4, default
}

set PROPERTIES_ORIGIN ["COM"]
properties('MP2/aug-cc-pvtz', properties = ['dipole'])
--------------------------------------------------------------------------

    Molecular point group: c1
  Charge       = 0
  Multiplicity = 1
  Basis Set: AUG-CC-PVTZ
    Blend: AUG-CC-PVTZ
  Basis Set: (AUG-CC-PVTZ AUX)
    Blend: AUG-CC-PVTZ-JKFIT

    Orbital Energies [Eh]
    ---------------------

    Doubly Occupied:

       1A    -20.496669     2A    -15.601514     3A    -15.601431
       4A    -15.549906     5A    -11.364872     6A    -11.360772
       7A    -11.321398     8A    -11.256981     9A    -11.256483
      10A     -1.369267    11A     -1.294069    12A     -1.229894
      13A     -1.169037    14A     -1.101994    15A     -0.946026
      16A     -0.899998    17A     -0.847599    18A     -0.763171
      19A     -0.728219    20A     -0.681967    21A     -0.672735
      22A     -0.646861    23A     -0.633985    24A     -0.608816
      25A     -0.580400    26A     -0.575373    27A     -0.523092
      28A     -0.519029    29A     -0.468463    30A     -0.440962
      31A     -0.415548    32A     -0.385378    33A     -0.355031

  @DF-RHF Final Energy:  -431.75898768048961

   => Energetics <=

    Nuclear Repulsion Energy =            438.3208968977991162
    One-Electron Energy =               -1456.8258938871038026
    Two-Electron Energy =                 586.7460093088150188
    Total Energy =                       -431.7589876804896676
  Basis Set: (AUG-CC-PVTZ AUX)
    Blend: AUG-CC-PVTZ-RI
    Molecular point group: c1

    Geometry (in Angstrom), charge = 0, multiplicity = 1:

       Center              X                  Y                   Z               Mass
    ------------   -----------------  -----------------  -----------------  -----------------
         O           -1.445047135514     1.821233988683    -0.005021425046    15.994914619570
         N           -1.138357135514    -0.458179011317     0.009951574954    14.003074004430
         N            0.722211864486     1.039400988683     0.013005574954    14.003074004430
         N            2.871230864486     0.229685988683    -0.072540425046    14.003074004430
         C           -0.170174635514    -1.684921911317     0.001595174954    12.000000000000
         C            1.055820864486    -1.361970011317    -0.000599425046    12.000000000000
         C           -0.654603135514     0.879062988683     0.018966574954    12.000000000000
         C           -2.582451135514    -0.682590011317     0.003960574954    12.000000000000
         C            1.516938864486    -0.007158011317     0.003238574954    12.000000000000
         H           -0.772949135514    -2.503883011317    -0.006512425046     1.007825032230
         H            1.734642864486    -2.206930011317    -0.027947425046     1.007825032230
         H           -2.884213135514    -1.242409011317     0.892652574954     1.007825032230
         H           -2.879107135514    -1.229153011317    -0.894619425046     1.007825032230
         H           -3.047028135514     0.300236988683     0.010393574954     1.007825032230
         H            3.482001864486    -0.458186011317     0.350217574954     1.007825032230
         H            3.124661864486     1.193658988683     0.121029574954     1.007825032230

  Basis Set: AUG-CC-PVTZ
    Blend: AUG-CC-PVTZ
  Basis Set: (AUG-CC-PVTZ AUX)
    Blend: AUG-CC-PVTZ-JKFIT
	 Reference Energy          =    -431.7589876804896107 [Eh]
	 Singles Energy            =      -0.0000000000000000 [Eh]
	 Same-Spin Energy          =      -0.4496037151124349 [Eh]
	 Opposite-Spin Energy      =      -1.3747713663123773 [Eh]
	 Correlation Energy        =      -1.8243750814248121 [Eh]
	 Total Energy              =    -433.5833627619144295 [Eh]

	 ================> DF-SCS-MP2 Energies <==================
	-----------------------------------------------------------
	 SCS Same-Spin Scale       =       0.3333333333333333 [-]
	 SCS Opposite-Spin Scale   =       1.2000000000000000 [-]
	 SCS Same-Spin Energy      =      -0.1498679050374783 [Eh]
	 SCS Opposite-Spin Energy  =      -1.6497256395748527 [Eh]
	 SCS Correlation Energy    =      -1.7995935446123310 [Eh]
	 SCS Total Energy          =    -433.5585812251019320 [Eh]
	-----------------------------------------------------------

  Dipole Moment: [D]
     X:     2.5820      Y:    -5.8816      Z:     0.8327     Total:     6.4771

*** Psi4 exiting successfully. Buy a developer a beer!
