                               Psi4 1.3.2 release

  ==> Input File <==

--------------------------------------------------------------------------
#psi4
#
memory 32 gb

molecule  {
0 1
  O       -1.4243350     1.8531120    -0.0084660
  N       -1.1176450    -0.4263010     0.0065070
  N        0.7429240     1.0712790     0.0095610
  N        2.8919430     0.2615640    -0.0759850
  C       -0.2718665    -1.5078246    -0.0008293
  C        1.0765330    -1.3300920    -0.0040440
  C       -0.6338910     0.9109410     0.0155220
  C       -2.5617390    -0.6507120     0.0005160
  C        1.5494562     0.0206446    -0.0002556
  H       -0.7522370    -2.4720050    -0.0099570
  H        1.7553550    -2.1750520    -0.0313920
  H       -2.8635010    -1.2105310     0.8892080
  H       -2.8583950    -1.1972750    -0.8980640
  H       -3.0263160     0.3321150     0.0069490
  H        3.5027140    -0.4263080     0.3467730
  H        3.1453740     1.2255370     0.1175850
units angstrom
no_reorient  #important for SAPT in psi4, default
symmetry c1  #important for SAPT in psi4, default
}

set PROPERTIES_ORIGIN ["COM"]
properties('MP2/aug-cc-pvtz', properties = ['dipole'])
--------------------------------------------------------------------------

    Molecular point group: c1
  Charge       = 0
  Multiplicity = 1
  Basis Set: AUG-CC-PVTZ
    Blend: AUG-CC-PVTZ
  Basis Set: (AUG-CC-PVTZ AUX)
    Blend: AUG-CC-PVTZ-JKFIT

    Orbital Energies [Eh]
    ---------------------

    Doubly Occupied:

       1A    -20.501938     2A    -15.623950     3A    -15.594162
       4A    -15.542823     5A    -11.370831     6A    -11.350540
       7A    -11.327462     8A    -11.269172     9A    -11.246956
      10A     -1.380271    11A     -1.294791    12A     -1.267214
      13A     -1.169571    14A     -1.072564    15A     -0.963587
      16A     -0.899591    17A     -0.852855    18A     -0.759166
      19A     -0.725660    20A     -0.686211    21A     -0.675578
      22A     -0.653399    23A     -0.622288    24A     -0.604297
      25A     -0.590461    26A     -0.579032    27A     -0.557199
      28A     -0.523125    29A     -0.474497    30A     -0.438805
      31A     -0.418596    32A     -0.386215    33A     -0.338944

  @DF-RHF Final Energy:  -431.80000778445168

   => Energetics <=

    Nuclear Repulsion Energy =            440.5554143132907257
    One-Electron Energy =               -1461.1873388881001574
    Two-Electron Energy =                 588.8319167903578091
    Total Energy =                       -431.8000077844516227
  Basis Set: (AUG-CC-PVTZ AUX)
    Blend: AUG-CC-PVTZ-RI
    Molecular point group: c1

    Geometry (in Angstrom), charge = 0, multiplicity = 1:

       Center              X                  Y                   Z               Mass
    ------------   -----------------  -----------------  -----------------  -----------------
         O           -1.434434652323     1.807690557233    -0.005114549157    15.994914619570
         N           -1.127744652323    -0.471722442767     0.009858450843    14.003074004430
         N            0.732824347677     1.025857557233     0.012912450843    14.003074004430
         N            2.881843347677     0.216142557233    -0.072633549157    14.003074004430
         C           -0.281966152323    -1.553246042767     0.002522150843    12.000000000000
         C            1.066433347677    -1.375513442767    -0.000692549157    12.000000000000
         C           -0.643990652323     0.865519557233     0.018873450843    12.000000000000
         C           -2.571838652323    -0.696133442767     0.003867450843    12.000000000000
         C            1.539356547677    -0.024776842767     0.003095850843    12.000000000000
         H           -0.762336652323    -2.517426442767    -0.006605549157     1.007825032230
         H            1.745255347677    -2.220473442767    -0.028040549157     1.007825032230
         H           -2.873600652323    -1.255952442767     0.892559450843     1.007825032230
         H           -2.868494652323    -1.242696442767    -0.894712549157     1.007825032230
         H           -3.036415652323     0.286693557233     0.010300450843     1.007825032230
         H            3.492614347677    -0.471729442767     0.350124450843     1.007825032230
         H            3.135274347677     1.180115557233     0.120936450843     1.007825032230

  Basis Set: AUG-CC-PVTZ
    Blend: AUG-CC-PVTZ
  Basis Set: (AUG-CC-PVTZ AUX)
    Blend: AUG-CC-PVTZ-JKFIT
	 Reference Energy          =    -431.8000077844516795 [Eh]
	 Singles Energy            =      -0.0000000000000000 [Eh]
	 Same-Spin Energy          =      -0.4505022704191921 [Eh]
	 Opposite-Spin Energy      =      -1.3724556330009365 [Eh]
	 Correlation Energy        =      -1.8229579034201286 [Eh]
	 Total Energy              =    -433.6229656878717833 [Eh]

	 ================> DF-SCS-MP2 Energies <==================
	-----------------------------------------------------------
	 SCS Same-Spin Scale       =       0.3333333333333333 [-]
	 SCS Opposite-Spin Scale   =       1.2000000000000000 [-]
	 SCS Same-Spin Energy      =      -0.1501674234730640 [Eh]
	 SCS Opposite-Spin Energy  =      -1.6469467596011238 [Eh]
	 SCS Correlation Energy    =      -1.7971141830741879 [Eh]
	 SCS Total Energy          =    -433.5971219675258794 [Eh]
	-----------------------------------------------------------

  Dipole Moment: [D]
     X:     1.8516      Y:    -5.6636      Z:     0.8288     Total:     6.0160

*** Psi4 exiting successfully. Buy a developer a beer!
