                               Psi4 1.4a3.dev225

  ==> Input File <==

--------------------------------------------------------------------------
#psi4
#
memory 32 gb

molecule  {
0 1
  O       -1.4602810    -1.8042760    -0.0008590
  N       -1.1067000     0.4494610     0.0014260
  N        0.7338450    -1.0777760     0.0056990
  N        2.8872480    -0.2944040    -0.0665390
  C       -0.2576190     1.5082170    -0.0002850
  C        1.0716662     1.3256158    -0.0047307
  C       -0.6316600    -0.8954310    -0.0014820
  C       -2.5563510     0.6193970     0.0049040
  C        1.5404980    -0.0347530    -0.0000590
  H       -0.7147670     2.4940890    -0.0022110
  H        1.7746080     2.1637920    -0.0246520
  H       -2.7835150     1.6863950     0.0041520
  H       -2.9802500     0.1433220     0.8903410
  H       -2.9840040     0.1411790    -0.8774920
  H        3.5206970     0.4000120     0.3068300
  H        3.1306380    -1.2574880     0.1361150
units angstrom
no_reorient  #important for SAPT in psi4, default
symmetry c1  #important for SAPT in psi4, default
}

set PROPERTIES_ORIGIN ["COM"]
properties('MP2/aug-cc-pvtz', properties = ['dipole'])
--------------------------------------------------------------------------

    Molecular point group: c1
  Charge       = 0
  Multiplicity = 1
  Basis Set: AUG-CC-PVTZ
    Blend: AUG-CC-PVTZ
  Basis Set: (AUG-CC-PVTZ AUX)
    Blend: AUG-CC-PVTZ-JKFIT

    Orbital Energies [Eh]
    ---------------------

    Doubly Occupied:

       1A    -20.502776     2A    -15.623728     3A    -15.593346
       4A    -15.543027     5A    -11.368937     6A    -11.351103
       7A    -11.323995     8A    -11.272514     9A    -11.243427
      10A     -1.382765    11A     -1.295610    12A     -1.267644
      13A     -1.172247    14A     -1.075332    15A     -0.963781
      16A     -0.896829    17A     -0.856207    18A     -0.760435
      19A     -0.724792    20A     -0.685952    21A     -0.674004
      22A     -0.654743    23A     -0.620309    24A     -0.604219
      25A     -0.588060    26A     -0.576212    27A     -0.566157
      28A     -0.516987    29A     -0.481515    30A     -0.442300
      31A     -0.417870    32A     -0.385343    33A     -0.339107

  @DF-RHF Final Energy:  -431.80336508868783

   => Energetics <=

    Nuclear Repulsion Energy =            441.7649623441841982
    One-Electron Energy =               -1463.5941034723050507
    Two-Electron Energy =                 590.0257760394331399
    Total Energy =                       -431.8033650886877695
  Basis Set: (AUG-CC-PVTZ AUX)
    Blend: AUG-CC-PVTZ-RI
    Molecular point group: c1

    Geometry (in Angstrom), charge = 0, multiplicity = 1:

       Center              X                  Y                   Z               Mass
    ------------   -----------------  -----------------  -----------------  -----------------
         O           -1.466724901950    -1.758800378058     0.002572013238    15.994914619570
         N           -1.113143901950     0.494936621942     0.004857013238    14.003074004430
         N            0.727401098050    -1.032300378058     0.009130013238    14.003074004430
         N            2.880804098050    -0.248928378058    -0.063107986762    14.003074004430
         C           -0.264062901950     1.553692621942     0.003146013238    12.000000000000
         C            1.065222298050     1.371091421942    -0.001299686762    12.000000000000
         C           -0.638103901950    -0.849955378058     0.001949013238    12.000000000000
         C           -2.562794901950     0.664872621942     0.008335013238    12.000000000000
         C            1.534054098050     0.010722621942     0.003372013238    12.000000000000
         H           -0.721210901950     2.539564621942     0.001220013238     1.007825032230
         H            1.768164098050     2.209267621942    -0.021220986762     1.007825032230
         H           -2.789958901950     1.731870621942     0.007583013238     1.007825032230
         H           -2.986693901950     0.188797621942     0.893772013238     1.007825032230
         H           -2.990447901950     0.186654621942    -0.874060986762     1.007825032230
         H            3.514253098050     0.445487621942     0.310261013238     1.007825032230
         H            3.124194098050    -1.212012378058     0.139546013238     1.007825032230

  Basis Set: AUG-CC-PVTZ
    Blend: AUG-CC-PVTZ
  Basis Set: (AUG-CC-PVTZ AUX)
    Blend: AUG-CC-PVTZ-JKFIT
	 Reference Energy          =    -431.8033650886878263 [Eh]
	 Singles Energy            =      -0.0000000000000000 [Eh]
	 Same-Spin Energy          =      -0.4501558859886420 [Eh]
	 Opposite-Spin Energy      =      -1.3715757883699613 [Eh]
	 Correlation Energy        =      -1.8217316743586034 [Eh]
	 Total Energy              =    -433.6250967630464288 [Eh]

	 ================> DF-SCS-MP2 Energies <==================
	-----------------------------------------------------------
	 SCS Same-Spin Scale       =       0.3333333333333333 [-]
	 SCS Opposite-Spin Scale   =       1.2000000000000000 [-]
	 SCS Same-Spin Energy      =      -0.1500519619962140 [Eh]
	 SCS Opposite-Spin Energy  =      -1.6458909460439535 [Eh]
	 SCS Correlation Energy    =      -1.7959429080401674 [Eh]
	 SCS Total Energy          =    -433.5993079967279868 [Eh]
	-----------------------------------------------------------

  Dipole Moment: [D]
     X:     1.8792      Y:     5.5848      Z:     0.7695     Total:     5.9425

*** Psi4 exiting successfully. Buy a developer a beer!
