                               Psi4 1.4a3.dev225

  ==> Input File <==

--------------------------------------------------------------------------
#psi4
#
memory 32 gb

molecule  {
0 1
  O       -1.4602810    -1.8042760    -0.0008590
  N       -1.1067000     0.4494610     0.0014260
  N        0.7338450    -1.0777760     0.0056990
  N        2.8872480    -0.2944040    -0.0665390
  C       -0.2576190     1.5082170    -0.0002850
  C        1.0914800     1.3228940    -0.0047970
  C       -0.6316600    -0.8954310    -0.0014820
  C       -2.6060108     0.6252184     0.0050231
  C        1.5404980    -0.0347530    -0.0000590
  H       -0.7147670     2.4940890    -0.0022110
  H        1.7746080     2.1637920    -0.0246520
  H       -2.7835150     1.6863950     0.0041520
  H       -2.9802500     0.1433220     0.8903410
  H       -2.9840040     0.1411790    -0.8774920
  H        3.5206970     0.4000120     0.3068300
  H        3.1306380    -1.2574880     0.1361150
units angstrom
no_reorient  #important for SAPT in psi4, default
symmetry c1  #important for SAPT in psi4, default
}

set PROPERTIES_ORIGIN ["COM"]
properties('MP2/aug-cc-pvtz', properties = ['dipole'])
--------------------------------------------------------------------------

    Molecular point group: c1
  Charge       = 0
  Multiplicity = 1
  Basis Set: AUG-CC-PVTZ
    Blend: AUG-CC-PVTZ
  Basis Set: (AUG-CC-PVTZ AUX)
    Blend: AUG-CC-PVTZ-JKFIT

    Orbital Energies [Eh]
    ---------------------

    Doubly Occupied:

       1A    -20.501336     2A    -15.624510     3A    -15.590485
       4A    -15.541199     5A    -11.367753     6A    -11.348200
       7A    -11.326848     8A    -11.275453     9A    -11.241747
      10A     -1.379905    11A     -1.292820    12A     -1.262179
      13A     -1.169225    14A     -1.068994    15A     -0.967404
      16A     -0.896145    17A     -0.854929    18A     -0.757200
      19A     -0.722627    20A     -0.679995    21A     -0.671709
      22A     -0.653643    23A     -0.621489    24A     -0.598488
      25A     -0.591376    26A     -0.581053    27A     -0.569264
      28A     -0.518912    29A     -0.480618    30A     -0.441435
      31A     -0.416390    32A     -0.384507    33A     -0.336211

  @DF-RHF Final Energy:  -431.80134196127619

   => Energetics <=

    Nuclear Repulsion Energy =            440.5822403101224722
    One-Electron Energy =               -1461.2990675845321675
    Two-Electron Energy =                 588.9154853131335585
    Total Energy =                       -431.8013419612761936
  Basis Set: (AUG-CC-PVTZ AUX)
    Blend: AUG-CC-PVTZ-RI
    Molecular point group: c1

    Geometry (in Angstrom), charge = 0, multiplicity = 1:

       Center              X                  Y                   Z               Mass
    ------------   -----------------  -----------------  -----------------  -----------------
         O           -1.463861035676    -1.759097799485     0.002566946826    15.994914619570
         N           -1.110280035676     0.494639200515     0.004851946826    14.003074004430
         N            0.730264964324    -1.032597799485     0.009124946826    14.003074004430
         N            2.883667964324    -0.249225799485    -0.063113053174    14.003074004430
         C           -0.261199035676     1.553395200515     0.003140946826    12.000000000000
         C            1.087899964324     1.368072200515    -0.001371053174    12.000000000000
         C           -0.635240035676    -0.850252799485     0.001943946826    12.000000000000
         C           -2.609590835676     0.670396600515     0.008449046826    12.000000000000
         C            1.536917964324     0.010425200515     0.003366946826    12.000000000000
         H           -0.718347035676     2.539267200515     0.001214946826     1.007825032230
         H            1.771027964324     2.208970200515    -0.021226053174     1.007825032230
         H           -2.787095035676     1.731573200515     0.007577946826     1.007825032230
         H           -2.983830035676     0.188500200515     0.893766946826     1.007825032230
         H           -2.987584035676     0.186357200515    -0.874066053174     1.007825032230
         H            3.517116964324     0.445190200515     0.310255946826     1.007825032230
         H            3.127057964324    -1.212309799485     0.139540946826     1.007825032230

  Basis Set: AUG-CC-PVTZ
    Blend: AUG-CC-PVTZ
  Basis Set: (AUG-CC-PVTZ AUX)
    Blend: AUG-CC-PVTZ-JKFIT
	 Reference Energy          =    -431.8013419612761936 [Eh]
	 Singles Energy            =      -0.0000000000000000 [Eh]
	 Same-Spin Energy          =      -0.4501657383843091 [Eh]
	 Opposite-Spin Energy      =      -1.3719013600735024 [Eh]
	 Correlation Energy        =      -1.8220670984578113 [Eh]
	 Total Energy              =    -433.6234090597340014 [Eh]

	 ================> DF-SCS-MP2 Energies <==================
	-----------------------------------------------------------
	 SCS Same-Spin Scale       =       0.3333333333333333 [-]
	 SCS Opposite-Spin Scale   =       1.2000000000000000 [-]
	 SCS Same-Spin Energy      =      -0.1500552461281030 [Eh]
	 SCS Opposite-Spin Energy  =      -1.6462816320882028 [Eh]
	 SCS Correlation Energy    =      -1.7963368782163058 [Eh]
	 SCS Total Energy          =    -433.5976788394925165 [Eh]
	-----------------------------------------------------------

  Dipole Moment: [D]
     X:     1.6556      Y:     5.6388      Z:     0.7696     Total:     5.9270

*** Psi4 exiting successfully. Buy a developer a beer!
