                               Psi4 1.3.2 release

  ==> Input File <==

--------------------------------------------------------------------------
#psi4
#
memory 32 gb

molecule  {
0 1
  O       -1.4243350     1.8531120    -0.0084660
  N       -1.1176450    -0.4263010     0.0065070
  N        0.7429240     1.0712790     0.0095610
  N        2.8919430     0.2615640    -0.0759850
  C       -0.3112149    -1.5248636    -0.0009726
  C        1.0765330    -1.3300920    -0.0040440
  C       -0.6808558     0.9270088     0.0156335
  C       -2.5617390    -0.6507120     0.0005160
  C        1.5376510     0.0247200    -0.0002060
  H       -0.7522370    -2.4720050    -0.0099570
  H        1.7553550    -2.1750520    -0.0313920
  H       -2.8635010    -1.2105310     0.8892080
  H       -2.8583950    -1.1972750    -0.8980640
  H       -3.0263160     0.3321150     0.0069490
  H        3.5027140    -0.4263080     0.3467730
  H        3.1453740     1.2255370     0.1175850
units angstrom
no_reorient  #important for SAPT in psi4, default
symmetry c1  #important for SAPT in psi4, default
}

set PROPERTIES_ORIGIN ["COM"]
properties('MP2/aug-cc-pvtz', properties = ['dipole'])
--------------------------------------------------------------------------

    Molecular point group: c1
  Charge       = 0
  Multiplicity = 1
  Basis Set: AUG-CC-PVTZ
    Blend: AUG-CC-PVTZ
  Basis Set: (AUG-CC-PVTZ AUX)
    Blend: AUG-CC-PVTZ-JKFIT

    Orbital Energies [Eh]
    ---------------------

    Doubly Occupied:

       1A    -20.516650     2A    -15.625478     3A    -15.585707
       4A    -15.539308     5A    -11.374859     6A    -11.342035
       7A    -11.328708     8A    -11.270268     9A    -11.246690
      10A     -1.407152    11A     -1.301089    12A     -1.264421
      13A     -1.158171    14A     -1.062074    15A     -0.962462
      16A     -0.905673    17A     -0.842779    18A     -0.754184
      19A     -0.725977    20A     -0.682164    21A     -0.676648
      22A     -0.656845    23A     -0.633329    24A     -0.607065
      25A     -0.587889    26A     -0.578256    27A     -0.558903
      28A     -0.529176    29A     -0.478221    30A     -0.452728
      31A     -0.412697    32A     -0.382967    33A     -0.333064

  @DF-RHF Final Energy:  -431.79316856369360

   => Energetics <=

    Nuclear Repulsion Energy =            440.1389567442702173
    One-Electron Energy =               -1460.2969730692905159
    Two-Electron Energy =                 588.3648477613267005
    Total Energy =                       -431.7931685636935981
  Basis Set: (AUG-CC-PVTZ AUX)
    Blend: AUG-CC-PVTZ-RI
    Molecular point group: c1

    Geometry (in Angstrom), charge = 0, multiplicity = 1:

       Center              X                  Y                   Z               Mass
    ------------   -----------------  -----------------  -----------------  -----------------
         O           -1.425019723130     1.807392694414    -0.005116257152    15.994914619570
         N           -1.118329723130    -0.472020305586     0.009856742848    14.003074004430
         N            0.742239276870     1.025559694414     0.012910742848    14.003074004430
         N            2.891258276870     0.215844694414    -0.072635257152    14.003074004430
         C           -0.311899623130    -1.570582905586     0.002377142848    12.000000000000
         C            1.075848276870    -1.375811305586    -0.000694257152    12.000000000000
         C           -0.681540523130     0.881289494414     0.018983242848    12.000000000000
         C           -2.562423723130    -0.696431305586     0.003865742848    12.000000000000
         C            1.536966276870    -0.020999305586     0.003143742848    12.000000000000
         H           -0.752921723130    -2.517724305586    -0.006607257152     1.007825032230
         H            1.754670276870    -2.220771305586    -0.028042257152     1.007825032230
         H           -2.864185723130    -1.256250305586     0.892557742848     1.007825032230
         H           -2.859079723130    -1.242994305586    -0.894714257152     1.007825032230
         H           -3.027000723130     0.286395694414     0.010298742848     1.007825032230
         H            3.502029276870    -0.472027305586     0.350122742848     1.007825032230
         H            3.144689276870     1.179817694414     0.120934742848     1.007825032230

  Basis Set: AUG-CC-PVTZ
    Blend: AUG-CC-PVTZ
  Basis Set: (AUG-CC-PVTZ AUX)
    Blend: AUG-CC-PVTZ-JKFIT
	 Reference Energy          =    -431.7931685636935981 [Eh]
	 Singles Energy            =      -0.0000000000000000 [Eh]
	 Same-Spin Energy          =      -0.4502749332521596 [Eh]
	 Opposite-Spin Energy      =      -1.3726531896003911 [Eh]
	 Correlation Energy        =      -1.8229281228525507 [Eh]
	 Total Energy              =    -433.6160966865461432 [Eh]

	 ================> DF-SCS-MP2 Energies <==================
	-----------------------------------------------------------
	 SCS Same-Spin Scale       =       0.3333333333333333 [-]
	 SCS Opposite-Spin Scale   =       1.2000000000000000 [-]
	 SCS Same-Spin Energy      =      -0.1500916444173865 [Eh]
	 SCS Opposite-Spin Energy  =      -1.6471838275204693 [Eh]
	 SCS Correlation Energy    =      -1.7972754719378559 [Eh]
	 SCS Total Energy          =    -433.5904440356314353 [Eh]
	-----------------------------------------------------------

  Dipole Moment: [D]
     X:     1.2432      Y:    -5.3517      Z:     0.8339     Total:     5.5571

*** Psi4 exiting successfully. Buy a developer a beer!
