                               Psi4 1.4a3.dev225

  ==> Input File <==

--------------------------------------------------------------------------
#psi4
#
memory 32 gb

molecule  {
0 1
  O       -1.4602810    -1.8042760    -0.0008590
  N       -1.1067000     0.4494610     0.0014260
  N        0.7338450    -1.0777760     0.0056990
  N        2.8872480    -0.2944040    -0.0665390
  C       -0.2576190     1.5082170    -0.0002850
  C        1.0914800     1.3228940    -0.0047970
  C       -0.6316600    -0.8954310    -0.0014820
  C       -2.5563510     0.6193970     0.0049040
  C        1.5208827    -0.0309712     0.0009093
  H       -0.7147670     2.4940890    -0.0022110
  H        1.7746080     2.1637920    -0.0246520
  H       -2.7835150     1.6863950     0.0041520
  H       -2.9802500     0.1433220     0.8903410
  H       -2.9840040     0.1411790    -0.8774920
  H        3.5206970     0.4000120     0.3068300
  H        3.1306380    -1.2574880     0.1361150
units angstrom
no_reorient  #important for SAPT in psi4, default
symmetry c1  #important for SAPT in psi4, default
}

set PROPERTIES_ORIGIN ["COM"]
properties('MP2/aug-cc-pvtz', properties = ['dipole'])
--------------------------------------------------------------------------

    Molecular point group: c1
  Charge       = 0
  Multiplicity = 1
  Basis Set: AUG-CC-PVTZ
    Blend: AUG-CC-PVTZ
  Basis Set: (AUG-CC-PVTZ AUX)
    Blend: AUG-CC-PVTZ-JKFIT

    Orbital Energies [Eh]
    ---------------------

    Doubly Occupied:

       1A    -20.504313     2A    -15.627862     3A    -15.587847
       4A    -15.544178     5A    -11.370358     6A    -11.348517
       7A    -11.329343     8A    -11.274629     9A    -11.243488
      10A     -1.384915    11A     -1.295885    12A     -1.265235
      13A     -1.170601    14A     -1.075004    15A     -0.966276
      16A     -0.900545    17A     -0.854973    18A     -0.758567
      19A     -0.723764    20A     -0.682878    21A     -0.673144
      22A     -0.656642    23A     -0.623494    24A     -0.602186
      25A     -0.591783    26A     -0.576588    27A     -0.566529
      28A     -0.514728    29A     -0.481076    30A     -0.445613
      31A     -0.420187    32A     -0.386434    33A     -0.338786

  @DF-RHF Final Energy:  -431.80274148731121

   => Energetics <=

    Nuclear Repulsion Energy =            441.7763577773849306
    One-Electron Energy =               -1463.5854590041449228
    Two-Electron Energy =                 590.0063597394488397
    Total Energy =                       -431.8027414873112093
  Basis Set: (AUG-CC-PVTZ AUX)
    Blend: AUG-CC-PVTZ-RI
    Molecular point group: c1

    Geometry (in Angstrom), charge = 0, multiplicity = 1:

       Center              X                  Y                   Z               Mass
    ------------   -----------------  -----------------  -----------------  -----------------
         O           -1.466743948973    -1.758902090122     0.002485462029    15.994914619570
         N           -1.113162948973     0.494834909878     0.004770462029    14.003074004430
         N            0.727382051027    -1.032402090122     0.009043462029    14.003074004430
         N            2.880785051027    -0.249030090122    -0.063194537971    14.003074004430
         C           -0.264081948973     1.553590909878     0.003059462029    12.000000000000
         C            1.085017051027     1.368267909878    -0.001452537971    12.000000000000
         C           -0.638122948973    -0.850057090122     0.001862462029    12.000000000000
         C           -2.562813948973     0.664770909878     0.008248462029    12.000000000000
         C            1.514419751027     0.014402709878     0.004253762029    12.000000000000
         H           -0.721229948973     2.539462909878     0.001133462029     1.007825032230
         H            1.768145051027     2.209165909878    -0.021307537971     1.007825032230
         H           -2.789977948973     1.731768909878     0.007496462029     1.007825032230
         H           -2.986712948973     0.188695909878     0.893685462029     1.007825032230
         H           -2.990466948973     0.186552909878    -0.874147537971     1.007825032230
         H            3.514234051027     0.445385909878     0.310174462029     1.007825032230
         H            3.124175051027    -1.212114090122     0.139459462029     1.007825032230

  Basis Set: AUG-CC-PVTZ
    Blend: AUG-CC-PVTZ
  Basis Set: (AUG-CC-PVTZ AUX)
    Blend: AUG-CC-PVTZ-JKFIT
	 Reference Energy          =    -431.8027414873112093 [Eh]
	 Singles Energy            =      -0.0000000000000000 [Eh]
	 Same-Spin Energy          =      -0.4504222427107566 [Eh]
	 Opposite-Spin Energy      =      -1.3719805893985408 [Eh]
	 Correlation Energy        =      -1.8224028321092973 [Eh]
	 Total Energy              =    -433.6251443194204853 [Eh]

	 ================> DF-SCS-MP2 Energies <==================
	-----------------------------------------------------------
	 SCS Same-Spin Scale       =       0.3333333333333333 [-]
	 SCS Opposite-Spin Scale   =       1.2000000000000000 [-]
	 SCS Same-Spin Energy      =      -0.1501407475702522 [Eh]
	 SCS Opposite-Spin Energy  =      -1.6463767072782489 [Eh]
	 SCS Correlation Energy    =      -1.7965174548485010 [Eh]
	 SCS Total Energy          =    -433.5992589421597359 [Eh]
	-----------------------------------------------------------

  Dipole Moment: [D]
     X:     1.6058      Y:     5.6315      Z:     0.7745     Total:     5.9070

*** Psi4 exiting successfully. Buy a developer a beer!
