                               Psi4 1.4a3.dev225

  ==> Input File <==

--------------------------------------------------------------------------
#psi4
#
memory 32 gb

molecule  {
0 1
  O       -1.4602810    -1.8042760    -0.0008590
  N       -1.1067000     0.4494610     0.0014260
  N        0.7338450    -1.0777760     0.0056990
  N        2.8872480    -0.2944040    -0.0665390
  C       -0.2576190     1.5082170    -0.0002850
  C        1.0914800     1.3228940    -0.0047970
  C       -0.6383210    -0.8765729    -0.0014412
  C       -2.5563510     0.6193970     0.0049040
  C        1.5404980    -0.0347530    -0.0000590
  H       -0.7147670     2.4940890    -0.0022110
  H        1.7746080     2.1637920    -0.0246520
  H       -2.7835150     1.6863950     0.0041520
  H       -2.9802500     0.1433220     0.8903410
  H       -2.9840040     0.1411790    -0.8774920
  H        3.5206970     0.4000120     0.3068300
  H        3.1306380    -1.2574880     0.1361150
units angstrom
no_reorient  #important for SAPT in psi4, default
symmetry c1  #important for SAPT in psi4, default
}

set PROPERTIES_ORIGIN ["COM"]
properties('MP2/aug-cc-pvtz', properties = ['dipole'])
--------------------------------------------------------------------------

    Molecular point group: c1
  Charge       = 0
  Multiplicity = 1
  Basis Set: AUG-CC-PVTZ
    Blend: AUG-CC-PVTZ
  Basis Set: (AUG-CC-PVTZ AUX)
    Blend: AUG-CC-PVTZ-JKFIT

    Orbital Energies [Eh]
    ---------------------

    Doubly Occupied:

       1A    -20.500404     2A    -15.628619     3A    -15.591364
       4A    -15.543458     5A    -11.368436     6A    -11.348655
       7A    -11.329201     8A    -11.274822     9A    -11.245340
      10A     -1.380764    11A     -1.293630    12A     -1.269524
      13A     -1.170044    14A     -1.073852    15A     -0.967598
      16A     -0.903433    17A     -0.853408    18A     -0.760374
      19A     -0.725222    20A     -0.687345    21A     -0.674352
      22A     -0.657635    23A     -0.621982    24A     -0.602509
      25A     -0.587969    26A     -0.576191    27A     -0.566444
      28A     -0.516159    29A     -0.478739    30A     -0.440450
      31A     -0.419090    32A     -0.384820    33A     -0.338305

  @DF-RHF Final Energy:  -431.80233654476922

   => Energetics <=

    Nuclear Repulsion Energy =            441.6936269411626199
    One-Electron Energy =               -1463.4316503598959116
    Two-Electron Energy =                 589.9356868739640731
    Total Energy =                       -431.8023365447692186
  Basis Set: (AUG-CC-PVTZ AUX)
    Blend: AUG-CC-PVTZ-RI
    Molecular point group: c1

    Geometry (in Angstrom), charge = 0, multiplicity = 1:

       Center              X                  Y                   Z               Mass
    ------------   -----------------  -----------------  -----------------  -----------------
         O           -1.467986975941    -1.760348733127     0.002574460085    15.994914619570
         N           -1.114405975941     0.493388266873     0.004859460085    14.003074004430
         N            0.726139024059    -1.033848733127     0.009132460085    14.003074004430
         N            2.879542024059    -0.250476733127    -0.063105539915    14.003074004430
         C           -0.265324975941     1.552144266873     0.003148460085    12.000000000000
         C            1.083774024059     1.366821266873    -0.001363539915    12.000000000000
         C           -0.646026975941    -0.832645633127     0.001992260085    12.000000000000
         C           -2.564056975941     0.663324266873     0.008337460085    12.000000000000
         C            1.532792024059     0.009174266873     0.003374460085    12.000000000000
         H           -0.722472975941     2.538016266873     0.001222460085     1.007825032230
         H            1.766902024059     2.207719266873    -0.021218539915     1.007825032230
         H           -2.791220975941     1.730322266873     0.007585460085     1.007825032230
         H           -2.987955975941     0.187249266873     0.893774460085     1.007825032230
         H           -2.991709975941     0.185106266873    -0.874058539915     1.007825032230
         H            3.512991024059     0.443939266873     0.310263460085     1.007825032230
         H            3.122932024059    -1.213560733127     0.139548460085     1.007825032230

  Basis Set: AUG-CC-PVTZ
    Blend: AUG-CC-PVTZ
  Basis Set: (AUG-CC-PVTZ AUX)
    Blend: AUG-CC-PVTZ-JKFIT
	 Reference Energy          =    -431.8023365447692186 [Eh]
	 Singles Energy            =      -0.0000000000000000 [Eh]
	 Same-Spin Energy          =      -0.4505272467372629 [Eh]
	 Opposite-Spin Energy      =      -1.3723028467610172 [Eh]
	 Correlation Energy        =      -1.8228300934982802 [Eh]
	 Total Energy              =    -433.6251666382675012 [Eh]

	 ================> DF-SCS-MP2 Energies <==================
	-----------------------------------------------------------
	 SCS Same-Spin Scale       =       0.3333333333333333 [-]
	 SCS Opposite-Spin Scale   =       1.2000000000000000 [-]
	 SCS Same-Spin Energy      =      -0.1501757489124210 [Eh]
	 SCS Opposite-Spin Energy  =      -1.6467634161132205 [Eh]
	 SCS Correlation Energy    =      -1.7969391650256414 [Eh]
	 SCS Total Energy          =    -433.5992757097948811 [Eh]
	-----------------------------------------------------------

  Dipole Moment: [D]
     X:     1.8109      Y:     5.7343      Z:     0.7703     Total:     6.0626

*** Psi4 exiting successfully. Buy a developer a beer!
