                               Psi4 1.3.2 release

  ==> Input File <==

--------------------------------------------------------------------------
#psi4
#
memory 32 gb

molecule  {
0 1
  O       -1.4243350     1.8531120    -0.0084660
  N       -1.1640197    -0.4086062     0.0069081
  N        0.7364917     1.1192301     0.0100112
  N        2.8919430     0.2615640    -0.0759850
  C       -0.2733660    -1.4960510    -0.0007800
  C        1.0765330    -1.3300920    -0.0040440
  C       -0.6338910     0.9109410     0.0155220
  C       -2.5617390    -0.6507120     0.0005160
  C        1.5376510     0.0247200    -0.0002060
  H       -0.7522370    -2.4720050    -0.0099570
  H        1.7553550    -2.1750520    -0.0313920
  H       -2.8635010    -1.2105310     0.8892080
  H       -2.8583950    -1.1972750    -0.8980640
  H       -3.0263160     0.3321150     0.0069490
  H        3.5027140    -0.4263080     0.3467730
  H        3.1453740     1.2255370     0.1175850
units angstrom
no_reorient  #important for SAPT in psi4, default
symmetry c1  #important for SAPT in psi4, default
}

set PROPERTIES_ORIGIN ["COM"]
properties('MP2/aug-cc-pvtz', properties = ['dipole'])
--------------------------------------------------------------------------

    Molecular point group: c1
  Charge       = 0
  Multiplicity = 1
  Basis Set: AUG-CC-PVTZ
    Blend: AUG-CC-PVTZ
  Basis Set: (AUG-CC-PVTZ AUX)
    Blend: AUG-CC-PVTZ-JKFIT

    Orbital Energies [Eh]
    ---------------------

    Doubly Occupied:

       1A    -20.495452     2A    -15.624024     3A    -15.597799
       4A    -15.549935     5A    -11.366698     6A    -11.358372
       7A    -11.333541     8A    -11.265130     9A    -11.253762
      10A     -1.378242    11A     -1.288271    12A     -1.265496
      13A     -1.167158    14A     -1.077800    15A     -0.964170
      16A     -0.898731    17A     -0.846550    18A     -0.758398
      19A     -0.721684    20A     -0.691067    21A     -0.675081
      22A     -0.655251    23A     -0.621714    24A     -0.608098
      25A     -0.590126    26A     -0.576468    27A     -0.550219
      28A     -0.520606    29A     -0.468893    30A     -0.441027
      31A     -0.420398    32A     -0.385173    33A     -0.341342

  @DF-RHF Final Energy:  -431.79253580567138

   => Energetics <=

    Nuclear Repulsion Energy =            439.5563625197248143
    One-Electron Energy =               -1459.1844431171252836
    Two-Electron Energy =                 587.8355447917290348
    Total Energy =                       -431.7925358056713776
  Basis Set: (AUG-CC-PVTZ AUX)
    Blend: AUG-CC-PVTZ-RI
    Molecular point group: c1

    Geometry (in Angstrom), charge = 0, multiplicity = 1:

       Center              X                  Y                   Z               Mass
    ------------   -----------------  -----------------  -----------------  -----------------
         O           -1.427245106887     1.798819279054    -0.005219360695    15.994914619570
         N           -1.166929806887    -0.462898920946     0.010154739305    14.003074004430
         N            0.733581593113     1.064937379054     0.013257839305    14.003074004430
         N            2.889032893113     0.207271279054    -0.072738360695    14.003074004430
         C           -0.276276106887    -1.550343720946     0.002466639305    12.000000000000
         C            1.073622893113    -1.384384720946    -0.000797360695    12.000000000000
         C           -0.636801106887     0.856648279054     0.018768639305    12.000000000000
         C           -2.564649106887    -0.705004720946     0.003762639305    12.000000000000
         C            1.534740893113    -0.029572720946     0.003040639305    12.000000000000
         H           -0.755147106887    -2.526297720946    -0.006710360695     1.007825032230
         H            1.752444893113    -2.229344720946    -0.028145360695     1.007825032230
         H           -2.866411106887    -1.264823720946     0.892454639305     1.007825032230
         H           -2.861305106887    -1.251567720946    -0.894817360695     1.007825032230
         H           -3.029226106887     0.277822279054     0.010195639305     1.007825032230
         H            3.499803893113    -0.480600720946     0.350019639305     1.007825032230
         H            3.142463893113     1.171244279054     0.120831639305     1.007825032230

  Basis Set: AUG-CC-PVTZ
    Blend: AUG-CC-PVTZ
  Basis Set: (AUG-CC-PVTZ AUX)
    Blend: AUG-CC-PVTZ-JKFIT
	 Reference Energy          =    -431.7925358056713776 [Eh]
	 Singles Energy            =      -0.0000000000000000 [Eh]
	 Same-Spin Energy          =      -0.4506570901138858 [Eh]
	 Opposite-Spin Energy      =      -1.3734907976064139 [Eh]
	 Correlation Energy        =      -1.8241478877202997 [Eh]
	 Total Energy              =    -433.6166836933916784 [Eh]

	 ================> DF-SCS-MP2 Energies <==================
	-----------------------------------------------------------
	 SCS Same-Spin Scale       =       0.3333333333333333 [-]
	 SCS Opposite-Spin Scale   =       1.2000000000000000 [-]
	 SCS Same-Spin Energy      =      -0.1502190300379619 [Eh]
	 SCS Opposite-Spin Energy  =      -1.6481889571276966 [Eh]
	 SCS Correlation Energy    =      -1.7984079871656586 [Eh]
	 SCS Total Energy          =    -433.5909437928370380 [Eh]
	-----------------------------------------------------------

  Dipole Moment: [D]
     X:     2.0960      Y:    -5.8092      Z:     0.8253     Total:     6.2306

*** Psi4 exiting successfully. Buy a developer a beer!
