                               Psi4 1.4a3.dev225

  ==> Input File <==

--------------------------------------------------------------------------
#psi4
#
memory 32 gb

molecule  {
0 1
  O       -1.4602810    -1.8042760    -0.0008590
  N       -1.1067000     0.4494610     0.0014260
  N        0.7338450    -1.0777760     0.0056990
  N        2.8872480    -0.2944040    -0.0665390
  C       -0.2576190     1.5082170    -0.0002850
  C        1.0914800     1.3228940    -0.0047970
  C       -0.6316600    -0.8954310    -0.0014820
  C       -2.5563510     0.6193970     0.0049040
  C        1.5404980    -0.0347530    -0.0000590
  H       -0.7147670     2.4940890    -0.0022110
  H        1.7430865     2.1249905    -0.0237358
  H       -2.7835150     1.6863950     0.0041520
  H       -2.9802500     0.1433220     0.8903410
  H       -2.9840040     0.1411790    -0.8774920
  H        3.5206970     0.4000120     0.3068300
  H        3.1306380    -1.2574880     0.1361150
units angstrom
no_reorient  #important for SAPT in psi4, default
symmetry c1  #important for SAPT in psi4, default
}

set PROPERTIES_ORIGIN ["COM"]
properties('MP2/aug-cc-pvtz', properties = ['dipole'])
--------------------------------------------------------------------------

    Molecular point group: c1
  Charge       = 0
  Multiplicity = 1
  Basis Set: AUG-CC-PVTZ
    Blend: AUG-CC-PVTZ
  Basis Set: (AUG-CC-PVTZ AUX)
    Blend: AUG-CC-PVTZ-JKFIT

    Orbital Energies [Eh]
    ---------------------

    Doubly Occupied:

       1A    -20.502851     2A    -15.626001     3A    -15.591643
       4A    -15.542173     5A    -11.369050     6A    -11.349087
       7A    -11.327942     8A    -11.273455     9A    -11.237689
      10A     -1.382996    11A     -1.295369    12A     -1.267749
      13A     -1.171489    14A     -1.074235    15A     -0.965593
      16A     -0.899345    17A     -0.856347    18A     -0.759447
      19A     -0.727039    20A     -0.689479    21A     -0.676264
      22A     -0.655099    23A     -0.625095    24A     -0.602509
      25A     -0.592012    26A     -0.576301    27A     -0.566645
      28A     -0.516974    29A     -0.480081    30A     -0.442587
      31A     -0.418314    32A     -0.384947    33A     -0.337421

  @DF-RHF Final Energy:  -431.80248931112709

   => Energetics <=

    Nuclear Repulsion Energy =            441.8557354761101692
    One-Electron Energy =               -1463.7499938476385068
    Two-Electron Energy =                 590.0917690604012478
    Total Energy =                       -431.8024893111271467
  Basis Set: (AUG-CC-PVTZ AUX)
    Blend: AUG-CC-PVTZ-RI
    Molecular point group: c1

    Geometry (in Angstrom), charge = 0, multiplicity = 1:

       Center              X                  Y                   Z               Mass
    ------------   -----------------  -----------------  -----------------  -----------------
         O           -1.468372105178    -1.758226514733     0.002570991565    15.994914619570
         N           -1.114791105178     0.495510485267     0.004855991565    14.003074004430
         N            0.725753894822    -1.031726514733     0.009128991565    14.003074004430
         N            2.879156894822    -0.248354514733    -0.063109008435    14.003074004430
         C           -0.265710105178     1.554266485267     0.003144991565    12.000000000000
         C            1.083388894822     1.368943485267    -0.001367008435    12.000000000000
         C           -0.639751105178    -0.849381514733     0.001947991565    12.000000000000
         C           -2.564442105178     0.665446485267     0.008333991565    12.000000000000
         C            1.532406894822     0.011296485267     0.003370991565    12.000000000000
         H           -0.722858105178     2.540138485267     0.001218991565     1.007825032230
         H            1.734995394822     2.171039985267    -0.020305808435     1.007825032230
         H           -2.791606105178     1.732444485267     0.007581991565     1.007825032230
         H           -2.988341105178     0.189371485267     0.893770991565     1.007825032230
         H           -2.992095105178     0.187228485267    -0.874062008435     1.007825032230
         H            3.512605894822     0.446061485267     0.310259991565     1.007825032230
         H            3.122546894822    -1.211438514733     0.139544991565     1.007825032230

  Basis Set: AUG-CC-PVTZ
    Blend: AUG-CC-PVTZ
  Basis Set: (AUG-CC-PVTZ AUX)
    Blend: AUG-CC-PVTZ-JKFIT
	 Reference Energy          =    -431.8024893111270899 [Eh]
	 Singles Energy            =      -0.0000000000000000 [Eh]
	 Same-Spin Energy          =      -0.4503193902535186 [Eh]
	 Opposite-Spin Energy      =      -1.3716079624680551 [Eh]
	 Correlation Energy        =      -1.8219273527215738 [Eh]
	 Total Energy              =    -433.6244166638486490 [Eh]

	 ================> DF-SCS-MP2 Energies <==================
	-----------------------------------------------------------
	 SCS Same-Spin Scale       =       0.3333333333333333 [-]
	 SCS Opposite-Spin Scale   =       1.2000000000000000 [-]
	 SCS Same-Spin Energy      =      -0.1501064634178395 [Eh]
	 SCS Opposite-Spin Energy  =      -1.6459295549616659 [Eh]
	 SCS Correlation Energy    =      -1.7960360183795054 [Eh]
	 SCS Total Energy          =    -433.5985253295065718 [Eh]
	-----------------------------------------------------------

  Dipole Moment: [D]
     X:     1.8055      Y:     5.6135      Z:     0.7701     Total:     5.9467

*** Psi4 exiting successfully. Buy a developer a beer!
