                               Psi4 1.3.2 release

  ==> Input File <==

--------------------------------------------------------------------------
#psi4
#
memory 32 gb

molecule  {
0 1
  O       -1.4243350     1.8531120    -0.0084660
  N       -1.1176450    -0.4263010     0.0065070
  N        0.7429240     1.0712790     0.0095610
  N        2.8919430     0.2615640    -0.0759850
  C       -0.2733660    -1.4960510    -0.0007800
  C        1.0765330    -1.3300920    -0.0040440
  C       -0.6338910     0.9109410     0.0155220
  C       -2.5617390    -0.6507120     0.0005160
  C        1.4732103    -0.1646133    -0.0007424
  H       -0.7522370    -2.4720050    -0.0099570
  H        1.7553550    -2.1750520    -0.0313920
  H       -2.8635010    -1.2105310     0.8892080
  H       -2.8583950    -1.1972750    -0.8980640
  H       -3.0263160     0.3321150     0.0069490
  H        3.5027140    -0.4263080     0.3467730
  H        3.1453740     1.2255370     0.1175850
units angstrom
no_reorient  #important for SAPT in psi4, default
symmetry c1  #important for SAPT in psi4, default
}

set PROPERTIES_ORIGIN ["COM"]
properties('MP2/aug-cc-pvtz', properties = ['dipole'])
--------------------------------------------------------------------------

    Molecular point group: c1
  Charge       = 0
  Multiplicity = 1
  Basis Set: AUG-CC-PVTZ
    Blend: AUG-CC-PVTZ
  Basis Set: (AUG-CC-PVTZ AUX)
    Blend: AUG-CC-PVTZ-JKFIT

    Orbital Energies [Eh]
    ---------------------

    Doubly Occupied:

       1A    -20.493565     2A    -15.649224     3A    -15.574145
       4A    -15.543470     5A    -11.361149     6A    -11.358099
       7A    -11.338090     8A    -11.280615     9A    -11.238675
      10A     -1.381454    11A     -1.300091    12A     -1.237738
      13A     -1.134285    14A     -1.110978    15A     -0.984624
      16A     -0.926266    17A     -0.837950    18A     -0.752376
      19A     -0.739394    20A     -0.677374    21A     -0.665926
      22A     -0.646347    23A     -0.643205    24A     -0.607722
      25A     -0.583341    26A     -0.576050    27A     -0.553472
      28A     -0.513512    29A     -0.473807    30A     -0.440742
      31A     -0.415561    32A     -0.383205    33A     -0.341158

  @DF-RHF Final Energy:  -431.73137910956439

   => Energetics <=

    Nuclear Repulsion Energy =            441.4000723638196177
    One-Electron Energy =               -1462.7356794388133494
    Two-Electron Energy =                 589.6042279654293452
    Total Energy =                       -431.7313791095643865
  Basis Set: (AUG-CC-PVTZ AUX)
    Blend: AUG-CC-PVTZ-RI
    Molecular point group: c1

    Geometry (in Angstrom), charge = 0, multiplicity = 1:

       Center              X                  Y                   Z               Mass
    ------------   -----------------  -----------------  -----------------  -----------------
         O           -1.426974609802     1.824337204553    -0.005072568942    15.994914619570
         N           -1.120284609802    -0.455075795447     0.009900431058    14.003074004430
         N            0.740284390198     1.042504204553     0.012954431058    14.003074004430
         N            2.889303390198     0.232789204553    -0.072591568942    14.003074004430
         C           -0.276005609802    -1.524825795447     0.002613431058    12.000000000000
         C            1.073893390198    -1.358866795447    -0.000650568942    12.000000000000
         C           -0.636530609802     0.882166204553     0.018915431058    12.000000000000
         C           -2.564378609802    -0.679486795447     0.003909431058    12.000000000000
         C            1.470570690198    -0.193388095447     0.002651031058    12.000000000000
         H           -0.754876609802    -2.500779795447    -0.006563568942     1.007825032230
         H            1.752715390198    -2.203826795447    -0.027998568942     1.007825032230
         H           -2.866140609802    -1.239305795447     0.892601431058     1.007825032230
         H           -2.861034609802    -1.226049795447    -0.894670568942     1.007825032230
         H           -3.028955609802     0.303340204553     0.010342431058     1.007825032230
         H            3.500074390198    -0.455082795447     0.350166431058     1.007825032230
         H            3.142734390198     1.196762204553     0.120978431058     1.007825032230

  Basis Set: AUG-CC-PVTZ
    Blend: AUG-CC-PVTZ
  Basis Set: (AUG-CC-PVTZ AUX)
    Blend: AUG-CC-PVTZ-JKFIT
	 Reference Energy          =    -431.7313791095643865 [Eh]
	 Singles Energy            =      -0.0000000000000000 [Eh]
	 Same-Spin Energy          =      -0.4545543580160294 [Eh]
	 Opposite-Spin Energy      =      -1.3790549221385833 [Eh]
	 Correlation Energy        =      -1.8336092801546127 [Eh]
	 Total Energy              =    -433.5649883897190193 [Eh]

	 ================> DF-SCS-MP2 Energies <==================
	-----------------------------------------------------------
	 SCS Same-Spin Scale       =       0.3333333333333333 [-]
	 SCS Opposite-Spin Scale   =       1.2000000000000000 [-]
	 SCS Same-Spin Energy      =      -0.1515181193386765 [Eh]
	 SCS Opposite-Spin Energy  =      -1.6548659065662998 [Eh]
	 SCS Correlation Energy    =      -1.8063840259049764 [Eh]
	 SCS Total Energy          =    -433.5377631354693904 [Eh]
	-----------------------------------------------------------

  Dipole Moment: [D]
     X:     0.6165      Y:    -6.5543      Z:     0.8435     Total:     6.6370

*** Psi4 exiting successfully. Buy a developer a beer!
