                               Psi4 1.3.2 release

  ==> Input File <==

--------------------------------------------------------------------------
#psi4
#
memory 32 gb

molecule  {
0 1
  O       -1.4725771     1.8104683    -0.0072758
  N       -1.1176450    -0.4263010     0.0065070
  N        0.7494339     0.9990273     0.0114678
  N        2.8919430     0.2615640    -0.0759850
  C       -0.2733660    -1.4960510    -0.0007800
  C        1.0765330    -1.3300920    -0.0040440
  C       -0.6338910     0.9109410     0.0155220
  C       -2.5617390    -0.6507120     0.0005160
  C        1.5376510     0.0247200    -0.0002060
  H       -0.7522370    -2.4720050    -0.0099570
  H        1.7553550    -2.1750520    -0.0313920
  H       -2.8635010    -1.2105310     0.8892080
  H       -2.8583950    -1.1972750    -0.8980640
  H       -3.0263160     0.3321150     0.0069490
  H        3.5027140    -0.4263080     0.3467730
  H        3.1453740     1.2255370     0.1175850
units angstrom
no_reorient  #important for SAPT in psi4, default
symmetry c1  #important for SAPT in psi4, default
}

set PROPERTIES_ORIGIN ["COM"]
properties('MP2/aug-cc-pvtz', properties = ['dipole'])
--------------------------------------------------------------------------

    Molecular point group: c1
  Charge       = 0
  Multiplicity = 1
  Basis Set: AUG-CC-PVTZ
    Blend: AUG-CC-PVTZ
  Basis Set: (AUG-CC-PVTZ AUX)
    Blend: AUG-CC-PVTZ-JKFIT

    Orbital Energies [Eh]
    ---------------------

    Doubly Occupied:

       1A    -20.511470     2A    -15.620855     3A    -15.587234
       4A    -15.539767     5A    -11.380202     6A    -11.341254
       7A    -11.321845     8A    -11.267158     9A    -11.241276
      10A     -1.389051    11A     -1.305651    12A     -1.267506
      13A     -1.179909    14A     -1.068866    15A     -0.966795
      16A     -0.896279    17A     -0.861146    18A     -0.759930
      19A     -0.725036    20A     -0.686719    21A     -0.672647
      22A     -0.655611    23A     -0.625777    24A     -0.602498
      25A     -0.594297    26A     -0.584701    27A     -0.556365
      28A     -0.524091    29A     -0.475267    30A     -0.446828
      31A     -0.413841    32A     -0.395373    33A     -0.337739

  @DF-RHF Final Energy:  -431.79686701662354

   => Energetics <=

    Nuclear Repulsion Energy =            442.7934689445248750
    One-Electron Energy =               -1465.5747004889608434
    Two-Electron Energy =                 590.9843645278124313
    Total Energy =                       -431.7968670166235370
  Basis Set: (AUG-CC-PVTZ AUX)
    Blend: AUG-CC-PVTZ-RI
    Molecular point group: c1

    Geometry (in Angstrom), charge = 0, multiplicity = 1:

       Center              X                  Y                   Z               Mass
    ------------   -----------------  -----------------  -----------------  -----------------
         O           -1.475958909934     1.777070312581    -0.004299572387    15.994914619570
         N           -1.121026809934    -0.459698987419     0.009483227613    14.003074004430
         N            0.746052090066     0.965629312581     0.014444027613    14.003074004430
         N            2.888561190066     0.228166012581    -0.073008772387    14.003074004430
         C           -0.276747809934    -1.529448987419     0.002196227613    12.000000000000
         C            1.073151190066    -1.363489987419    -0.001067772387    12.000000000000
         C           -0.637272809934     0.877543012581     0.018498227613    12.000000000000
         C           -2.565120809934    -0.684109987419     0.003492227613    12.000000000000
         C            1.534269190066    -0.008677987419     0.002770227613    12.000000000000
         H           -0.755618809934    -2.505402987419    -0.006980772387     1.007825032230
         H            1.751973190066    -2.208449987419    -0.028415772387     1.007825032230
         H           -2.866882809934    -1.243928987419     0.892184227613     1.007825032230
         H           -2.861776809934    -1.230672987419    -0.895087772387     1.007825032230
         H           -3.029697809934     0.298717012581     0.009925227613     1.007825032230
         H            3.499332190066    -0.459705987419     0.349749227613     1.007825032230
         H            3.141992190066     1.192139012581     0.120561227613     1.007825032230

  Basis Set: AUG-CC-PVTZ
    Blend: AUG-CC-PVTZ
  Basis Set: (AUG-CC-PVTZ AUX)
    Blend: AUG-CC-PVTZ-JKFIT
	 Reference Energy          =    -431.7968670166235370 [Eh]
	 Singles Energy            =      -0.0000000000000000 [Eh]
	 Same-Spin Energy          =      -0.4503265737943297 [Eh]
	 Opposite-Spin Energy      =      -1.3712729084461053 [Eh]
	 Correlation Energy        =      -1.8215994822404351 [Eh]
	 Total Energy              =    -433.6184664988639952 [Eh]

	 ================> DF-SCS-MP2 Energies <==================
	-----------------------------------------------------------
	 SCS Same-Spin Scale       =       0.3333333333333333 [-]
	 SCS Opposite-Spin Scale   =       1.2000000000000000 [-]
	 SCS Same-Spin Energy      =      -0.1501088579314432 [Eh]
	 SCS Opposite-Spin Energy  =      -1.6455274901353263 [Eh]
	 SCS Correlation Energy    =      -1.7956363480667696 [Eh]
	 SCS Total Energy          =    -433.5925033646902875 [Eh]
	-----------------------------------------------------------

  Dipole Moment: [D]
     X:     1.6397      Y:    -5.2688      Z:     0.8361     Total:     5.5810

*** Psi4 exiting successfully. Buy a developer a beer!
