                               Psi4 1.3.2 release

  ==> Input File <==

--------------------------------------------------------------------------
#psi4
#
memory 32 gb

molecule  {
0 1
  O       -1.4243350     1.8531120    -0.0084660
  N       -1.1176450    -0.4263010     0.0065070
  N        0.7429240     1.0712790     0.0095610
  N        2.8778092     0.3322087    -0.0734933
  C       -0.2733660    -1.4960510    -0.0007800
  C        1.0064014    -1.3041641     0.0007686
  C       -0.6338910     0.9109410     0.0155220
  C       -2.5617390    -0.6507120     0.0005160
  C        1.5376510     0.0247200    -0.0002060
  H       -0.7522370    -2.4720050    -0.0099570
  H        1.7553550    -2.1750520    -0.0313920
  H       -2.8635010    -1.2105310     0.8892080
  H       -2.8583950    -1.1972750    -0.8980640
  H       -3.0263160     0.3321150     0.0069490
  H        3.5027140    -0.4263080     0.3467730
  H        3.1453740     1.2255370     0.1175850
units angstrom
no_reorient  #important for SAPT in psi4, default
symmetry c1  #important for SAPT in psi4, default
}

set PROPERTIES_ORIGIN ["COM"]
properties('MP2/aug-cc-pvtz', properties = ['dipole'])
--------------------------------------------------------------------------

    Molecular point group: c1
  Charge       = 0
  Multiplicity = 1
  Basis Set: AUG-CC-PVTZ
    Blend: AUG-CC-PVTZ
  Basis Set: (AUG-CC-PVTZ AUX)
    Blend: AUG-CC-PVTZ-JKFIT

    Orbital Energies [Eh]
    ---------------------

    Doubly Occupied:

       1A    -20.501303     2A    -15.618940     3A    -15.594848
       4A    -15.542187     5A    -11.369531     6A    -11.351383
       7A    -11.316155     8A    -11.267719     9A    -11.247999
      10A     -1.381062    11A     -1.298166    12A     -1.268584
      13A     -1.170298    14A     -1.085318    15A     -0.963207
      16A     -0.898575    17A     -0.855080    18A     -0.766412
      19A     -0.729103    20A     -0.682773    21A     -0.665181
      22A     -0.654316    23A     -0.625861    24A     -0.608080
      25A     -0.583464    26A     -0.577087    27A     -0.555432
      28A     -0.521443    29A     -0.482003    30A     -0.438331
      31A     -0.417233    32A     -0.387165    33A     -0.344088

  @DF-RHF Final Energy:  -431.78623443546434

   => Energetics <=

    Nuclear Repulsion Energy =            442.3017405128963446
    One-Electron Energy =               -1464.6392952007201984
    Two-Electron Energy =                 590.5513202523595737
    Total Energy =                       -431.7862344354642801
  Basis Set: (AUG-CC-PVTZ AUX)
    Blend: AUG-CC-PVTZ-RI
    Molecular point group: c1

    Geometry (in Angstrom), charge = 0, multiplicity = 1:

       Center              X                  Y                   Z               Mass
    ------------   -----------------  -----------------  -----------------  -----------------
         O           -1.424845953448     1.795771648456    -0.005864831229    15.994914619570
         N           -1.118155953448    -0.483641351544     0.009108168771    14.003074004430
         N            0.742413046552     1.013938648456     0.012162168771    14.003074004430
         N            2.877298246552     0.274868348456    -0.070892131229    14.003074004430
         C           -0.273876953448    -1.553391351544     0.001821168771    12.000000000000
         C            1.005890446552    -1.361504451544     0.003369768771    12.000000000000
         C           -0.634401953448     0.853600648456     0.018123168771    12.000000000000
         C           -2.562249953448    -0.708052351544     0.003117168771    12.000000000000
         C            1.537140046552    -0.032620351544     0.002395168771    12.000000000000
         H           -0.752747953448    -2.529345351544    -0.007355831229     1.007825032230
         H            1.754844046552    -2.232392351544    -0.028790831229     1.007825032230
         H           -2.864011953448    -1.267871351544     0.891809168771     1.007825032230
         H           -2.858905953448    -1.254615351544    -0.895462831229     1.007825032230
         H           -3.026826953448     0.274774648456     0.009550168771     1.007825032230
         H            3.502203046552    -0.483648351544     0.349374168771     1.007825032230
         H            3.144863046552     1.168196648456     0.120186168771     1.007825032230

  Basis Set: AUG-CC-PVTZ
    Blend: AUG-CC-PVTZ
  Basis Set: (AUG-CC-PVTZ AUX)
    Blend: AUG-CC-PVTZ-JKFIT
	 Reference Energy          =    -431.7862344354643369 [Eh]
	 Singles Energy            =      -0.0000000000000000 [Eh]
	 Same-Spin Energy          =      -0.4500806518399803 [Eh]
	 Opposite-Spin Energy      =      -1.3717783720431607 [Eh]
	 Correlation Energy        =      -1.8218590238831409 [Eh]
	 Total Energy              =    -433.6080934593474581 [Eh]

	 ================> DF-SCS-MP2 Energies <==================
	-----------------------------------------------------------
	 SCS Same-Spin Scale       =       0.3333333333333333 [-]
	 SCS Opposite-Spin Scale   =       1.2000000000000000 [-]
	 SCS Same-Spin Energy      =      -0.1500268839466601 [Eh]
	 SCS Opposite-Spin Energy  =      -1.6461340464517928 [Eh]
	 SCS Correlation Energy    =      -1.7961609303984529 [Eh]
	 SCS Total Energy          =    -433.5823953658627943 [Eh]
	-----------------------------------------------------------

  Dipole Moment: [D]
     X:     1.8748      Y:    -5.6968      Z:     0.8147     Total:     6.0525

*** Psi4 exiting successfully. Buy a developer a beer!
