                               Psi4 1.3.2 release

  ==> Input File <==

--------------------------------------------------------------------------
#psi4
#
memory 32 gb

molecule  {
0 1
  O       -1.4243350     1.8531120    -0.0084660
  N       -1.1176450    -0.4263010     0.0065070
  N        0.7429240     1.0712790     0.0095610
  N        2.8919430     0.2615640    -0.0759850
  C       -0.2733660    -1.4960510    -0.0007800
  C        1.0765330    -1.3300920    -0.0040440
  C       -0.6338910     0.9109410     0.0155220
  C       -2.5617390    -0.6507120     0.0005160
  C        1.5336178     0.0451797    -0.0121499
  H       -0.7522370    -2.4720050    -0.0099570
  H        1.7553550    -2.1750520    -0.0313920
  H       -2.8635010    -1.2105310     0.8892080
  H       -2.8583950    -1.1972750    -0.8980640
  H       -3.0263160     0.3321150     0.0069490
  H        3.5166955    -0.4166843     0.3418631
  H        3.1453740     1.2255370     0.1175850
units angstrom
no_reorient  #important for SAPT in psi4, default
symmetry c1  #important for SAPT in psi4, default
}

set PROPERTIES_ORIGIN ["COM"]
properties('MP2/aug-cc-pvtz', properties = ['dipole'])
--------------------------------------------------------------------------

    Molecular point group: c1
  Charge       = 0
  Multiplicity = 1
  Basis Set: AUG-CC-PVTZ
    Blend: AUG-CC-PVTZ
  Basis Set: (AUG-CC-PVTZ AUX)
    Blend: AUG-CC-PVTZ-JKFIT

    Orbital Energies [Eh]
    ---------------------

    Doubly Occupied:

       1A    -20.505506     2A    -15.624099     3A    -15.590725
       4A    -15.544050     5A    -11.374228     6A    -11.349117
       7A    -11.324623     8A    -11.270092     9A    -11.246160
      10A     -1.384028    11A     -1.297288    12A     -1.268015
      13A     -1.174660    14A     -1.069791    15A     -0.964637
      16A     -0.896993    17A     -0.856101    18A     -0.758130
      19A     -0.723438    20A     -0.688507    21A     -0.673092
      22A     -0.655526    23A     -0.620388    24A     -0.600026
      25A     -0.593570    26A     -0.581210    27A     -0.558706
      28A     -0.521925    29A     -0.476203    30A     -0.442179
      31A     -0.420324    32A     -0.389932    33A     -0.338426

  @DF-RHF Final Energy:  -431.80124935214752

   => Energetics <=

    Nuclear Repulsion Energy =            440.9843026892435773
    One-Electron Energy =               -1462.0077136761760812
    Two-Electron Energy =                 589.2221616347849249
    Total Energy =                       -431.8012493521475790
  Basis Set: (AUG-CC-PVTZ AUX)
    Blend: AUG-CC-PVTZ-RI
    Molecular point group: c1

    Geometry (in Angstrom), charge = 0, multiplicity = 1:

       Center              X                  Y                   Z               Mass
    ------------   -----------------  -----------------  -----------------  -----------------
         O           -1.432883672137     1.804129008526    -0.003938396911    15.994914619570
         N           -1.126193672137    -0.475283991474     0.011034603089    14.003074004430
         N            0.734375327863     1.022296008526     0.014088603089    14.003074004430
         N            2.883394327863     0.212581008526    -0.071457396911    14.003074004430
         C           -0.281914672137    -1.545033991474     0.003747603089    12.000000000000
         C            1.067984327863    -1.379074991474     0.000483603089    12.000000000000
         C           -0.642439672137     0.861958008526     0.020049603089    12.000000000000
         C           -2.570287672137    -0.699694991474     0.005043603089    12.000000000000
         C            1.525069127863    -0.003803291474    -0.007622296911    12.000000000000
         H           -0.760785672137    -2.520987991474    -0.005429396911     1.007825032230
         H            1.746806327863    -2.224034991474    -0.026864396911     1.007825032230
         H           -2.872049672137    -1.259513991474     0.893735603089     1.007825032230
         H           -2.866943672137    -1.246257991474    -0.893536396911     1.007825032230
         H           -3.034864672137     0.283132008526     0.011476603089     1.007825032230
         H            3.508146827863    -0.465667291474     0.346390703089     1.007825032230
         H            3.136825327863     1.176554008526     0.122112603089     1.007825032230

  Basis Set: AUG-CC-PVTZ
    Blend: AUG-CC-PVTZ
  Basis Set: (AUG-CC-PVTZ AUX)
    Blend: AUG-CC-PVTZ-JKFIT
	 Reference Energy          =    -431.8012493521475221 [Eh]
	 Singles Energy            =      -0.0000000000000000 [Eh]
	 Same-Spin Energy          =      -0.4499648571672388 [Eh]
	 Opposite-Spin Energy      =      -1.3716869782607277 [Eh]
	 Correlation Energy        =      -1.8216518354279665 [Eh]
	 Total Energy              =    -433.6229011875755077 [Eh]

	 ================> DF-SCS-MP2 Energies <==================
	-----------------------------------------------------------
	 SCS Same-Spin Scale       =       0.3333333333333333 [-]
	 SCS Opposite-Spin Scale   =       1.2000000000000000 [-]
	 SCS Same-Spin Energy      =      -0.1499882857224129 [Eh]
	 SCS Opposite-Spin Energy  =      -1.6460243739128733 [Eh]
	 SCS Correlation Energy    =      -1.7960126596352861 [Eh]
	 SCS Total Energy          =    -433.5972620117827887 [Eh]
	-----------------------------------------------------------

  Dipole Moment: [D]
     X:     1.7155      Y:    -5.5339      Z:     0.8201     Total:     5.8514

*** Psi4 exiting successfully. Buy a developer a beer!
