                               Psi4 1.3.2 release

  ==> Input File <==

--------------------------------------------------------------------------
#psi4
#
memory 32 gb

molecule  {
0 1
  O       -1.4243350     1.8531120    -0.0084660
  N       -1.1186240    -0.4200676    -0.0045762
  N        0.7429240     1.0712790     0.0095610
  N        2.8919430     0.2615640    -0.0759850
  C       -0.2733660    -1.4960510    -0.0007800
  C        1.0765330    -1.3300920    -0.0040440
  C       -0.6338910     0.9109410     0.0155220
  C       -2.5617390    -0.6507120     0.0005160
  C        1.5376510     0.0247200    -0.0002060
  H       -0.7522370    -2.4720050    -0.0099570
  H        1.7553550    -2.1750520    -0.0313920
  H       -2.8725637    -1.2102573     0.8862520
  H       -2.8583950    -1.1972750    -0.8980640
  H       -3.0263160     0.3321150     0.0069490
  H        3.5027140    -0.4263080     0.3467730
  H        3.1453740     1.2255370     0.1175850
units angstrom
no_reorient  #important for SAPT in psi4, default
symmetry c1  #important for SAPT in psi4, default
}

set PROPERTIES_ORIGIN ["COM"]
properties('MP2/aug-cc-pvtz', properties = ['dipole'])
--------------------------------------------------------------------------

    Molecular point group: c1
  Charge       = 0
  Multiplicity = 1
  Basis Set: AUG-CC-PVTZ
    Blend: AUG-CC-PVTZ
  Basis Set: (AUG-CC-PVTZ AUX)
    Blend: AUG-CC-PVTZ-JKFIT

    Orbital Energies [Eh]
    ---------------------

    Doubly Occupied:

       1A    -20.502589     2A    -15.625312     3A    -15.591760
       4A    -15.543667     5A    -11.371475     6A    -11.349492
       7A    -11.327711     8A    -11.270224     9A    -11.246814
      10A     -1.382556    11A     -1.295442    12A     -1.266918
      13A     -1.170700    14A     -1.073037    15A     -0.965325
      16A     -0.899857    17A     -0.853427    18A     -0.759095
      19A     -0.723832    20A     -0.686024    21A     -0.674530
      22A     -0.655095    23A     -0.621895    24A     -0.602405
      25A     -0.592265    26A     -0.579655    27A     -0.557845
      28A     -0.522038    29A     -0.475244    30A     -0.440547
      31A     -0.419761    32A     -0.387937    33A     -0.339552

  @DF-RHF Final Energy:  -431.80090014581577

   => Energetics <=

    Nuclear Repulsion Energy =            440.9278519518253461
    One-Electron Energy =               -1461.9094567208776425
    Two-Electron Energy =                 589.1807046232365792
    Total Energy =                       -431.8009001458157172
  Basis Set: (AUG-CC-PVTZ AUX)
    Blend: AUG-CC-PVTZ-RI
    Molecular point group: c1

    Geometry (in Angstrom), charge = 0, multiplicity = 1:

       Center              X                  Y                   Z               Mass
    ------------   -----------------  -----------------  -----------------  -----------------
         O           -1.432975347882     1.805469599133    -0.003859211187    15.994914619570
         N           -1.127264347882    -0.467710000867     0.000030588813    14.003074004430
         N            0.734283652118     1.023636599133     0.014167788813    14.003074004430
         N            2.883302652118     0.213921599133    -0.071378211187    14.003074004430
         C           -0.282006347882    -1.543693400867     0.003826788813    12.000000000000
         C            1.067892652118    -1.377734400867     0.000562788813    12.000000000000
         C           -0.642531347882     0.863298599133     0.020128788813    12.000000000000
         C           -2.570379347882    -0.698354400867     0.005122788813    12.000000000000
         C            1.529010652118    -0.022922400867     0.004400788813    12.000000000000
         H           -0.760877347882    -2.519647400867    -0.005350211187     1.007825032230
         H            1.746714652118    -2.222694400867    -0.026785211187     1.007825032230
         H           -2.881204047882    -1.257899700867     0.890858788813     1.007825032230
         H           -2.867035347882    -1.244917400867    -0.893457211187     1.007825032230
         H           -3.034956347882     0.284472599133     0.011555788813     1.007825032230
         H            3.494073652118    -0.473950400867     0.351379788813     1.007825032230
         H            3.136733652118     1.177894599133     0.122191788813     1.007825032230

  Basis Set: AUG-CC-PVTZ
    Blend: AUG-CC-PVTZ
  Basis Set: (AUG-CC-PVTZ AUX)
    Blend: AUG-CC-PVTZ-JKFIT
	 Reference Energy          =    -431.8009001458157741 [Eh]
	 Singles Energy            =      -0.0000000000000000 [Eh]
	 Same-Spin Energy          =      -0.4503275858857288 [Eh]
	 Opposite-Spin Energy      =      -1.3721312411220670 [Eh]
	 Correlation Energy        =      -1.8224588270077957 [Eh]
	 Total Energy              =    -433.6233589728235529 [Eh]

	 ================> DF-SCS-MP2 Energies <==================
	-----------------------------------------------------------
	 SCS Same-Spin Scale       =       0.3333333333333333 [-]
	 SCS Opposite-Spin Scale   =       1.2000000000000000 [-]
	 SCS Same-Spin Energy      =      -0.1501091952952429 [Eh]
	 SCS Opposite-Spin Energy  =      -1.6465574893464803 [Eh]
	 SCS Correlation Energy    =      -1.7966666846417232 [Eh]
	 SCS Total Energy          =    -433.5975668304574810 [Eh]
	-----------------------------------------------------------

  Dipole Moment: [D]
     X:     1.7310      Y:    -5.6597      Z:     0.8394     Total:     5.9777

*** Psi4 exiting successfully. Buy a developer a beer!
