                               Psi4 1.3.2 release

  ==> Input File <==

--------------------------------------------------------------------------
#psi4
#
memory 32 gb

molecule  {
0 1
  O       -1.4567253     1.8249395    -0.0092513
  N       -1.1640015    -0.4086013     0.0052114
  N        0.7429240     1.0712790     0.0095610
  N        2.8919430     0.2615640    -0.0759850
  C       -0.2733660    -1.4960510    -0.0007800
  C        1.0765330    -1.3300920    -0.0040440
  C       -0.6338910     0.9109410     0.0155220
  C       -2.5617390    -0.6507120     0.0005160
  C        1.5376510     0.0247200    -0.0002060
  H       -0.7522370    -2.4720050    -0.0099570
  H        1.7553550    -2.1750520    -0.0313920
  H       -2.8635010    -1.2105310     0.8892080
  H       -2.8583950    -1.1972750    -0.8980640
  H       -3.0263160     0.3321150     0.0069490
  H        3.5027140    -0.4263080     0.3467730
  H        3.1453740     1.2255370     0.1175850
units angstrom
no_reorient  #important for SAPT in psi4, default
symmetry c1  #important for SAPT in psi4, default
}

set PROPERTIES_ORIGIN ["COM"]
properties('MP2/aug-cc-pvtz', properties = ['dipole'])
--------------------------------------------------------------------------

    Molecular point group: c1
  Charge       = 0
  Multiplicity = 1
  Basis Set: AUG-CC-PVTZ
    Blend: AUG-CC-PVTZ
  Basis Set: (AUG-CC-PVTZ AUX)
    Blend: AUG-CC-PVTZ-JKFIT

    Orbital Energies [Eh]
    ---------------------

    Doubly Occupied:

       1A    -20.500726     2A    -15.621068     3A    -15.595041
       4A    -15.547600     5A    -11.371650     6A    -11.353585
       7A    -11.330061     8A    -11.263017     9A    -11.250841
      10A     -1.382269    11A     -1.293722    12A     -1.264643
      13A     -1.174722    14A     -1.075539    15A     -0.964766
      16A     -0.895771    17A     -0.852049    18A     -0.759228
      19A     -0.722116    20A     -0.690385    21A     -0.676436
      22A     -0.654961    23A     -0.622258    24A     -0.606718
      25A     -0.595393    26A     -0.579927    27A     -0.548597
      28A     -0.521686    29A     -0.468067    30A     -0.442637
      31A     -0.419959    32A     -0.390168    33A     -0.341284

  @DF-RHF Final Energy:  -431.79637075243858

   => Energetics <=

    Nuclear Repulsion Energy =            440.7520526329972199
    One-Electron Energy =               -1461.5430707636687657
    Two-Electron Energy =                 588.9946473782330258
    Total Energy =                       -431.7963707524385200
  Basis Set: (AUG-CC-PVTZ AUX)
    Blend: AUG-CC-PVTZ-RI
    Molecular point group: c1

    Geometry (in Angstrom), charge = 0, multiplicity = 1:

       Center              X                  Y                   Z               Mass
    ------------   -----------------  -----------------  -----------------  -----------------
         O           -1.456214992877     1.779618638015    -0.005663829279    15.994914619570
         N           -1.163491192877    -0.453922161985     0.008798870721    14.003074004430
         N            0.743434307123     1.025958138015     0.013148470721    14.003074004430
         N            2.892453307123     0.216243138015    -0.072397529279    14.003074004430
         C           -0.272855692877    -1.541371861985     0.002807470721    12.000000000000
         C            1.077043307123    -1.375412861985    -0.000456529279    12.000000000000
         C           -0.633380692877     0.865620138015     0.019109470721    12.000000000000
         C           -2.561228692877    -0.696032861985     0.004103470721    12.000000000000
         C            1.538161307123    -0.020600861985     0.003381470721    12.000000000000
         H           -0.751726692877    -2.517325861985    -0.006369529279     1.007825032230
         H            1.755865307123    -2.220372861985    -0.027804529279     1.007825032230
         H           -2.862990692877    -1.255851861985     0.892795470721     1.007825032230
         H           -2.857884692877    -1.242595861985    -0.894476529279     1.007825032230
         H           -3.025805692877     0.286794138015     0.010536470721     1.007825032230
         H            3.503224307123    -0.471628861985     0.350360470721     1.007825032230
         H            3.145884307123     1.180216138015     0.121172470721     1.007825032230

  Basis Set: AUG-CC-PVTZ
    Blend: AUG-CC-PVTZ
  Basis Set: (AUG-CC-PVTZ AUX)
    Blend: AUG-CC-PVTZ-JKFIT
	 Reference Energy          =    -431.7963707524385768 [Eh]
	 Singles Energy            =      -0.0000000000000000 [Eh]
	 Same-Spin Energy          =      -0.4503976330036209 [Eh]
	 Opposite-Spin Energy      =      -1.3724735480188519 [Eh]
	 Correlation Energy        =      -1.8228711810224727 [Eh]
	 Total Energy              =    -433.6192419334610690 [Eh]

	 ================> DF-SCS-MP2 Energies <==================
	-----------------------------------------------------------
	 SCS Same-Spin Scale       =       0.3333333333333333 [-]
	 SCS Opposite-Spin Scale   =       1.2000000000000000 [-]
	 SCS Same-Spin Energy      =      -0.1501325443345403 [Eh]
	 SCS Opposite-Spin Energy  =      -1.6469682576226223 [Eh]
	 SCS Correlation Energy    =      -1.7971008019571626 [Eh]
	 SCS Total Energy          =    -433.5934715543957623 [Eh]
	-----------------------------------------------------------

  Dipole Moment: [D]
     X:     2.0570      Y:    -5.5894      Z:     0.8340     Total:     6.0140

*** Psi4 exiting successfully. Buy a developer a beer!
