                               Psi4 1.3.2 release

  ==> Input File <==

--------------------------------------------------------------------------
#psi4
#
memory 32 gb

molecule  {
0 1
  O       -1.4243350     1.8531120    -0.0084660
  N       -1.1176450    -0.4263010     0.0065070
  N        0.7429240     1.0712790     0.0095610
  N        2.8919430     0.2615640    -0.0759850
  C       -0.2640628    -1.4886431    -0.0006878
  C        1.0765330    -1.3300920    -0.0040440
  C       -0.6338910     0.9109410     0.0155220
  C       -2.5636427    -0.6381019     0.0006241
  C        1.5376510     0.0247200    -0.0002060
  H       -0.7522370    -2.4720050    -0.0099570
  H        1.7553550    -2.1750520    -0.0313920
  H       -2.8635010    -1.2105310     0.8892080
  H       -2.8583950    -1.1972750    -0.8980640
  H       -3.0263160     0.3321150     0.0069490
  H        3.5027140    -0.4263080     0.3467730
  H        3.1453740     1.2255370     0.1175850
units angstrom
no_reorient  #important for SAPT in psi4, default
symmetry c1  #important for SAPT in psi4, default
}

set PROPERTIES_ORIGIN ["COM"]
properties('MP2/aug-cc-pvtz', properties = ['dipole'])
--------------------------------------------------------------------------

    Molecular point group: c1
  Charge       = 0
  Multiplicity = 1
  Basis Set: AUG-CC-PVTZ
    Blend: AUG-CC-PVTZ
  Basis Set: (AUG-CC-PVTZ AUX)
    Blend: AUG-CC-PVTZ-JKFIT

    Orbital Energies [Eh]
    ---------------------

    Doubly Occupied:

       1A    -20.503357     2A    -15.624794     3A    -15.591792
       4A    -15.543557     5A    -11.371711     6A    -11.349462
       7A    -11.326494     8A    -11.270752     9A    -11.245297
      10A     -1.382564    11A     -1.296173    12A     -1.267186
      13A     -1.170750    14A     -1.075181    15A     -0.965532
      16A     -0.897525    17A     -0.854314    18A     -0.759738
      19A     -0.723167    20A     -0.685885    21A     -0.673077
      22A     -0.654302    23A     -0.621877    24A     -0.600961
      25A     -0.592251    26A     -0.578742    27A     -0.563334
      28A     -0.521425    29A     -0.476565    30A     -0.440964
      31A     -0.419309    32A     -0.387819    33A     -0.340123

  @DF-RHF Final Energy:  -431.80109611171486

   => Energetics <=

    Nuclear Repulsion Energy =            441.1273079457988047
    One-Electron Energy =               -1462.3048468962094830
    Two-Electron Energy =                 589.3764428386958798
    Total Energy =                       -431.8010961117148554
  Basis Set: (AUG-CC-PVTZ AUX)
    Blend: AUG-CC-PVTZ-RI
    Molecular point group: c1

    Geometry (in Angstrom), charge = 0, multiplicity = 1:

       Center              X                  Y                   Z               Mass
    ------------   -----------------  -----------------  -----------------  -----------------
         O           -1.433868020173     1.804248947246    -0.005143258826    15.994914619570
         N           -1.127178020173    -0.475164052754     0.009829741174    14.003074004430
         N            0.733390979827     1.022415947246     0.012883741174    14.003074004430
         N            2.882409979827     0.212700947246    -0.072662258826    14.003074004430
         C           -0.273595820173    -1.537506152754     0.002634941174    12.000000000000
         C            1.066999979827    -1.378955052754    -0.000721258826    12.000000000000
         C           -0.643424020173     0.862077947246     0.018844741174    12.000000000000
         C           -2.573175720173    -0.686964952754     0.003946841174    12.000000000000
         C            1.528117979827    -0.024143052754     0.003116741174    12.000000000000
         H           -0.761770020173    -2.520868052754    -0.006634258826     1.007825032230
         H            1.745821979827    -2.223915052754    -0.028069258826     1.007825032230
         H           -2.873034020173    -1.259394052754     0.892530741174     1.007825032230
         H           -2.867928020173    -1.246138052754    -0.894741258826     1.007825032230
         H           -3.035849020173     0.283251947246     0.010271741174     1.007825032230
         H            3.493180979827    -0.475171052754     0.350095741174     1.007825032230
         H            3.135840979827     1.176673947246     0.120907741174     1.007825032230

  Basis Set: AUG-CC-PVTZ
    Blend: AUG-CC-PVTZ
  Basis Set: (AUG-CC-PVTZ AUX)
    Blend: AUG-CC-PVTZ-JKFIT
	 Reference Energy          =    -431.8010961117148554 [Eh]
	 Singles Energy            =      -0.0000000000000000 [Eh]
	 Same-Spin Energy          =      -0.4502412901702749 [Eh]
	 Opposite-Spin Energy      =      -1.3719211541254599 [Eh]
	 Correlation Energy        =      -1.8221624442957347 [Eh]
	 Total Energy              =    -433.6232585560105690 [Eh]

	 ================> DF-SCS-MP2 Energies <==================
	-----------------------------------------------------------
	 SCS Same-Spin Scale       =       0.3333333333333333 [-]
	 SCS Opposite-Spin Scale   =       1.2000000000000000 [-]
	 SCS Same-Spin Energy      =      -0.1500804300567583 [Eh]
	 SCS Opposite-Spin Energy  =      -1.6463053849505518 [Eh]
	 SCS Correlation Energy    =      -1.7963858150073100 [Eh]
	 SCS Total Energy          =    -433.5974819267221392 [Eh]
	-----------------------------------------------------------

  Dipole Moment: [D]
     X:     1.7205      Y:    -5.6266      Z:     0.8325     Total:     5.9424

*** Psi4 exiting successfully. Buy a developer a beer!
