                               Psi4 1.4a3.dev225

  ==> Input File <==

--------------------------------------------------------------------------
#psi4
#
memory 32 gb

molecule  {
0 1
  O       -1.4602810    -1.8042760    -0.0008590
  N       -1.1067000     0.4494610     0.0014260
  N        0.7338450    -1.0777760     0.0056990
  N        2.8872480    -0.2944040    -0.0665390
  C       -0.2576190     1.5082170    -0.0002850
  C        1.0914800     1.3228940    -0.0047970
  C       -0.6316600    -0.8954310    -0.0014820
  C       -2.5563510     0.6193970     0.0049040
  C        1.5404980    -0.0347530    -0.0000590
  H       -0.7231805     2.5122332    -0.0022464
  H        1.7746080     2.1637920    -0.0246520
  H       -2.7835150     1.6863950     0.0041520
  H       -2.9802500     0.1433220     0.8903410
  H       -2.9840040     0.1411790    -0.8774920
  H        3.5206970     0.4000120     0.3068300
  H        3.1306380    -1.2574880     0.1361150
units angstrom
no_reorient  #important for SAPT in psi4, default
symmetry c1  #important for SAPT in psi4, default
}

set PROPERTIES_ORIGIN ["COM"]
properties('MP2/aug-cc-pvtz', properties = ['dipole'])
--------------------------------------------------------------------------

    Molecular point group: c1
  Charge       = 0
  Multiplicity = 1
  Basis Set: AUG-CC-PVTZ
    Blend: AUG-CC-PVTZ
  Basis Set: (AUG-CC-PVTZ AUX)
    Blend: AUG-CC-PVTZ-JKFIT

    Orbital Energies [Eh]
    ---------------------

    Doubly Occupied:

       1A    -20.503048     2A    -15.626336     3A    -15.591649
       4A    -15.542541     5A    -11.369337     6A    -11.349627
       7A    -11.330358     8A    -11.273538     9A    -11.243508
      10A     -1.383226    11A     -1.295496    12A     -1.267841
      13A     -1.171661    14A     -1.072153    15A     -0.965160
      16A     -0.896970    17A     -0.855323    18A     -0.759562
      19A     -0.722795    20A     -0.686263    21A     -0.673086
      22A     -0.655311    23A     -0.622096    24A     -0.600695
      25A     -0.589897    26A     -0.576443    27A     -0.566173
      28A     -0.517088    29A     -0.480313    30A     -0.442673
      31A     -0.418362    32A     -0.385126    33A     -0.337595

  @DF-RHF Final Energy:  -431.80261079720651

   => Energetics <=

    Nuclear Repulsion Energy =            441.4777385363908024
    One-Electron Energy =               -1463.0181986456886989
    Two-Electron Energy =                 589.7378493120913845
    Total Energy =                       -431.8026107972065120
  Basis Set: (AUG-CC-PVTZ AUX)
    Blend: AUG-CC-PVTZ-RI
    Molecular point group: c1

    Geometry (in Angstrom), charge = 0, multiplicity = 1:

       Center              X                  Y                   Z               Mass
    ------------   -----------------  -----------------  -----------------  -----------------
         O           -1.468558327979    -1.758685428865     0.002578660321    15.994914619570
         N           -1.114977327979     0.495051571135     0.004863660321    14.003074004430
         N            0.725567672021    -1.032185428865     0.009136660321    14.003074004430
         N            2.878970672021    -0.248813428865    -0.063101339679    14.003074004430
         C           -0.265896327979     1.553807571135     0.003152660321    12.000000000000
         C            1.083202672021     1.368484571135    -0.001359339679    12.000000000000
         C           -0.639937327979    -0.849840428865     0.001955660321    12.000000000000
         C           -2.564628327979     0.664987571135     0.008341660321    12.000000000000
         C            1.532220672021     0.010837571135     0.003378660321    12.000000000000
         H           -0.731457827979     2.557823771135     0.001191260321     1.007825032230
         H            1.766330672021     2.209382571135    -0.021214339679     1.007825032230
         H           -2.791792327979     1.731985571135     0.007589660321     1.007825032230
         H           -2.988527327979     0.188912571135     0.893778660321     1.007825032230
         H           -2.992281327979     0.186769571135    -0.874054339679     1.007825032230
         H            3.512419672021     0.445602571135     0.310267660321     1.007825032230
         H            3.122360672021    -1.211897428865     0.139552660321     1.007825032230

  Basis Set: AUG-CC-PVTZ
    Blend: AUG-CC-PVTZ
  Basis Set: (AUG-CC-PVTZ AUX)
    Blend: AUG-CC-PVTZ-JKFIT
	 Reference Energy          =    -431.8026107972065120 [Eh]
	 Singles Energy            =      -0.0000000000000000 [Eh]
	 Same-Spin Energy          =      -0.4504743239639674 [Eh]
	 Opposite-Spin Energy      =      -1.3720663346464383 [Eh]
	 Correlation Energy        =      -1.8225406586104058 [Eh]
	 Total Energy              =    -433.6251514558169333 [Eh]

	 ================> DF-SCS-MP2 Energies <==================
	-----------------------------------------------------------
	 SCS Same-Spin Scale       =       0.3333333333333333 [-]
	 SCS Opposite-Spin Scale   =       1.2000000000000000 [-]
	 SCS Same-Spin Energy      =      -0.1501581079879891 [Eh]
	 SCS Opposite-Spin Energy  =      -1.6464796015757259 [Eh]
	 SCS Correlation Energy    =      -1.7966377095637149 [Eh]
	 SCS Total Energy          =    -433.5992485067702091 [Eh]
	-----------------------------------------------------------

  Dipole Moment: [D]
     X:     1.8050      Y:     5.6042      Z:     0.7691     Total:     5.9378

*** Psi4 exiting successfully. Buy a developer a beer!
