                               Psi4 1.3.2 release

  ==> Input File <==

--------------------------------------------------------------------------
#psi4
#
memory 32 gb

molecule  {
0 1
  O       -1.4243350     1.8531120    -0.0084660
  N       -1.1148294    -0.4514006     0.0508266
  N        0.7429240     1.0712790     0.0095610
  N        2.8919430     0.2615640    -0.0759850
  C       -0.2733660    -1.4960510    -0.0007800
  C        1.0765330    -1.3300920    -0.0040440
  C       -0.6338910     0.9109410     0.0155220
  C       -2.5617390    -0.6507120     0.0005160
  C        1.5376510     0.0247200    -0.0002060
  H       -0.7522370    -2.4720050    -0.0099570
  H        1.7553550    -2.1750520    -0.0313920
  H       -2.8270274    -1.2111994     0.9003532
  H       -2.8583950    -1.1972750    -0.8980640
  H       -3.0263160     0.3321150     0.0069490
  H        3.5027140    -0.4263080     0.3467730
  H        3.1453740     1.2255370     0.1175850
units angstrom
no_reorient  #important for SAPT in psi4, default
symmetry c1  #important for SAPT in psi4, default
}

set PROPERTIES_ORIGIN ["COM"]
properties('MP2/aug-cc-pvtz', properties = ['dipole'])
--------------------------------------------------------------------------

    Molecular point group: c1
  Charge       = 0
  Multiplicity = 1
  Basis Set: AUG-CC-PVTZ
    Blend: AUG-CC-PVTZ
  Basis Set: (AUG-CC-PVTZ AUX)
    Blend: AUG-CC-PVTZ-JKFIT

    Orbital Energies [Eh]
    ---------------------

    Doubly Occupied:

       1A    -20.507664     2A    -15.625596     3A    -15.590695
       4A    -15.543257     5A    -11.375326     6A    -11.348464
       7A    -11.325196     8A    -11.271330     9A    -11.242753
      10A     -1.382744    11A     -1.298485    12A     -1.269224
      13A     -1.170689    14A     -1.071385    15A     -0.965191
      16A     -0.896860    17A     -0.854648    18A     -0.758388
      19A     -0.723507    20A     -0.685150    21A     -0.672708
      22A     -0.656546    23A     -0.622667    24A     -0.599608
      25A     -0.593091    26A     -0.579183    27A     -0.563467
      28A     -0.521254    29A     -0.480247    30A     -0.442392
      31A     -0.419456    32A     -0.387469    33A     -0.336888

  @DF-RHF Final Energy:  -431.79941330453931

   => Energetics <=

    Nuclear Repulsion Energy =            440.8360426212996686
    One-Electron Energy =               -1461.7078614890515382
    Two-Electron Energy =                 589.0724055632125555
    Total Energy =                       -431.7994133045393710
  Basis Set: (AUG-CC-PVTZ AUX)
    Blend: AUG-CC-PVTZ-RI
    Molecular point group: c1

    Geometry (in Angstrom), charge = 0, multiplicity = 1:

       Center              X                  Y                   Z               Mass
    ------------   -----------------  -----------------  -----------------  -----------------
         O           -1.433767204186     1.808985604376    -0.010176402333    15.994914619570
         N           -1.124261604186    -0.495526995624     0.049116197667    14.003074004430
         N            0.733491795814     1.027152604376     0.007850597667    14.003074004430
         N            2.882510795814     0.217437604376    -0.077695402333    14.003074004430
         C           -0.282798204186    -1.540177395624    -0.002490402333    12.000000000000
         C            1.067100795814    -1.374218395624    -0.005754402333    12.000000000000
         C           -0.643323204186     0.866814604376     0.013811597667    12.000000000000
         C           -2.571171204186    -0.694838395624    -0.001194402333    12.000000000000
         C            1.528218795814    -0.019406395624    -0.001916402333    12.000000000000
         H           -0.761669204186    -2.516131395624    -0.011667402333     1.007825032230
         H            1.745922795814    -2.219178395624    -0.033102402333     1.007825032230
         H           -2.836459604186    -1.255325795624     0.898642797667     1.007825032230
         H           -2.867827204186    -1.241401395624    -0.899774402333     1.007825032230
         H           -3.035748204186     0.287988604376     0.005238597667     1.007825032230
         H            3.493281795814    -0.470434395624     0.345062597667     1.007825032230
         H            3.135941795814     1.181410604376     0.115874597667     1.007825032230

  Basis Set: AUG-CC-PVTZ
    Blend: AUG-CC-PVTZ
  Basis Set: (AUG-CC-PVTZ AUX)
    Blend: AUG-CC-PVTZ-JKFIT
	 Reference Energy          =    -431.7994133045393141 [Eh]
	 Singles Energy            =      -0.0000000000000000 [Eh]
	 Same-Spin Energy          =      -0.4506631791842903 [Eh]
	 Opposite-Spin Energy      =      -1.3724459704542364 [Eh]
	 Correlation Energy        =      -1.8231091496385268 [Eh]
	 Total Energy              =    -433.6225224541778402 [Eh]

	 ================> DF-SCS-MP2 Energies <==================
	-----------------------------------------------------------
	 SCS Same-Spin Scale       =       0.3333333333333333 [-]
	 SCS Opposite-Spin Scale   =       1.2000000000000000 [-]
	 SCS Same-Spin Energy      =      -0.1502210597280968 [Eh]
	 SCS Opposite-Spin Energy  =      -1.6469351645450836 [Eh]
	 SCS Correlation Energy    =      -1.7971562242731804 [Eh]
	 SCS Total Energy          =    -433.5965695288124948 [Eh]
	-----------------------------------------------------------

  Dipole Moment: [D]
     X:     1.6035      Y:    -5.5176      Z:     0.8052     Total:     5.8020

*** Psi4 exiting successfully. Buy a developer a beer!
