                               Psi4 1.3.2 release

  ==> Input File <==

--------------------------------------------------------------------------
#psi4
#
memory 32 gb

molecule  {
0 1
  O       -1.4243350     1.8531120    -0.0084660
  N       -1.1176450    -0.4263010     0.0065070
  N        0.7987867     1.1114393     0.0094254
  N        2.8919430     0.2615640    -0.0759850
  C       -0.2733660    -1.4960510    -0.0007800
  C        1.1480692    -1.3523664    -0.0045747
  C       -0.6338910     0.9109410     0.0155220
  C       -2.5617390    -0.6507120     0.0005160
  C        1.5376510     0.0247200    -0.0002060
  H       -0.7522370    -2.4720050    -0.0099570
  H        1.7553550    -2.1750520    -0.0313920
  H       -2.8635010    -1.2105310     0.8892080
  H       -2.8583950    -1.1972750    -0.8980640
  H       -3.0263160     0.3321150     0.0069490
  H        3.5027140    -0.4263080     0.3467730
  H        3.1453740     1.2255370     0.1175850
units angstrom
no_reorient  #important for SAPT in psi4, default
symmetry c1  #important for SAPT in psi4, default
}

set PROPERTIES_ORIGIN ["COM"]
properties('MP2/aug-cc-pvtz', properties = ['dipole'])
--------------------------------------------------------------------------

    Molecular point group: c1
  Charge       = 0
  Multiplicity = 1
  Basis Set: AUG-CC-PVTZ
    Blend: AUG-CC-PVTZ
  Basis Set: (AUG-CC-PVTZ AUX)
    Blend: AUG-CC-PVTZ-JKFIT

    Orbital Energies [Eh]
    ---------------------

    Doubly Occupied:

       1A    -20.511969     2A    -15.635372     3A    -15.581230
       4A    -15.549816     5A    -11.379945     6A    -11.342928
       7A    -11.340483     8A    -11.275913     9A    -11.248030
      10A     -1.384548    11A     -1.295716    12A     -1.268494
      13A     -1.157352    14A     -1.063059    15A     -0.968458
      16A     -0.906284    17A     -0.840400    18A     -0.751787
      19A     -0.721363    20A     -0.692171    21A     -0.670906
      22A     -0.657664    23A     -0.632105    24A     -0.596117
      25A     -0.588719    26A     -0.577209    27A     -0.561036
      28A     -0.522003    29A     -0.473917    30A     -0.453586
      31A     -0.420978    32A     -0.383904    33A     -0.334808

  @DF-RHF Final Energy:  -431.78397194580111

   => Energetics <=

    Nuclear Repulsion Energy =            438.3786697113275750
    One-Electron Energy =               -1456.7487455444825173
    Two-Electron Energy =                 586.5861038873538291
    Total Energy =                       -431.7839719458011132
  Basis Set: (AUG-CC-PVTZ AUX)
    Blend: AUG-CC-PVTZ-RI
    Molecular point group: c1

    Geometry (in Angstrom), charge = 0, multiplicity = 1:

       Center              X                  Y                   Z               Mass
    ------------   -----------------  -----------------  -----------------  -----------------
         O           -1.446277291125     1.803810283162    -0.005057932505    15.994914619570
         N           -1.139587291125    -0.475602716838     0.009915067495    14.003074004430
         N            0.776844408875     1.062137583162     0.012833467495    14.003074004430
         N            2.870000708875     0.212262283162    -0.072576932505    14.003074004430
         C           -0.295308291125    -1.545352716838     0.002628067495    12.000000000000
         C            1.126126908875    -1.401668116838    -0.001166632505    12.000000000000
         C           -0.655833291125     0.861639283162     0.018930067495    12.000000000000
         C           -2.583681291125    -0.700013716838     0.003924067495    12.000000000000
         C            1.515708708875    -0.024581716838     0.003202067495    12.000000000000
         H           -0.774179291125    -2.521306716838    -0.006548932505     1.007825032230
         H            1.733412708875    -2.224353716838    -0.027983932505     1.007825032230
         H           -2.885443291125    -1.259832716838     0.892616067495     1.007825032230
         H           -2.880337291125    -1.246576716838    -0.894655932505     1.007825032230
         H           -3.048258291125     0.282813283162     0.010357067495     1.007825032230
         H            3.480771708875    -0.475609716838     0.350181067495     1.007825032230
         H            3.123431708875     1.176235283162     0.120993067495     1.007825032230

  Basis Set: AUG-CC-PVTZ
    Blend: AUG-CC-PVTZ
  Basis Set: (AUG-CC-PVTZ AUX)
    Blend: AUG-CC-PVTZ-JKFIT
	 Reference Energy          =    -431.7839719458011132 [Eh]
	 Singles Energy            =      -0.0000000000000000 [Eh]
	 Same-Spin Energy          =      -0.4509860568045646 [Eh]
	 Opposite-Spin Energy      =      -1.3750253700779824 [Eh]
	 Correlation Energy        =      -1.8260114268825469 [Eh]
	 Total Energy              =    -433.6099833726836437 [Eh]

	 ================> DF-SCS-MP2 Energies <==================
	-----------------------------------------------------------
	 SCS Same-Spin Scale       =       0.3333333333333333 [-]
	 SCS Opposite-Spin Scale   =       1.2000000000000000 [-]
	 SCS Same-Spin Energy      =      -0.1503286856015215 [Eh]
	 SCS Opposite-Spin Energy  =      -1.6500304440935789 [Eh]
	 SCS Correlation Energy    =      -1.8003591296951005 [Eh]
	 SCS Total Energy          =    -433.5843310754962090 [Eh]
	-----------------------------------------------------------

  Dipole Moment: [D]
     X:     1.2119      Y:    -5.6182      Z:     0.8285     Total:     5.8068

*** Psi4 exiting successfully. Buy a developer a beer!
