                               Psi4 1.3.2 release

  ==> Input File <==

--------------------------------------------------------------------------
#psi4
#
memory 32 gb

molecule  {
0 1
  O       -1.4243350     1.8531120    -0.0084660
  N       -1.1176450    -0.4263010     0.0065070
  N        0.7429240     1.0712790     0.0095610
  N        2.8919430     0.2615640    -0.0759850
  C       -0.2733660    -1.4960510    -0.0007800
  C        1.0765330    -1.3300920    -0.0040440
  C       -0.6338910     0.9109410     0.0155220
  C       -2.5617390    -0.6507120     0.0005160
  C        1.5376510     0.0247200    -0.0002060
  H       -0.7522370    -2.4720050    -0.0099570
  H        1.7553550    -2.1750520    -0.0313920
  H       -2.8635010    -1.2105310     0.8892080
  H       -2.8583950    -1.1972750    -0.8980640
  H       -3.0263160     0.3321150     0.0069490
  H        3.5027140    -0.4263080     0.3467730
  H        3.1453740     1.2255370     0.1175850
units angstrom
no_reorient  #important for SAPT in psi4, default
symmetry c1  #important for SAPT in psi4, default
}

set PROPERTIES_ORIGIN ["COM"]
properties('MP2/aug-cc-pvtz', properties = ['dipole'])
--------------------------------------------------------------------------

    Molecular point group: c1
  Charge       = 0
  Multiplicity = 1
  Basis Set: AUG-CC-PVTZ
    Blend: AUG-CC-PVTZ
  Basis Set: (AUG-CC-PVTZ AUX)
    Blend: AUG-CC-PVTZ-JKFIT

    Orbital Energies [Eh]
    ---------------------

    Doubly Occupied:

       1A    -20.503572     2A    -15.625387     3A    -15.591519
       4A    -15.543569     5A    -11.372241     6A    -11.349258
       7A    -11.327215     8A    -11.270466     9A    -11.245975
      10A     -1.382580    11A     -1.296001    12A     -1.267440
      13A     -1.170683    14A     -1.072698    15A     -0.965277
      16A     -0.899376    17A     -0.853698    18A     -0.758985
      19A     -0.723786    20A     -0.685734    21A     -0.674136
      22A     -0.655502    23A     -0.622006    24A     -0.601737
      25A     -0.592371    26A     -0.579797    27A     -0.559102
      28A     -0.521883    29A     -0.476279    30A     -0.440871
      31A     -0.419754    32A     -0.387815    33A     -0.338995

  @DF-RHF Final Energy:  -431.80102399278701

   => Energetics <=

    Nuclear Repulsion Energy =            440.9180827804802902
    One-Electron Energy =               -1461.8867961934486175
    Two-Electron Energy =                 589.1676894201813184
    Total Energy =                       -431.8010239927870089
  Basis Set: (AUG-CC-PVTZ AUX)
    Blend: AUG-CC-PVTZ-RI
    Molecular point group: c1

    Geometry (in Angstrom), charge = 0, multiplicity = 1:

       Center              X                  Y                   Z               Mass
    ------------   -----------------  -----------------  -----------------  -----------------
         O           -1.433158002801     1.806169769972    -0.005124039084    15.994914619570
         N           -1.126468002801    -0.473243230028     0.009848960916    14.003074004430
         N            0.734100997199     1.024336769972     0.012902960916    14.003074004430
         N            2.883119997199     0.214621769972    -0.072643039084    14.003074004430
         C           -0.282189002801    -1.542993230028     0.002561960916    12.000000000000
         C            1.067709997199    -1.377034230028    -0.000702039084    12.000000000000
         C           -0.642714002801     0.863998769972     0.018863960916    12.000000000000
         C           -2.570562002801    -0.697654230028     0.003857960916    12.000000000000
         C            1.528827997199    -0.022222230028     0.003135960916    12.000000000000
         H           -0.761060002801    -2.518947230028    -0.006615039084     1.007825032230
         H            1.746531997199    -2.221994230028    -0.028050039084     1.007825032230
         H           -2.872324002801    -1.257473230028     0.892549960916     1.007825032230
         H           -2.867218002801    -1.244217230028    -0.894722039084     1.007825032230
         H           -3.035139002801     0.285172769972     0.010290960916     1.007825032230
         H            3.493890997199    -0.473250230028     0.350114960916     1.007825032230
         H            3.136550997199     1.178594769972     0.120926960916     1.007825032230

  Basis Set: AUG-CC-PVTZ
    Blend: AUG-CC-PVTZ
  Basis Set: (AUG-CC-PVTZ AUX)
    Blend: AUG-CC-PVTZ-JKFIT
	 Reference Energy          =    -431.8010239927870089 [Eh]
	 Singles Energy            =      -0.0000000000000000 [Eh]
	 Same-Spin Energy          =      -0.4503851970491660 [Eh]
	 Opposite-Spin Energy      =      -1.3721629698092308 [Eh]
	 Correlation Energy        =      -1.8225481668583967 [Eh]
	 Total Energy              =    -433.6235721596453914 [Eh]

	 ================> DF-SCS-MP2 Energies <==================
	-----------------------------------------------------------
	 SCS Same-Spin Scale       =       0.3333333333333333 [-]
	 SCS Opposite-Spin Scale   =       1.2000000000000000 [-]
	 SCS Same-Spin Energy      =      -0.1501283990163886 [Eh]
	 SCS Opposite-Spin Energy  =      -1.6465955637710770 [Eh]
	 SCS Correlation Energy    =      -1.7967239627874656 [Eh]
	 SCS Total Energy          =    -433.5977479555744480 [Eh]
	-----------------------------------------------------------

  Dipole Moment: [D]
     X:     1.7031      Y:    -5.6329      Z:     0.8324     Total:     5.9434

*** Psi4 exiting successfully. Buy a developer a beer!
