                               Psi4 1.3.2 release

  ==> Input File <==

--------------------------------------------------------------------------
#psi4
#
memory 32 gb

molecule  {
0 1
  O       -1.4243350     1.8531120    -0.0084660
  N       -1.1176450    -0.4263010     0.0065070
  N        0.7429240     1.0712790     0.0095610
  N        2.8919430     0.2615640    -0.0759850
  C       -0.2733660    -1.4960510    -0.0007800
  C        1.0765330    -1.3300920    -0.0040440
  C       -0.6338910     0.9109410     0.0155220
  C       -2.6605522    -0.6660675     0.0001061
  C        1.5376510     0.0247200    -0.0002060
  H       -0.7522370    -2.4720050    -0.0099570
  H        1.7553550    -2.1750520    -0.0313920
  H       -2.8635010    -1.2105310     0.8892080
  H       -2.8583950    -1.1972750    -0.8980640
  H       -3.0263160     0.3321150     0.0069490
  H        3.5027140    -0.4263080     0.3467730
  H        3.1453740     1.2255370     0.1175850
units angstrom
no_reorient  #important for SAPT in psi4, default
symmetry c1  #important for SAPT in psi4, default
}

set PROPERTIES_ORIGIN ["COM"]
properties('MP2/aug-cc-pvtz', properties = ['dipole'])
--------------------------------------------------------------------------

    Molecular point group: c1
  Charge       = 0
  Multiplicity = 1
  Basis Set: AUG-CC-PVTZ
    Blend: AUG-CC-PVTZ
  Basis Set: (AUG-CC-PVTZ AUX)
    Blend: AUG-CC-PVTZ-JKFIT

    Orbital Energies [Eh]
    ---------------------

    Doubly Occupied:

       1A    -20.500865     2A    -15.622014     3A    -15.589092
       4A    -15.540895     5A    -11.369296     6A    -11.346346
       7A    -11.324486     8A    -11.275630     9A    -11.242257
      10A     -1.376986    11A     -1.290898    12A     -1.256507
      13A     -1.165833    14A     -1.066105    15A     -0.970448
      16A     -0.894166    17A     -0.852695    18A     -0.754258
      19A     -0.720052    20A     -0.676515    21A     -0.667060
      22A     -0.655238    23A     -0.618504    24A     -0.597886
      25A     -0.595210    26A     -0.589406    27A     -0.560138
      28A     -0.523228    29A     -0.477211    30A     -0.439216
      31A     -0.415434    32A     -0.386039    33A     -0.336155

  @DF-RHF Final Energy:  -431.79344793636017

   => Energetics <=

    Nuclear Repulsion Energy =            438.9483900149764395
    One-Electron Energy =               -1458.0915355178165100
    Two-Electron Energy =                 587.3496975664799038
    Total Energy =                       -431.7934479363601668
  Basis Set: (AUG-CC-PVTZ AUX)
    Blend: AUG-CC-PVTZ-RI
    Molecular point group: c1

    Geometry (in Angstrom), charge = 0, multiplicity = 1:

       Center              X                  Y                   Z               Mass
    ------------   -----------------  -----------------  -----------------  -----------------
         O           -1.423676404230     1.807643203550    -0.005084707221    15.994914619570
         N           -1.116986404230    -0.471769796450     0.009888292779    14.003074004430
         N            0.743582595770     1.025810203550     0.012942292779    14.003074004430
         N            2.892601595770     0.216095203550    -0.072603707221    14.003074004430
         C           -0.272707404230    -1.541519796450     0.002601292779    12.000000000000
         C            1.077191595770    -1.375560796450    -0.000662707221    12.000000000000
         C           -0.633232404230     0.865472203550     0.018903292779    12.000000000000
         C           -2.659893604230    -0.711536296450     0.003487392779    12.000000000000
         C            1.538309595770    -0.020748796450     0.003175292779    12.000000000000
         H           -0.751578404230    -2.517473796450    -0.006575707221     1.007825032230
         H            1.756013595770    -2.220520796450    -0.028010707221     1.007825032230
         H           -2.862842404230    -1.255999796450     0.892589292779     1.007825032230
         H           -2.857736404230    -1.242743796450    -0.894682707221     1.007825032230
         H           -3.025657404230     0.286646203550     0.010330292779     1.007825032230
         H            3.503372595770    -0.471776796450     0.350154292779     1.007825032230
         H            3.146032595770     1.180068203550     0.120966292779     1.007825032230

  Basis Set: AUG-CC-PVTZ
    Blend: AUG-CC-PVTZ
  Basis Set: (AUG-CC-PVTZ AUX)
    Blend: AUG-CC-PVTZ-JKFIT
	 Reference Energy          =    -431.7934479363601668 [Eh]
	 Singles Energy            =      -0.0000000000000000 [Eh]
	 Same-Spin Energy          =      -0.4501382510978361 [Eh]
	 Opposite-Spin Energy      =      -1.3725097425176405 [Eh]
	 Correlation Energy        =      -1.8226479936154765 [Eh]
	 Total Energy              =    -433.6160959299756428 [Eh]

	 ================> DF-SCS-MP2 Energies <==================
	-----------------------------------------------------------
	 SCS Same-Spin Scale       =       0.3333333333333333 [-]
	 SCS Opposite-Spin Scale   =       1.2000000000000000 [-]
	 SCS Same-Spin Energy      =      -0.1500460836992787 [Eh]
	 SCS Opposite-Spin Energy  =      -1.6470116910211685 [Eh]
	 SCS Correlation Energy    =      -1.7970577747204473 [Eh]
	 SCS Total Energy          =    -433.5905057110805956 [Eh]
	-----------------------------------------------------------

  Dipole Moment: [D]
     X:     1.3968      Y:    -5.7266      Z:     0.8320     Total:     5.9529

*** Psi4 exiting successfully. Buy a developer a beer!
