                               Psi4 1.3.2 release

  ==> Input File <==

--------------------------------------------------------------------------
#psi4
#
memory 32 gb

molecule  {
0 1
  O       -1.4725469     1.8104335    -0.0096326
  N       -1.1869410    -0.3991472     0.0045682
  N        0.7429240     1.0712790     0.0095610
  N        2.8919430     0.2615640    -0.0759850
  C       -0.2733660    -1.4960510    -0.0007800
  C        1.0765330    -1.3300920    -0.0040440
  C       -0.6338910     0.9109410     0.0155220
  C       -2.5617390    -0.6507120     0.0005160
  C        1.5376510     0.0247200    -0.0002060
  H       -0.7522370    -2.4720050    -0.0099570
  H        1.7553550    -2.1750520    -0.0313920
  H       -2.8635010    -1.2105310     0.8892080
  H       -2.8583950    -1.1972750    -0.8980640
  H       -3.0263160     0.3321150     0.0069490
  H        3.5027140    -0.4263080     0.3467730
  H        3.1453740     1.2255370     0.1175850
units angstrom
no_reorient  #important for SAPT in psi4, default
symmetry c1  #important for SAPT in psi4, default
}

set PROPERTIES_ORIGIN ["COM"]
properties('MP2/aug-cc-pvtz', properties = ['dipole'])
--------------------------------------------------------------------------

    Molecular point group: c1
  Charge       = 0
  Multiplicity = 1
  Basis Set: AUG-CC-PVTZ
    Blend: AUG-CC-PVTZ
  Basis Set: (AUG-CC-PVTZ AUX)
    Blend: AUG-CC-PVTZ-JKFIT

    Orbital Energies [Eh]
    ---------------------

    Doubly Occupied:

       1A    -20.499314     2A    -15.618845     3A    -15.596776
       4A    -15.549609     5A    -11.371572     6A    -11.355710
       7A    -11.331254     8A    -11.259335     9A    -11.253142
      10A     -1.382484    11A     -1.293689    12A     -1.262766
      13A     -1.176848    14A     -1.076902    15A     -0.964545
      16A     -0.894403    17A     -0.850930    18A     -0.759243
      19A     -0.721555    20A     -0.692821    21A     -0.677397
      22A     -0.654990    23A     -0.622395    24A     -0.609674
      25A     -0.596252    26A     -0.580247    27A     -0.542646
      28A     -0.521550    29A     -0.464124    30A     -0.443729
      31A     -0.419459    32A     -0.391214    33A     -0.342173

  @DF-RHF Final Energy:  -431.79081888890244

   => Energetics <=

    Nuclear Repulsion Energy =            440.7068436882988181
    One-Electron Energy =               -1461.4401374817853139
    Two-Electron Energy =                 588.9424749045840599
    Total Energy =                       -431.7908188889024359
  Basis Set: (AUG-CC-PVTZ AUX)
    Blend: AUG-CC-PVTZ-RI
    Molecular point group: c1

    Geometry (in Angstrom), charge = 0, multiplicity = 1:

       Center              X                  Y                   Z               Mass
    ------------   -----------------  -----------------  -----------------  -----------------
         O           -1.467444447873     1.765909348685    -0.005924341101    15.994914619570
         N           -1.181838547873    -0.443671351315     0.008276458899    14.003074004430
         N            0.748026452127     1.026754848685     0.013269258899    14.003074004430
         N            2.897045452127     0.217039848685    -0.072276741101    14.003074004430
         C           -0.268263547873    -1.540575151315     0.002928258899    12.000000000000
         C            1.081635452127    -1.374616151315    -0.000335741101    12.000000000000
         C           -0.628788547873     0.866416848685     0.019230258899    12.000000000000
         C           -2.556636547873    -0.695236151315     0.004224258899    12.000000000000
         C            1.542753452127    -0.019804151315     0.003502258899    12.000000000000
         H           -0.747134547873    -2.516529151315    -0.006248741101     1.007825032230
         H            1.760457452127    -2.219576151315    -0.027683741101     1.007825032230
         H           -2.858398547873    -1.255055151315     0.892916258899     1.007825032230
         H           -2.853292547873    -1.241799151315    -0.894355741101     1.007825032230
         H           -3.021213547873     0.287590848685     0.010657258899     1.007825032230
         H            3.507816452127    -0.470832151315     0.350481258899     1.007825032230
         H            3.150476452127     1.181012848685     0.121293258899     1.007825032230

  Basis Set: AUG-CC-PVTZ
    Blend: AUG-CC-PVTZ
  Basis Set: (AUG-CC-PVTZ AUX)
    Blend: AUG-CC-PVTZ-JKFIT
	 Reference Energy          =    -431.7908188889024359 [Eh]
	 Singles Energy            =      -0.0000000000000000 [Eh]
	 Same-Spin Energy          =      -0.4505190924606327 [Eh]
	 Opposite-Spin Energy      =      -1.3728548372362215 [Eh]
	 Correlation Energy        =      -1.8233739296968541 [Eh]
	 Total Energy              =    -433.6141928185992924 [Eh]

	 ================> DF-SCS-MP2 Energies <==================
	-----------------------------------------------------------
	 SCS Same-Spin Scale       =       0.3333333333333333 [-]
	 SCS Opposite-Spin Scale   =       1.2000000000000000 [-]
	 SCS Same-Spin Energy      =      -0.1501730308202109 [Eh]
	 SCS Opposite-Spin Energy  =      -1.6474258046834658 [Eh]
	 SCS Correlation Energy    =      -1.7975988355036767 [Eh]
	 SCS Total Energy          =    -433.5884177244060993 [Eh]
	-----------------------------------------------------------

  Dipole Moment: [D]
     X:     2.2331      Y:    -5.5643      Z:     0.8348     Total:     6.0535

*** Psi4 exiting successfully. Buy a developer a beer!
