                               Psi4 1.3.2 release

  ==> Input File <==

--------------------------------------------------------------------------
#psi4
#
memory 32 gb

molecule  {
0 1
  O       -1.4243350     1.8531120    -0.0084660
  N       -1.1176450    -0.4263010     0.0065070
  N        0.7429240     1.0712790     0.0095610
  N        2.8919430     0.2615640    -0.0759850
  C       -0.2733660    -1.4960510    -0.0007800
  C        1.0765330    -1.3300920    -0.0040440
  C       -0.6403936     0.9832172     0.0159558
  C       -2.5617390    -0.6507120     0.0005160
  C        1.5913358     0.0677485    -0.0002342
  H       -0.7522370    -2.4720050    -0.0099570
  H        1.7553550    -2.1750520    -0.0313920
  H       -2.8635010    -1.2105310     0.8892080
  H       -2.8583950    -1.1972750    -0.8980640
  H       -3.0263160     0.3321150     0.0069490
  H        3.5027140    -0.4263080     0.3467730
  H        3.1453740     1.2255370     0.1175850
units angstrom
no_reorient  #important for SAPT in psi4, default
symmetry c1  #important for SAPT in psi4, default
}

set PROPERTIES_ORIGIN ["COM"]
properties('MP2/aug-cc-pvtz', properties = ['dipole'])
--------------------------------------------------------------------------

    Molecular point group: c1
  Charge       = 0
  Multiplicity = 1
  Basis Set: AUG-CC-PVTZ
    Blend: AUG-CC-PVTZ
  Basis Set: (AUG-CC-PVTZ AUX)
    Blend: AUG-CC-PVTZ-JKFIT

    Orbital Energies [Eh]
    ---------------------

    Doubly Occupied:

       1A    -20.519632     2A    -15.606995     3A    -15.599683
       4A    -15.534775     5A    -11.374959     6A    -11.350988
       7A    -11.314841     8A    -11.262050     9A    -11.238105
      10A     -1.414874    11A     -1.306236    12A     -1.265846
      13A     -1.173280    14A     -1.055020    15A     -0.951049
      16A     -0.875647    17A     -0.858328    18A     -0.759495
      19A     -0.729714    20A     -0.687412    21A     -0.672331
      22A     -0.645399    23A     -0.639547    24A     -0.594811
      25A     -0.585900    26A     -0.582184    27A     -0.552856
      28A     -0.541539    29A     -0.477261    30A     -0.453943
      31A     -0.401728    32A     -0.385975    33A     -0.329498

  @DF-RHF Final Energy:  -431.79156298232317

   => Energetics <=

    Nuclear Repulsion Energy =            440.1410790578419210
    One-Electron Energy =               -1460.3814778415730871
    Two-Electron Energy =                 588.4488358014079949
    Total Energy =                       -431.7915629823231711
  Basis Set: (AUG-CC-PVTZ AUX)
    Blend: AUG-CC-PVTZ-RI
    Molecular point group: c1

    Geometry (in Angstrom), charge = 0, multiplicity = 1:

       Center              X                  Y                   Z               Mass
    ------------   -----------------  -----------------  -----------------  -----------------
         O           -1.437685360281     1.795105733196    -0.005162958342    15.994914619570
         N           -1.130995360281    -0.484307266804     0.009810041658    14.003074004430
         N            0.729573639719     1.013272733196     0.012864041658    14.003074004430
         N            2.878592639719     0.203557733196    -0.072681958342    14.003074004430
         C           -0.286716360281    -1.554057266804     0.002523041658    12.000000000000
         C            1.063182639719    -1.388098266804    -0.000740958342    12.000000000000
         C           -0.653743960281     0.925210933196     0.019258841658    12.000000000000
         C           -2.575089360281    -0.708718266804     0.003819041658    12.000000000000
         C            1.577985439719     0.009742233196     0.003068841658    12.000000000000
         H           -0.765587360281    -2.530011266804    -0.006653958342     1.007825032230
         H            1.742004639719    -2.233058266804    -0.028088958342     1.007825032230
         H           -2.876851360281    -1.268537266804     0.892511041658     1.007825032230
         H           -2.871745360281    -1.255281266804    -0.894760958342     1.007825032230
         H           -3.039666360281     0.274108733196     0.010252041658     1.007825032230
         H            3.489363639719    -0.484314266804     0.350076041658     1.007825032230
         H            3.132023639719     1.167530733196     0.120888041658     1.007825032230

  Basis Set: AUG-CC-PVTZ
    Blend: AUG-CC-PVTZ
  Basis Set: (AUG-CC-PVTZ AUX)
    Blend: AUG-CC-PVTZ-JKFIT
	 Reference Energy          =    -431.7915629823231711 [Eh]
	 Singles Energy            =      -0.0000000000000000 [Eh]
	 Same-Spin Energy          =      -0.4492925927558856 [Eh]
	 Opposite-Spin Energy      =      -1.3701735830881427 [Eh]
	 Correlation Energy        =      -1.8194661758440285 [Eh]
	 Total Energy              =    -433.6110291581671845 [Eh]

	 ================> DF-SCS-MP2 Energies <==================
	-----------------------------------------------------------
	 SCS Same-Spin Scale       =       0.3333333333333333 [-]
	 SCS Opposite-Spin Scale   =       1.2000000000000000 [-]
	 SCS Same-Spin Energy      =      -0.1497641975852952 [Eh]
	 SCS Opposite-Spin Energy  =      -1.6442082997057712 [Eh]
	 SCS Correlation Energy    =      -1.7939724972910664 [Eh]
	 SCS Total Energy          =    -433.5855354796142365 [Eh]
	-----------------------------------------------------------

  Dipole Moment: [D]
     X:     2.0489      Y:    -4.7587      Z:     0.8178     Total:     5.2452

*** Psi4 exiting successfully. Buy a developer a beer!
