                               Psi4 1.3.2 release

  ==> Input File <==

--------------------------------------------------------------------------
#psi4
#
memory 32 gb

molecule  {
0 1
  O       -1.4243350     1.8531120    -0.0084660
  N       -1.1176450    -0.4263010     0.0065070
  N        0.7429240     1.0712790     0.0095610
  N        2.8919430     0.2615640    -0.0759850
  C       -0.2733660    -1.4960510    -0.0007800
  C        1.0765330    -1.3300920    -0.0040440
  C       -0.7332188     0.8993737     0.0159520
  C       -2.5617390    -0.6507120     0.0005160
  C        1.5376510     0.0247200    -0.0002060
  H       -0.7522370    -2.4720050    -0.0099570
  H        1.7553550    -2.1750520    -0.0313920
  H       -2.8635010    -1.2105310     0.8892080
  H       -2.8583950    -1.1972750    -0.8980640
  H       -3.0263160     0.3321150     0.0069490
  H        3.5027140    -0.4263080     0.3467730
  H        3.1453740     1.2255370     0.1175850
units angstrom
no_reorient  #important for SAPT in psi4, default
symmetry c1  #important for SAPT in psi4, default
}

set PROPERTIES_ORIGIN ["COM"]
properties('MP2/aug-cc-pvtz', properties = ['dipole'])
--------------------------------------------------------------------------

    Molecular point group: c1
  Charge       = 0
  Multiplicity = 1
  Basis Set: AUG-CC-PVTZ
    Blend: AUG-CC-PVTZ
  Basis Set: (AUG-CC-PVTZ AUX)
    Blend: AUG-CC-PVTZ-JKFIT

    Orbital Energies [Eh]
    ---------------------

    Doubly Occupied:

       1A    -20.518611     2A    -15.626480     3A    -15.582629
       4A    -15.537489     5A    -11.372584     6A    -11.335860
       7A    -11.324853     8A    -11.273006     9A    -11.245700
      10A     -1.414438    11A     -1.307588    12A     -1.262946
      13A     -1.147199    14A     -1.071607    15A     -0.967491
      16A     -0.908228    17A     -0.835086    18A     -0.753898
      19A     -0.720708    20A     -0.683742    21A     -0.670265
      22A     -0.662441    23A     -0.637386    24A     -0.599192
      25A     -0.588465    26A     -0.576998    27A     -0.567362
      28A     -0.531836    29A     -0.481590    30A     -0.453556
      31A     -0.406132    32A     -0.379486    33A     -0.338997

  @DF-RHF Final Energy:  -431.79049716111558

   => Energetics <=

    Nuclear Repulsion Energy =            440.9559081704850882
    One-Electron Energy =               -1461.9251147103027506
    Two-Electron Energy =                 589.1787093787020240
    Total Energy =                       -431.7904971611155815
  Basis Set: (AUG-CC-PVTZ AUX)
    Blend: AUG-CC-PVTZ-RI
    Molecular point group: c1

    Geometry (in Angstrom), charge = 0, multiplicity = 1:

       Center              X                  Y                   Z               Mass
    ------------   -----------------  -----------------  -----------------  -----------------
         O           -1.423627025901     1.807279707664    -0.005165299639    15.994914619570
         N           -1.116937025901    -0.472133292336     0.009807700361    14.003074004430
         N            0.743631974099     1.025446707664     0.012861700361    14.003074004430
         N            2.892650974099     0.215731707664    -0.072684299639    14.003074004430
         C           -0.272658025901    -1.541883292336     0.002520700361    12.000000000000
         C            1.077240974099    -1.375924292336    -0.000743299639    12.000000000000
         C           -0.732510825901     0.853541407664     0.019252700361    12.000000000000
         C           -2.561031025901    -0.696544292336     0.003816700361    12.000000000000
         C            1.538358974099    -0.021112292336     0.003094700361    12.000000000000
         H           -0.751529025901    -2.517837292336    -0.006656299639     1.007825032230
         H            1.756062974099    -2.220884292336    -0.028091299639     1.007825032230
         H           -2.862793025901    -1.256363292336     0.892508700361     1.007825032230
         H           -2.857687025901    -1.243107292336    -0.894763299639     1.007825032230
         H           -3.025608025901     0.286282707664     0.010249700361     1.007825032230
         H            3.503421974099    -0.472140292336     0.350073700361     1.007825032230
         H            3.146081974099     1.179704707664     0.120885700361     1.007825032230

  Basis Set: AUG-CC-PVTZ
    Blend: AUG-CC-PVTZ
  Basis Set: (AUG-CC-PVTZ AUX)
    Blend: AUG-CC-PVTZ-JKFIT
	 Reference Energy          =    -431.7904971611155815 [Eh]
	 Singles Energy            =      -0.0000000000000000 [Eh]
	 Same-Spin Energy          =      -0.4497085450388855 [Eh]
	 Opposite-Spin Energy      =      -1.3725357326481045 [Eh]
	 Correlation Energy        =      -1.8222442776869898 [Eh]
	 Total Energy              =    -433.6127414388025727 [Eh]

	 ================> DF-SCS-MP2 Energies <==================
	-----------------------------------------------------------
	 SCS Same-Spin Scale       =       0.3333333333333333 [-]
	 SCS Opposite-Spin Scale   =       1.2000000000000000 [-]
	 SCS Same-Spin Energy      =      -0.1499028483462951 [Eh]
	 SCS Opposite-Spin Energy  =      -1.6470428791777254 [Eh]
	 SCS Correlation Energy    =      -1.7969457275240206 [Eh]
	 SCS Total Energy          =    -433.5874428886396004 [Eh]
	-----------------------------------------------------------

  Dipole Moment: [D]
     X:     1.0105      Y:    -5.4233      Z:     0.8374     Total:     5.5799

*** Psi4 exiting successfully. Buy a developer a beer!
