                               Psi4 1.3.2 release

  ==> Input File <==

--------------------------------------------------------------------------
#psi4
#
memory 32 gb

molecule  {
0 1
  O       -1.4243350     1.8531120    -0.0084660
  N       -1.0988464    -0.4117291     0.0065163
  N        0.7429240     1.0712790     0.0095610
  N        2.8919430     0.2615640    -0.0759850
  C       -0.2733660    -1.4960510    -0.0007800
  C        1.0734313    -1.3065585    -0.0039296
  C       -0.6338910     0.9109410     0.0155220
  C       -2.5617390    -0.6507120     0.0005160
  C        1.5376510     0.0247200    -0.0002060
  H       -0.7522370    -2.4720050    -0.0099570
  H        1.7553550    -2.1750520    -0.0313920
  H       -2.8635010    -1.2105310     0.8892080
  H       -2.8583950    -1.1972750    -0.8980640
  H       -3.0263160     0.3321150     0.0069490
  H        3.5027140    -0.4263080     0.3467730
  H        3.1453740     1.2255370     0.1175850
units angstrom
no_reorient  #important for SAPT in psi4, default
symmetry c1  #important for SAPT in psi4, default
}

set PROPERTIES_ORIGIN ["COM"]
properties('MP2/aug-cc-pvtz', properties = ['dipole'])
--------------------------------------------------------------------------

    Molecular point group: c1
  Charge       = 0
  Multiplicity = 1
  Basis Set: AUG-CC-PVTZ
    Blend: AUG-CC-PVTZ
  Basis Set: (AUG-CC-PVTZ AUX)
    Blend: AUG-CC-PVTZ-JKFIT

    Orbital Energies [Eh]
    ---------------------

    Doubly Occupied:

       1A    -20.500605     2A    -15.626394     3A    -15.590271
       4A    -15.541858     5A    -11.369441     6A    -11.346166
       7A    -11.328511     8A    -11.272796     9A    -11.246134
      10A     -1.383236    11A     -1.296457    12A     -1.266484
      13A     -1.169199    14A     -1.073450    15A     -0.966266
      16A     -0.905082    17A     -0.852482    18A     -0.760300
      19A     -0.725407    20A     -0.682242    21A     -0.672003
      22A     -0.655632    23A     -0.622962    24A     -0.603717
      25A     -0.588720    26A     -0.580345    27A     -0.557075
      28A     -0.522871    29A     -0.476134    30A     -0.439118
      31A     -0.419075    32A     -0.387469    33A     -0.339141

  @DF-RHF Final Energy:  -431.79932235461308

   => Energetics <=

    Nuclear Repulsion Energy =            441.6334327341372727
    One-Electron Energy =               -1463.3314252331383614
    Two-Electron Energy =                 589.8986701443880065
    Total Energy =                       -431.7993223546130821
  Basis Set: (AUG-CC-PVTZ AUX)
    Blend: AUG-CC-PVTZ-RI
    Molecular point group: c1

    Geometry (in Angstrom), charge = 0, multiplicity = 1:

       Center              X                  Y                   Z               Mass
    ------------   -----------------  -----------------  -----------------  -----------------
         O           -1.434965293330     1.802279976059    -0.005136057649    15.994914619570
         N           -1.109476693330    -0.462561123941     0.009846242351    14.003074004430
         N            0.732293706670     1.020446976059     0.012890942351    14.003074004430
         N            2.881312706670     0.210731976059    -0.072655057649    14.003074004430
         C           -0.283996293330    -1.546883023941     0.002549942351    12.000000000000
         C            1.062801006670    -1.357390523941    -0.000599657649    12.000000000000
         C           -0.644521293330     0.860108976059     0.018851942351    12.000000000000
         C           -2.572369293330    -0.701544023941     0.003845942351    12.000000000000
         C            1.527020706670    -0.026112023941     0.003123942351    12.000000000000
         H           -0.762867293330    -2.522837023941    -0.006627057649     1.007825032230
         H            1.744724706670    -2.225884023941    -0.028062057649     1.007825032230
         H           -2.874131293330    -1.261363023941     0.892537942351     1.007825032230
         H           -2.869025293330    -1.248107023941    -0.894734057649     1.007825032230
         H           -3.036946293330     0.281282976059     0.010278942351     1.007825032230
         H            3.492083706670    -0.477140023941     0.350102942351     1.007825032230
         H            3.134743706670     1.174704976059     0.120914942351     1.007825032230

  Basis Set: AUG-CC-PVTZ
    Blend: AUG-CC-PVTZ
  Basis Set: (AUG-CC-PVTZ AUX)
    Blend: AUG-CC-PVTZ-JKFIT
	 Reference Energy          =    -431.7993223546130821 [Eh]
	 Singles Energy            =      -0.0000000000000000 [Eh]
	 Same-Spin Energy          =      -0.4506931346549995 [Eh]
	 Opposite-Spin Energy      =      -1.3723990577433587 [Eh]
	 Correlation Energy        =      -1.8230921923983581 [Eh]
	 Total Energy              =    -433.6224145470114308 [Eh]

	 ================> DF-SCS-MP2 Energies <==================
	-----------------------------------------------------------
	 SCS Same-Spin Scale       =       0.3333333333333333 [-]
	 SCS Opposite-Spin Scale   =       1.2000000000000000 [-]
	 SCS Same-Spin Energy      =      -0.1502310448849998 [Eh]
	 SCS Opposite-Spin Energy  =      -1.6468788692920304 [Eh]
	 SCS Correlation Energy    =      -1.7971099141770304 [Eh]
	 SCS Total Energy          =    -433.5964322687901245 [Eh]
	-----------------------------------------------------------

  Dipole Moment: [D]
     X:     1.6308      Y:    -5.7685      Z:     0.8351     Total:     6.0525

*** Psi4 exiting successfully. Buy a developer a beer!
