                               Psi4 1.3.2 release

  ==> Input File <==

--------------------------------------------------------------------------
#psi4
#
memory 32 gb

molecule  {
0 1
  O       -1.4243350     1.8531120    -0.0084660
  N       -1.1176450    -0.4263010     0.0065070
  N        0.7429240     1.0712790     0.0095610
  N        2.8919430     0.2615640    -0.0759850
  C       -0.2733660    -1.4960510    -0.0007800
  C        1.0765330    -1.3300920    -0.0040440
  C       -0.6338910     0.9109410     0.0155220
  C       -2.5617390    -0.6507120     0.0005160
  C        1.5376510     0.0247200    -0.0002060
  H       -0.7522370    -2.4720050    -0.0099570
  H        1.7553550    -2.1750520    -0.0313920
  H       -2.8560665    -1.1968089     0.9001718
  H       -2.8508988    -1.1833925    -0.9087804
  H       -3.0263160     0.3321150     0.0069490
  H        3.5027140    -0.4263080     0.3467730
  H        3.1453740     1.2255370     0.1175850
units angstrom
no_reorient  #important for SAPT in psi4, default
symmetry c1  #important for SAPT in psi4, default
}

set PROPERTIES_ORIGIN ["COM"]
properties('MP2/aug-cc-pvtz', properties = ['dipole'])
--------------------------------------------------------------------------

    Molecular point group: c1
  Charge       = 0
  Multiplicity = 1
  Basis Set: AUG-CC-PVTZ
    Blend: AUG-CC-PVTZ
  Basis Set: (AUG-CC-PVTZ AUX)
    Blend: AUG-CC-PVTZ-JKFIT

    Orbital Energies [Eh]
    ---------------------

    Doubly Occupied:

       1A    -20.503454     2A    -15.625022     3A    -15.591419
       4A    -15.543440     5A    -11.372043     6A    -11.349131
       7A    -11.327085     8A    -11.270430     9A    -11.245847
      10A     -1.382460    11A     -1.295890    12A     -1.267362
      13A     -1.170588    14A     -1.072643    15A     -0.965214
      16A     -0.899153    17A     -0.853514    18A     -0.758813
      19A     -0.723550    20A     -0.685103    21A     -0.674042
      22A     -0.657034    23A     -0.621895    24A     -0.601420
      25A     -0.591128    26A     -0.580856    27A     -0.558126
      28A     -0.522137    29A     -0.476512    30A     -0.440665
      31A     -0.419601    32A     -0.387750    33A     -0.338896

  @DF-RHF Final Energy:  -431.80088780490928

   => Energetics <=

    Nuclear Repulsion Energy =            440.9550104812808513
    One-Electron Energy =               -1461.9673512086994833
    Two-Electron Energy =                 589.2114529225093520
    Total Energy =                       -431.8008878049092800
  Basis Set: (AUG-CC-PVTZ AUX)
    Blend: AUG-CC-PVTZ-RI
    Molecular point group: c1

    Geometry (in Angstrom), charge = 0, multiplicity = 1:

       Center              X                  Y                   Z               Mass
    ------------   -----------------  -----------------  -----------------  -----------------
         O           -1.433278326359     1.805947309961    -0.005126032832    15.994914619570
         N           -1.126588326359    -0.473465690039     0.009846967168    14.003074004430
         N            0.733980673641     1.024114309961     0.012900967168    14.003074004430
         N            2.882999673641     0.214399309961    -0.072645032832    14.003074004430
         C           -0.282309326359    -1.543215690039     0.002559967168    12.000000000000
         C            1.067589673641    -1.377256690039    -0.000704032832    12.000000000000
         C           -0.642834326359     0.863776309961     0.018861967168    12.000000000000
         C           -2.570682326359    -0.697876690039     0.003855967168    12.000000000000
         C            1.528707673641    -0.022444690039     0.003133967168    12.000000000000
         H           -0.761180326359    -2.519169690039    -0.006617032832     1.007825032230
         H            1.746411673641    -2.222216690039    -0.028052032832     1.007825032230
         H           -2.865009826359    -1.243973590039     0.903511767168     1.007825032230
         H           -2.859842126359    -1.230557190039    -0.905440432832     1.007825032230
         H           -3.035259326359     0.284950309961     0.010288967168     1.007825032230
         H            3.493770673641    -0.473472690039     0.350112967168     1.007825032230
         H            3.136430673641     1.178372309961     0.120924967168     1.007825032230

  Basis Set: AUG-CC-PVTZ
    Blend: AUG-CC-PVTZ
  Basis Set: (AUG-CC-PVTZ AUX)
    Blend: AUG-CC-PVTZ-JKFIT
	 Reference Energy          =    -431.8008878049092800 [Eh]
	 Singles Energy            =      -0.0000000000000000 [Eh]
	 Same-Spin Energy          =      -0.4504160916499794 [Eh]
	 Opposite-Spin Energy      =      -1.3722133651965738 [Eh]
	 Correlation Energy        =      -1.8226294568465531 [Eh]
	 Total Energy              =    -433.6235172617558078 [Eh]

	 ================> DF-SCS-MP2 Energies <==================
	-----------------------------------------------------------
	 SCS Same-Spin Scale       =       0.3333333333333333 [-]
	 SCS Opposite-Spin Scale   =       1.2000000000000000 [-]
	 SCS Same-Spin Energy      =      -0.1501386972166598 [Eh]
	 SCS Opposite-Spin Energy  =      -1.6466560382358886 [Eh]
	 SCS Correlation Energy    =      -1.7967947354525484 [Eh]
	 SCS Total Energy          =    -433.5976825403618022 [Eh]
	-----------------------------------------------------------

  Dipole Moment: [D]
     X:     1.6944      Y:    -5.6229      Z:     0.8325     Total:     5.9313

*** Psi4 exiting successfully. Buy a developer a beer!
