                               Psi4 1.3.2 release

  ==> Input File <==

--------------------------------------------------------------------------
#psi4
#
memory 32 gb

molecule  {
0 1
  O       -1.4243350     1.8531120    -0.0084660
  N       -1.1176450    -0.4263010     0.0065070
  N        0.7429240     1.0712790     0.0095610
  N        2.8919430     0.2615640    -0.0759850
  C       -0.2733660    -1.4960510    -0.0007800
  C        1.0765330    -1.3300920    -0.0040440
  C       -0.6338910     0.9109410     0.0155220
  C       -2.5617390    -0.6507120     0.0005160
  C        1.5376510     0.0247200    -0.0002060
  H       -0.7522370    -2.4720050    -0.0099570
  H        1.7553550    -2.1750520    -0.0313920
  H       -2.8635010    -1.2105310     0.8892080
  H       -2.8583950    -1.1972750    -0.8980640
  H       -3.0263160     0.3321150     0.0069490
  H        3.4978369    -0.4327631     0.3432236
  H        3.1384809     1.2282812     0.1127409
units angstrom
no_reorient  #important for SAPT in psi4, default
symmetry c1  #important for SAPT in psi4, default
}

set PROPERTIES_ORIGIN ["COM"]
properties('MP2/aug-cc-pvtz', properties = ['dipole'])
--------------------------------------------------------------------------

    Molecular point group: c1
  Charge       = 0
  Multiplicity = 1
  Basis Set: AUG-CC-PVTZ
    Blend: AUG-CC-PVTZ
  Basis Set: (AUG-CC-PVTZ AUX)
    Blend: AUG-CC-PVTZ-JKFIT

    Orbital Energies [Eh]
    ---------------------

    Doubly Occupied:

       1A    -20.503554     2A    -15.625356     3A    -15.591572
       4A    -15.543498     5A    -11.372224     6A    -11.349046
       7A    -11.327222     8A    -11.270456     9A    -11.245963
      10A     -1.382564    11A     -1.296036    12A     -1.267512
      13A     -1.170627    14A     -1.072687    15A     -0.965173
      16A     -0.899374    17A     -0.853367    18A     -0.759503
      19A     -0.723353    20A     -0.685497    21A     -0.675019
      22A     -0.655503    23A     -0.621933    24A     -0.601795
      25A     -0.592385    26A     -0.579812    27A     -0.559083
      28A     -0.521862    29A     -0.476269    30A     -0.440865
      31A     -0.419729    32A     -0.387669    33A     -0.339016

  @DF-RHF Final Energy:  -431.80101869099309

   => Energetics <=

    Nuclear Repulsion Energy =            440.9415663519594091
    One-Electron Energy =               -1461.9341233349127833
    Two-Electron Energy =                 589.1915382919603417
    Total Energy =                       -431.8010186909930326
  Basis Set: (AUG-CC-PVTZ AUX)
    Blend: AUG-CC-PVTZ-RI
    Molecular point group: c1

    Geometry (in Angstrom), charge = 0, multiplicity = 1:

       Center              X                  Y                   Z               Mass
    ------------   -----------------  -----------------  -----------------  -----------------
         O           -1.433063149087     1.806199675381    -0.005056397528    15.994914619570
         N           -1.126373149087    -0.473213324619     0.009916602472    14.003074004430
         N            0.734195850913     1.024366675381     0.012970602472    14.003074004430
         N            2.883214850913     0.214651675381    -0.072575397528    14.003074004430
         C           -0.282094149087    -1.542963324619     0.002629602472    12.000000000000
         C            1.067804850913    -1.377004324619    -0.000634397528    12.000000000000
         C           -0.642619149087     0.864028675381     0.018931602472    12.000000000000
         C           -2.570467149087    -0.697624324619     0.003925602472    12.000000000000
         C            1.528922850913    -0.022192324619     0.003203602472    12.000000000000
         H           -0.760965149087    -2.518917324619    -0.006547397528     1.007825032230
         H            1.746626850913    -2.221964324619    -0.027982397528     1.007825032230
         H           -2.872229149087    -1.257443324619     0.892617602472     1.007825032230
         H           -2.867123149087    -1.244187324619    -0.894654397528     1.007825032230
         H           -3.035044149087     0.285202675381     0.010358602472     1.007825032230
         H            3.489108750913    -0.479675424619     0.346633202472     1.007825032230
         H            3.129752750913     1.181368875381     0.116150502472     1.007825032230

  Basis Set: AUG-CC-PVTZ
    Blend: AUG-CC-PVTZ
  Basis Set: (AUG-CC-PVTZ AUX)
    Blend: AUG-CC-PVTZ-JKFIT
	 Reference Energy          =    -431.8010186909930894 [Eh]
	 Singles Energy            =      -0.0000000000000000 [Eh]
	 Same-Spin Energy          =      -0.4503971957982796 [Eh]
	 Opposite-Spin Energy      =      -1.3721681912962724 [Eh]
	 Correlation Energy        =      -1.8225653870945520 [Eh]
	 Total Energy              =    -433.6235840780876174 [Eh]

	 ================> DF-SCS-MP2 Energies <==================
	-----------------------------------------------------------
	 SCS Same-Spin Scale       =       0.3333333333333333 [-]
	 SCS Opposite-Spin Scale   =       1.2000000000000000 [-]
	 SCS Same-Spin Energy      =      -0.1501323985994265 [Eh]
	 SCS Opposite-Spin Energy  =      -1.6466018295555269 [Eh]
	 SCS Correlation Energy    =      -1.7967342281549534 [Eh]
	 SCS Total Energy          =    -433.5977529191480357 [Eh]
	-----------------------------------------------------------

  Dipole Moment: [D]
     X:     1.7011      Y:    -5.6358      Z:     0.8219     Total:     5.9440

*** Psi4 exiting successfully. Buy a developer a beer!
