                               Psi4 1.3.2 release

  ==> Input File <==

--------------------------------------------------------------------------
#psi4
#
memory 32 gb

molecule  {
0 1
  O       -1.4243350     1.8531120    -0.0084660
  N       -1.1176450    -0.4263010     0.0065070
  N        0.7429240     1.0712790     0.0095610
  N        2.8993053     0.2140948    -0.0775311
  C       -0.2733660    -1.4960510    -0.0007800
  C        1.1240016    -1.3453182    -0.0072474
  C       -0.6338910     0.9109410     0.0155220
  C       -2.5617390    -0.6507120     0.0005160
  C        1.5376510     0.0247200    -0.0002060
  H       -0.7522370    -2.4720050    -0.0099570
  H        1.7553550    -2.1750520    -0.0313920
  H       -2.8635010    -1.2105310     0.8892080
  H       -2.8583950    -1.1972750    -0.8980640
  H       -3.0263160     0.3321150     0.0069490
  H        3.5027140    -0.4263080     0.3467730
  H        3.1453740     1.2255370     0.1175850
units angstrom
no_reorient  #important for SAPT in psi4, default
symmetry c1  #important for SAPT in psi4, default
}

set PROPERTIES_ORIGIN ["COM"]
properties('MP2/aug-cc-pvtz', properties = ['dipole'])
--------------------------------------------------------------------------

    Molecular point group: c1
  Charge       = 0
  Multiplicity = 1
  Basis Set: AUG-CC-PVTZ
    Blend: AUG-CC-PVTZ
  Basis Set: (AUG-CC-PVTZ AUX)
    Blend: AUG-CC-PVTZ-JKFIT

    Orbital Energies [Eh]
    ---------------------

    Doubly Occupied:

       1A    -20.505437     2A    -15.629966     3A    -15.589248
       4A    -15.544928     5A    -11.374348     6A    -11.348829
       7A    -11.334348     8A    -11.272463     9A    -11.245049
      10A     -1.384068    11A     -1.295496    12A     -1.267510
      13A     -1.172141    14A     -1.064823    15A     -0.967310
      16A     -0.901142    17A     -0.854975    18A     -0.753605
      19A     -0.724432    20A     -0.694740    21A     -0.673638
      22A     -0.656540    23A     -0.624669    24A     -0.598079
      25A     -0.588824    26A     -0.580302    27A     -0.558885
      28A     -0.522459    29A     -0.473639    30A     -0.442687
      31A     -0.421361    32A     -0.388639    33A     -0.335379

  @DF-RHF Final Energy:  -431.79174685242270

   => Energetics <=

    Nuclear Repulsion Energy =            440.1122431556420338
    One-Electron Energy =               -1460.2280679551711273
    Two-Electron Energy =                 588.3240779471062751
    Total Energy =                       -431.7917468524227615
  Basis Set: (AUG-CC-PVTZ AUX)
    Blend: AUG-CC-PVTZ-RI
    Molecular point group: c1

    Geometry (in Angstrom), charge = 0, multiplicity = 1:

       Center              X                  Y                   Z               Mass
    ------------   -----------------  -----------------  -----------------  -----------------
         O           -1.438537211861     1.812946009329    -0.004643537920    15.994914619570
         N           -1.131847211861    -0.466466990671     0.010329462080    14.003074004430
         N            0.728721788139     1.031113009329     0.013383462080    14.003074004430
         N            2.885103088139     0.173928809329    -0.073708637920    14.003074004430
         C           -0.287568211861    -1.536216990671     0.003042462080    12.000000000000
         C            1.109799388139    -1.385484190671    -0.003424937920    12.000000000000
         C           -0.648093211861     0.870775009329     0.019344462080    12.000000000000
         C           -2.575941211861    -0.690877990671     0.004338462080    12.000000000000
         C            1.523448788139    -0.015445990671     0.003616462080    12.000000000000
         H           -0.766439211861    -2.512170990671    -0.006134537920     1.007825032230
         H            1.741152788139    -2.215217990671    -0.027569537920     1.007825032230
         H           -2.877703211861    -1.250696990671     0.893030462080     1.007825032230
         H           -2.872597211861    -1.237440990671    -0.894241537920     1.007825032230
         H           -3.040518211861     0.291949009329     0.010771462080     1.007825032230
         H            3.488511788139    -0.466473990671     0.350595462080     1.007825032230
         H            3.131171788139     1.185371009329     0.121407462080     1.007825032230

  Basis Set: AUG-CC-PVTZ
    Blend: AUG-CC-PVTZ
  Basis Set: (AUG-CC-PVTZ AUX)
    Blend: AUG-CC-PVTZ-JKFIT
	 Reference Energy          =    -431.7917468524227047 [Eh]
	 Singles Energy            =      -0.0000000000000000 [Eh]
	 Same-Spin Energy          =      -0.4509138852241472 [Eh]
	 Opposite-Spin Energy      =      -1.3733157848318214 [Eh]
	 Correlation Energy        =      -1.8242296700559686 [Eh]
	 Total Energy              =    -433.6159765224786611 [Eh]

	 ================> DF-SCS-MP2 Energies <==================
	-----------------------------------------------------------
	 SCS Same-Spin Scale       =       0.3333333333333333 [-]
	 SCS Opposite-Spin Scale   =       1.2000000000000000 [-]
	 SCS Same-Spin Energy      =      -0.1503046284080491 [Eh]
	 SCS Opposite-Spin Energy  =      -1.6479789417981856 [Eh]
	 SCS Correlation Energy    =      -1.7982835702062347 [Eh]
	 SCS Total Energy          =    -433.5900304226289563 [Eh]
	-----------------------------------------------------------

  Dipole Moment: [D]
     X:     1.5661      Y:    -5.5803      Z:     0.8436     Total:     5.8570

*** Psi4 exiting successfully. Buy a developer a beer!
