                               Psi4 1.3.2 release

  ==> Input File <==

--------------------------------------------------------------------------
#psi4
#
memory 32 gb

molecule  {
0 1
  O       -1.4243350     1.8531120    -0.0084660
  N       -1.1176450    -0.4263010     0.0065070
  N        0.7429240     1.0712790     0.0095610
  N        2.8919430     0.2615640    -0.0759850
  C       -0.2733660    -1.4960510    -0.0007800
  C        1.0765330    -1.3300920    -0.0040440
  C       -0.6338910     0.9109410     0.0155220
  C       -2.4629258    -0.6353565     0.0009259
  C        1.5376510     0.0247200    -0.0002060
  H       -0.7522370    -2.4720050    -0.0099570
  H        1.7553550    -2.1750520    -0.0313920
  H       -2.8635010    -1.2105310     0.8892080
  H       -2.8583950    -1.1972750    -0.8980640
  H       -3.0263160     0.3321150     0.0069490
  H        3.5027140    -0.4263080     0.3467730
  H        3.1453740     1.2255370     0.1175850
units angstrom
no_reorient  #important for SAPT in psi4, default
symmetry c1  #important for SAPT in psi4, default
}

set PROPERTIES_ORIGIN ["COM"]
properties('MP2/aug-cc-pvtz', properties = ['dipole'])
--------------------------------------------------------------------------

    Molecular point group: c1
  Charge       = 0
  Multiplicity = 1
  Basis Set: AUG-CC-PVTZ
    Blend: AUG-CC-PVTZ
  Basis Set: (AUG-CC-PVTZ AUX)
    Blend: AUG-CC-PVTZ-JKFIT

    Orbital Energies [Eh]
    ---------------------

    Doubly Occupied:

       1A    -20.506670     2A    -15.626728     3A    -15.594084
       4A    -15.546347     5A    -11.375147     6A    -11.352276
       7A    -11.329659     8A    -11.268818     9A    -11.249936
      10A     -1.390428    11A     -1.304573    12A     -1.278771
      13A     -1.175918    14A     -1.080261    15A     -0.962606
      16A     -0.905305    17A     -0.853521    18A     -0.764343
      19A     -0.728599    20A     -0.700816    21A     -0.678064
      22A     -0.661076    23A     -0.627776    24A     -0.608597
      25A     -0.595960    26A     -0.572940    27A     -0.538994
      28A     -0.518858    29A     -0.471024    30A     -0.441945
      31A     -0.423865    32A     -0.388737    33A     -0.341126

  @DF-RHF Final Energy:  -431.79007137440664

   => Energetics <=

    Nuclear Repulsion Energy =            443.0349457651664693
    One-Electron Energy =               -1465.9224970578225111
    Two-Electron Energy =                 591.0974799182495190
    Total Energy =                       -431.7900713744065797
  Basis Set: (AUG-CC-PVTZ AUX)
    Blend: AUG-CC-PVTZ-RI
    Molecular point group: c1

    Geometry (in Angstrom), charge = 0, multiplicity = 1:

       Center              X                  Y                   Z               Mass
    ------------   -----------------  -----------------  -----------------  -----------------
         O           -1.442639601372     1.804696336394    -0.005163370948    15.994914619570
         N           -1.135949601372    -0.474716663606     0.009809629052    14.003074004430
         N            0.724619398628     1.022863336394     0.012863629052    14.003074004430
         N            2.873638398628     0.213148336394    -0.072682370948    14.003074004430
         C           -0.291670601372    -1.544466663606     0.002522629052    12.000000000000
         C            1.058228398628    -1.378507663606    -0.000741370948    12.000000000000
         C           -0.652195601372     0.862525336394     0.018824629052    12.000000000000
         C           -2.481230401372    -0.683772163606     0.004228529052    12.000000000000
         C            1.519346398628    -0.023695663606     0.003096629052    12.000000000000
         H           -0.770541601372    -2.520420663606    -0.006654370948     1.007825032230
         H            1.737050398628    -2.223467663606    -0.028089370948     1.007825032230
         H           -2.881805601372    -1.258946663606     0.892510629052     1.007825032230
         H           -2.876699601372    -1.245690663606    -0.894761370948     1.007825032230
         H           -3.044620601372     0.283699336394     0.010251629052     1.007825032230
         H            3.484409398628    -0.474723663606     0.350075629052     1.007825032230
         H            3.127069398628     1.177121336394     0.120887629052     1.007825032230

  Basis Set: AUG-CC-PVTZ
    Blend: AUG-CC-PVTZ
  Basis Set: (AUG-CC-PVTZ AUX)
    Blend: AUG-CC-PVTZ-JKFIT
	 Reference Energy          =    -431.7900713744066366 [Eh]
	 Singles Energy            =      -0.0000000000000000 [Eh]
	 Same-Spin Energy          =      -0.4513484555867080 [Eh]
	 Opposite-Spin Energy      =      -1.3730384364470893 [Eh]
	 Correlation Energy        =      -1.8243868920337973 [Eh]
	 Total Energy              =    -433.6144582664404084 [Eh]

	 ================> DF-SCS-MP2 Energies <==================
	-----------------------------------------------------------
	 SCS Same-Spin Scale       =       0.3333333333333333 [-]
	 SCS Opposite-Spin Scale   =       1.2000000000000000 [-]
	 SCS Same-Spin Energy      =      -0.1504494851955693 [Eh]
	 SCS Opposite-Spin Energy  =      -1.6476461237365072 [Eh]
	 SCS Correlation Energy    =      -1.7980956089320765 [Eh]
	 SCS Total Energy          =    -433.5881669833387377 [Eh]
	-----------------------------------------------------------

  Dipole Moment: [D]
     X:     2.0435      Y:    -5.5134      Z:     0.8326     Total:     5.9386

*** Psi4 exiting successfully. Buy a developer a beer!
