                               Psi4 1.3.2 release

  ==> Input File <==

--------------------------------------------------------------------------
#psi4
#
memory 32 gb

molecule  {
0 1
  O       -1.4243350     1.8531120    -0.0084660
  N       -1.1176450    -0.4263010     0.0065070
  N        0.7429240     1.0712790     0.0095610
  N        2.8919430     0.2615640    -0.0759850
  C       -0.2628386    -1.5664445    -0.0027904
  C        1.0765330    -1.3300920    -0.0040440
  C       -0.6338910     0.9109410     0.0155220
  C       -2.5617390    -0.6507120     0.0005160
  C        1.5376510     0.0247200    -0.0002060
  H       -0.7522370    -2.4720050    -0.0099570
  H        1.7101810    -2.2094149    -0.0320805
  H       -2.8635010    -1.2105310     0.8892080
  H       -2.8583950    -1.1972750    -0.8980640
  H       -3.0263160     0.3321150     0.0069490
  H        3.5027140    -0.4263080     0.3467730
  H        3.1453740     1.2255370     0.1175850
units angstrom
no_reorient  #important for SAPT in psi4, default
symmetry c1  #important for SAPT in psi4, default
}

set PROPERTIES_ORIGIN ["COM"]
properties('MP2/aug-cc-pvtz', properties = ['dipole'])
--------------------------------------------------------------------------

    Molecular point group: c1
  Charge       = 0
  Multiplicity = 1
  Basis Set: AUG-CC-PVTZ
    Blend: AUG-CC-PVTZ
  Basis Set: (AUG-CC-PVTZ AUX)
    Blend: AUG-CC-PVTZ-JKFIT

    Orbital Energies [Eh]
    ---------------------

    Doubly Occupied:

       1A    -20.501723     2A    -15.619377     3A    -15.594284
       4A    -15.546186     5A    -11.371045     6A    -11.353930
       7A    -11.327200     8A    -11.265421     9A    -11.252562
      10A     -1.377603    11A     -1.292045    12A     -1.256159
      13A     -1.170934    14A     -1.075446    15A     -0.957751
      16A     -0.902929    17A     -0.851262    18A     -0.756354
      19A     -0.729673    20A     -0.682358    21A     -0.678939
      22A     -0.647507    23A     -0.628735    24A     -0.609283
      25A     -0.587114    26A     -0.578543    27A     -0.547551
      28A     -0.521425    29A     -0.468454    30A     -0.441182
      31A     -0.420589    32A     -0.387495    33A     -0.341988

  @DF-RHF Final Energy:  -431.79181010766291

   => Energetics <=

    Nuclear Repulsion Energy =            439.5204519823163878
    One-Electron Energy =               -1459.1384241382127129
    Two-Electron Energy =                 587.8261620482333001
    Total Energy =                       -431.7918101076629682
  Basis Set: (AUG-CC-PVTZ AUX)
    Blend: AUG-CC-PVTZ-RI
    Molecular point group: c1

    Geometry (in Angstrom), charge = 0, multiplicity = 1:

       Center              X                  Y                   Z               Mass
    ------------   -----------------  -----------------  -----------------  -----------------
         O           -1.433804108790     1.813201286381    -0.004925583115    15.994914619570
         N           -1.127114108790    -0.466211713619     0.010047416885    14.003074004430
         N            0.733454891210     1.031368286381     0.013101416885    14.003074004430
         N            2.882473891210     0.221653286381    -0.072444583115    14.003074004430
         C           -0.272307708790    -1.606355213619     0.000750016885    12.000000000000
         C            1.067063891210    -1.370002713619    -0.000503583115    12.000000000000
         C           -0.643360108790     0.871030286381     0.019062416885    12.000000000000
         C           -2.571208108790    -0.690622713619     0.004056416885    12.000000000000
         C            1.528181891210    -0.015190713619     0.003334416885    12.000000000000
         H           -0.761706108790    -2.511915713619    -0.006416583115     1.007825032230
         H            1.700711891210    -2.249325613619    -0.028540083115     1.007825032230
         H           -2.872970108790    -1.250441713619     0.892748416885     1.007825032230
         H           -2.867864108790    -1.237185713619    -0.894523583115     1.007825032230
         H           -3.035785108790     0.292204286381     0.010489416885     1.007825032230
         H            3.493244891210    -0.466218713619     0.350313416885     1.007825032230
         H            3.135904891210     1.185626286381     0.121125416885     1.007825032230

  Basis Set: AUG-CC-PVTZ
    Blend: AUG-CC-PVTZ
  Basis Set: (AUG-CC-PVTZ AUX)
    Blend: AUG-CC-PVTZ-JKFIT
	 Reference Energy          =    -431.7918101076629114 [Eh]
	 Singles Energy            =      -0.0000000000000000 [Eh]
	 Same-Spin Energy          =      -0.4504353356538571 [Eh]
	 Opposite-Spin Energy      =      -1.3735806077558292 [Eh]
	 Correlation Energy        =      -1.8240159434096863 [Eh]
	 Total Energy              =    -433.6158260510725881 [Eh]

	 ================> DF-SCS-MP2 Energies <==================
	-----------------------------------------------------------
	 SCS Same-Spin Scale       =       0.3333333333333333 [-]
	 SCS Opposite-Spin Scale   =       1.2000000000000000 [-]
	 SCS Same-Spin Energy      =      -0.1501451118846190 [Eh]
	 SCS Opposite-Spin Energy  =      -1.6482967293069950 [Eh]
	 SCS Correlation Energy    =      -1.7984418411916141 [Eh]
	 SCS Total Energy          =    -433.5902519488545295 [Eh]
	-----------------------------------------------------------

  Dipole Moment: [D]
     X:     1.9394      Y:    -5.7182      Z:     0.8325     Total:     6.0952

*** Psi4 exiting successfully. Buy a developer a beer!
