                               Psi4 1.3.2 release

  ==> Input File <==

--------------------------------------------------------------------------
#psi4
#
memory 32 gb

molecule  {
0 1
  O       -1.4243350     1.8531120    -0.0084660
  N       -1.1292961    -0.4220292     0.0066063
  N        0.7414729     1.0832874     0.0096729
  N        2.8919430     0.2615640    -0.0759850
  C       -0.2733660    -1.4960510    -0.0007800
  C        1.0765330    -1.3300920    -0.0040440
  C       -0.6338910     0.9109410     0.0155220
  C       -2.5617390    -0.6507120     0.0005160
  C        1.5376510     0.0247200    -0.0002060
  H       -0.7522370    -2.4720050    -0.0099570
  H        1.7553550    -2.1750520    -0.0313920
  H       -2.8635010    -1.2105310     0.8892080
  H       -2.8583950    -1.1972750    -0.8980640
  H       -3.0263160     0.3321150     0.0069490
  H        3.5027140    -0.4263080     0.3467730
  H        3.1453740     1.2255370     0.1175850
units angstrom
no_reorient  #important for SAPT in psi4, default
symmetry c1  #important for SAPT in psi4, default
}

set PROPERTIES_ORIGIN ["COM"]
properties('MP2/aug-cc-pvtz', properties = ['dipole'])
--------------------------------------------------------------------------

    Molecular point group: c1
  Charge       = 0
  Multiplicity = 1
  Basis Set: AUG-CC-PVTZ
    Blend: AUG-CC-PVTZ
  Basis Set: (AUG-CC-PVTZ AUX)
    Blend: AUG-CC-PVTZ-JKFIT

    Orbital Energies [Eh]
    ---------------------

    Doubly Occupied:

       1A    -20.501526     2A    -15.625069     3A    -15.593089
       4A    -15.545185     5A    -11.370788     6A    -11.351579
       7A    -11.328841     8A    -11.269135     9A    -11.247953
      10A     -1.381416    11A     -1.293853    12A     -1.266862
      13A     -1.169841    14A     -1.074003    15A     -0.965003
      16A     -0.899008    17A     -0.852044    18A     -0.758841
      19A     -0.723199    20A     -0.686803    21A     -0.674687
      22A     -0.655344    23A     -0.621777    24A     -0.602975
      25A     -0.592346    26A     -0.578949    27A     -0.557089
      28A     -0.521535    29A     -0.474360    30A     -0.440408
      31A     -0.420537    32A     -0.387152    33A     -0.339696

  @DF-RHF Final Energy:  -431.80002366842842

   => Energetics <=

    Nuclear Repulsion Energy =            440.5679541949663189
    One-Electron Energy =               -1461.1941658477087458
    Two-Electron Energy =                 588.8261879843139468
    Total Energy =                       -431.8000236684284801
  Basis Set: (AUG-CC-PVTZ AUX)
    Blend: AUG-CC-PVTZ-RI
    Molecular point group: c1

    Geometry (in Angstrom), charge = 0, multiplicity = 1:

       Center              X                  Y                   Z               Mass
    ------------   -----------------  -----------------  -----------------  -----------------
         O           -1.431690925617     1.804346846343    -0.005147687533    15.994914619570
         N           -1.136652025617    -0.470794353657     0.009924612467    14.003074004430
         N            0.734116974383     1.034522246343     0.012991212467    14.003074004430
         N            2.884587074383     0.212798846343    -0.072666687533    14.003074004430
         C           -0.280721925617    -1.544816153657     0.002538312467    12.000000000000
         C            1.069177074383    -1.378857153657    -0.000725687533    12.000000000000
         C           -0.641246925617     0.862175846343     0.018840312467    12.000000000000
         C           -2.569094925617    -0.699477153657     0.003834312467    12.000000000000
         C            1.530295074383    -0.024045153657     0.003112312467    12.000000000000
         H           -0.759592925617    -2.520770153657    -0.006638687533     1.007825032230
         H            1.747999074383    -2.223817153657    -0.028073687533     1.007825032230
         H           -2.870856925617    -1.259296153657     0.892526312467     1.007825032230
         H           -2.865750925617    -1.246040153657    -0.894745687533     1.007825032230
         H           -3.033671925617     0.283349846343     0.010267312467     1.007825032230
         H            3.495358074383    -0.475073153657     0.350091312467     1.007825032230
         H            3.138018074383     1.176771846343     0.120903312467     1.007825032230

  Basis Set: AUG-CC-PVTZ
    Blend: AUG-CC-PVTZ
  Basis Set: (AUG-CC-PVTZ AUX)
    Blend: AUG-CC-PVTZ-JKFIT
	 Reference Energy          =    -431.8000236684284232 [Eh]
	 Singles Energy            =      -0.0000000000000000 [Eh]
	 Same-Spin Energy          =      -0.4504153578666712 [Eh]
	 Opposite-Spin Energy      =      -1.3724196658973331 [Eh]
	 Correlation Energy        =      -1.8228350237640043 [Eh]
	 Total Energy              =    -433.6228586921924375 [Eh]

	 ================> DF-SCS-MP2 Energies <==================
	-----------------------------------------------------------
	 SCS Same-Spin Scale       =       0.3333333333333333 [-]
	 SCS Opposite-Spin Scale   =       1.2000000000000000 [-]
	 SCS Same-Spin Energy      =      -0.1501384526222237 [Eh]
	 SCS Opposite-Spin Energy  =      -1.6469035990767997 [Eh]
	 SCS Correlation Energy    =      -1.7970420516990235 [Eh]
	 SCS Total Energy          =    -433.5970657201274321 [Eh]
	-----------------------------------------------------------

  Dipole Moment: [D]
     X:     1.8008      Y:    -5.6788      Z:     0.8306     Total:     6.0151

*** Psi4 exiting successfully. Buy a developer a beer!
