                               Psi4 1.4a3.dev225

  ==> Input File <==

--------------------------------------------------------------------------
#psi4
#
memory 32 gb

molecule  {
0 1
  O       -1.4602810    -1.8042760    -0.0008590
  N       -1.1067000     0.4494610     0.0014260
  N        0.7338450    -1.0777760     0.0056990
  N        2.8872480    -0.2944040    -0.0665390
  C       -0.2576190     1.5082170    -0.0002850
  C        1.0914800     1.3228940    -0.0047970
  C       -0.6316600    -0.8954310    -0.0014820
  C       -2.5563510     0.6193970     0.0049040
  C        1.5710862     0.0047984    -0.0002773
  H       -0.7147670     2.4940890    -0.0022110
  H        1.7746080     2.1637920    -0.0246520
  H       -2.7835150     1.6863950     0.0041520
  H       -2.9802500     0.1433220     0.8903410
  H       -2.9840040     0.1411790    -0.8774920
  H        3.5206970     0.4000120     0.3068300
  H        3.1306380    -1.2574880     0.1361150
units angstrom
no_reorient  #important for SAPT in psi4, default
symmetry c1  #important for SAPT in psi4, default
}

set PROPERTIES_ORIGIN ["COM"]
properties('MP2/aug-cc-pvtz', properties = ['dipole'])
--------------------------------------------------------------------------

    Molecular point group: c1
  Charge       = 0
  Multiplicity = 1
  Basis Set: AUG-CC-PVTZ
    Blend: AUG-CC-PVTZ
  Basis Set: (AUG-CC-PVTZ AUX)
    Blend: AUG-CC-PVTZ-JKFIT

    Orbital Energies [Eh]
    ---------------------

    Doubly Occupied:

       1A    -20.497254     2A    -15.627390     3A    -15.596727
       4A    -15.539144     5A    -11.363798     6A    -11.350913
       7A    -11.332421     8A    -11.273356     9A    -11.242624
      10A     -1.378491    11A     -1.293863    12A     -1.270350
      13A     -1.162099    14A     -1.075760    15A     -0.966392
      16A     -0.901502    17A     -0.851640    18A     -0.761408
      19A     -0.728716    20A     -0.687519    21A     -0.672715
      22A     -0.653772    23A     -0.626009    24A     -0.602975
      25A     -0.585582    26A     -0.574721    27A     -0.565798
      28A     -0.519273    29A     -0.479335    30A     -0.435931
      31A     -0.414408    32A     -0.378684    33A     -0.337034

  @DF-RHF Final Energy:  -431.79803195905083

   => Energetics <=

    Nuclear Repulsion Energy =            441.2020483973429350
    One-Electron Energy =               -1462.5049523317347848
    Two-Electron Energy =                 589.5048719753410751
    Total Energy =                       -431.7980319590508316
  Basis Set: (AUG-CC-PVTZ AUX)
    Blend: AUG-CC-PVTZ-RI
    Molecular point group: c1

    Geometry (in Angstrom), charge = 0, multiplicity = 1:

       Center              X                  Y                   Z               Mass
    ------------   -----------------  -----------------  -----------------  -----------------
         O           -1.471561214621    -1.762334354114     0.002599321968    15.994914619570
         N           -1.117980214621     0.491402645886     0.004884321968    14.003074004430
         N            0.722564785379    -1.035834354114     0.009157321968    14.003074004430
         N            2.875967785379    -0.252462354114    -0.063080678032    14.003074004430
         C           -0.268899214621     1.550158645886     0.003173321968    12.000000000000
         C            1.080199785379     1.364835645886    -0.001338678032    12.000000000000
         C           -0.642940214621    -0.853489354114     0.001976321968    12.000000000000
         C           -2.567631214621     0.661338645886     0.008362321968    12.000000000000
         C            1.559805985379     0.046740045886     0.003181021968    12.000000000000
         H           -0.726047214621     2.536030645886     0.001247321968     1.007825032230
         H            1.763327785379     2.205733645886    -0.021193678032     1.007825032230
         H           -2.794795214621     1.728336645886     0.007610321968     1.007825032230
         H           -2.991530214621     0.185263645886     0.893799321968     1.007825032230
         H           -2.995284214621     0.183120645886    -0.874033678032     1.007825032230
         H            3.509416785379     0.441953645886     0.310288321968     1.007825032230
         H            3.119357785379    -1.215546354114     0.139573321968     1.007825032230

  Basis Set: AUG-CC-PVTZ
    Blend: AUG-CC-PVTZ
  Basis Set: (AUG-CC-PVTZ AUX)
    Blend: AUG-CC-PVTZ-JKFIT
	 Reference Energy          =    -431.7980319590508316 [Eh]
	 Singles Energy            =      -0.0000000000000000 [Eh]
	 Same-Spin Energy          =      -0.4512972619833410 [Eh]
	 Opposite-Spin Energy      =      -1.3729529108836784 [Eh]
	 Correlation Energy        =      -1.8242501728670195 [Eh]
	 Total Energy              =    -433.6222821319178706 [Eh]

	 ================> DF-SCS-MP2 Energies <==================
	-----------------------------------------------------------
	 SCS Same-Spin Scale       =       0.3333333333333333 [-]
	 SCS Opposite-Spin Scale   =       1.2000000000000000 [-]
	 SCS Same-Spin Energy      =      -0.1504324206611136 [Eh]
	 SCS Opposite-Spin Energy  =      -1.6475434930604140 [Eh]
	 SCS Correlation Energy    =      -1.7979759137215277 [Eh]
	 SCS Total Energy          =    -433.5960078727723612 [Eh]
	-----------------------------------------------------------

  Dipole Moment: [D]
     X:     2.0196      Y:     5.7838      Z:     0.7599     Total:     6.1733

*** Psi4 exiting successfully. Buy a developer a beer!
