                               Psi4 1.3.2 release

  ==> Input File <==

--------------------------------------------------------------------------
#psi4
#
memory 32 gb

molecule  {
0 1
  O       -1.4243350     1.8531120    -0.0084660
  N       -1.1176450    -0.4263010     0.0065070
  N        0.7429240     1.0712790     0.0095610
  N        2.8919430     0.2615640    -0.0759850
  C       -0.2702643    -1.5195846    -0.0008787
  C        1.0765330    -1.3300920    -0.0040440
  C       -0.6338910     0.9109410     0.0155220
  C       -2.5617390    -0.6507120     0.0005160
  C        1.5612255     0.0164663    -0.0003056
  H       -0.7522370    -2.4720050    -0.0099570
  H        1.7553550    -2.1750520    -0.0313920
  H       -2.8635010    -1.2105310     0.8892080
  H       -2.8583950    -1.1972750    -0.8980640
  H       -3.0263160     0.3321150     0.0069490
  H        3.5027140    -0.4263080     0.3467730
  H        3.1453740     1.2255370     0.1175850
units angstrom
no_reorient  #important for SAPT in psi4, default
symmetry c1  #important for SAPT in psi4, default
}

set PROPERTIES_ORIGIN ["COM"]
properties('MP2/aug-cc-pvtz', properties = ['dipole'])
--------------------------------------------------------------------------

    Molecular point group: c1
  Charge       = 0
  Multiplicity = 1
  Basis Set: AUG-CC-PVTZ
    Blend: AUG-CC-PVTZ
  Basis Set: (AUG-CC-PVTZ AUX)
    Blend: AUG-CC-PVTZ-JKFIT

    Orbital Energies [Eh]
    ---------------------

    Doubly Occupied:

       1A    -20.500314     2A    -15.622500     3A    -15.596808
       4A    -15.542062     5A    -11.369423     6A    -11.351824
       7A    -11.327739     8A    -11.267881     9A    -11.247989
      10A     -1.378028    11A     -1.294494    12A     -1.266666
      13A     -1.168052    14A     -1.072472    15A     -0.961936
      16A     -0.900007    17A     -0.851989    18A     -0.759496
      19A     -0.727869    20A     -0.686415    21A     -0.676754
      22A     -0.651332    23A     -0.623395    24A     -0.606060
      25A     -0.588629    26A     -0.578359    27A     -0.555159
      28A     -0.524335    29A     -0.472786    30A     -0.436728
      31A     -0.417348    32A     -0.384515    33A     -0.338880

  @DF-RHF Final Energy:  -431.79812221946327

   => Energetics <=

    Nuclear Repulsion Energy =            440.1985740174870330
    One-Electron Energy =               -1460.4969046132357562
    Two-Electron Energy =                 588.5002083762853999
    Total Energy =                       -431.7981222194632664
  Basis Set: (AUG-CC-PVTZ AUX)
    Blend: AUG-CC-PVTZ-RI
    Molecular point group: c1

    Geometry (in Angstrom), charge = 0, multiplicity = 1:

       Center              X                  Y                   Z               Mass
    ------------   -----------------  -----------------  -----------------  -----------------
         O           -1.435717711623     1.809219913255    -0.005105011252    15.994914619570
         N           -1.129027711623    -0.470193086745     0.009867988748    14.003074004430
         N            0.731541288377     1.027386913255     0.012921988748    14.003074004430
         N            2.880560288377     0.217671913255    -0.072624011252    14.003074004430
         C           -0.281647011623    -1.563476686745     0.002482288748    12.000000000000
         C            1.065150288377    -1.373984086745    -0.000683011252    12.000000000000
         C           -0.645273711623     0.867048913255     0.018882988748    12.000000000000
         C           -2.573121711623    -0.694604086745     0.003876988748    12.000000000000
         C            1.549842788377    -0.027425786745     0.003055388748    12.000000000000
         H           -0.763619711623    -2.515897086745    -0.006596011252     1.007825032230
         H            1.743972288377    -2.218944086745    -0.028031011252     1.007825032230
         H           -2.874883711623    -1.254423086745     0.892568988748     1.007825032230
         H           -2.869777711623    -1.241167086745    -0.894703011252     1.007825032230
         H           -3.037698711623     0.288222913255     0.010309988748     1.007825032230
         H            3.491331288377    -0.470200086745     0.350133988748     1.007825032230
         H            3.133991288377     1.181644913255     0.120945988748     1.007825032230

  Basis Set: AUG-CC-PVTZ
    Blend: AUG-CC-PVTZ
  Basis Set: (AUG-CC-PVTZ AUX)
    Blend: AUG-CC-PVTZ-JKFIT
	 Reference Energy          =    -431.7981222194632664 [Eh]
	 Singles Energy            =      -0.0000000000000000 [Eh]
	 Same-Spin Energy          =      -0.4506380905808667 [Eh]
	 Opposite-Spin Energy      =      -1.3727928612930582 [Eh]
	 Correlation Energy        =      -1.8234309518739249 [Eh]
	 Total Energy              =    -433.6215531713372116 [Eh]

	 ================> DF-SCS-MP2 Energies <==================
	-----------------------------------------------------------
	 SCS Same-Spin Scale       =       0.3333333333333333 [-]
	 SCS Opposite-Spin Scale   =       1.2000000000000000 [-]
	 SCS Same-Spin Energy      =      -0.1502126968602889 [Eh]
	 SCS Opposite-Spin Energy  =      -1.6473514335516699 [Eh]
	 SCS Correlation Energy    =      -1.7975641304119587 [Eh]
	 SCS Total Energy          =    -433.5956863498752227 [Eh]
	-----------------------------------------------------------

  Dipole Moment: [D]
     X:     1.9995      Y:    -5.6933      Z:     0.8251     Total:     6.0903

*** Psi4 exiting successfully. Buy a developer a beer!
