                               Psi4 1.4a3.dev225

  ==> Input File <==

--------------------------------------------------------------------------
#psi4
#
memory 32 gb

molecule  {
0 1
  O       -1.4602810    -1.8042760    -0.0008590
  N       -1.1067000     0.4494610     0.0014260
  N        0.7338450    -1.0777760     0.0056990
  N        2.8872480    -0.2944040    -0.0665390
  C       -0.2576190     1.5082170    -0.0002850
  C        1.0914800     1.3228940    -0.0047970
  C       -0.6316600    -0.8954310    -0.0014820
  C       -2.5563510     0.6193970     0.0049040
  C        1.5404980    -0.0347530    -0.0000590
  H       -0.7147670     2.4940890    -0.0022110
  H        1.7746080     2.1637920    -0.0246520
  H       -2.7939267     1.7352989     0.0041175
  H       -2.9802500     0.1433220     0.8903410
  H       -2.9840040     0.1411790    -0.8774920
  H        3.5206970     0.4000120     0.3068300
  H        3.1306380    -1.2574880     0.1361150
units angstrom
no_reorient  #important for SAPT in psi4, default
symmetry c1  #important for SAPT in psi4, default
}

set PROPERTIES_ORIGIN ["COM"]
properties('MP2/aug-cc-pvtz', properties = ['dipole'])
--------------------------------------------------------------------------

    Molecular point group: c1
  Charge       = 0
  Multiplicity = 1
  Basis Set: AUG-CC-PVTZ
    Blend: AUG-CC-PVTZ
  Basis Set: (AUG-CC-PVTZ AUX)
    Blend: AUG-CC-PVTZ-JKFIT

    Orbital Energies [Eh]
    ---------------------

    Doubly Occupied:

       1A    -20.503358     2A    -15.626666     3A    -15.591749
       4A    -15.542750     5A    -11.369681     6A    -11.349726
       7A    -11.328215     8A    -11.279553     9A    -11.243486
      10A     -1.383532    11A     -1.295694    12A     -1.267952
      13A     -1.171761    14A     -1.072366    15A     -0.961847
      16A     -0.898250    17A     -0.854933    18A     -0.759385
      19A     -0.724374    20A     -0.685665    21A     -0.674325
      22A     -0.655775    23A     -0.622666    24A     -0.601707
      25A     -0.587196    26A     -0.576186    27A     -0.560379
      28A     -0.517377    29A     -0.480516    30A     -0.442844
      31A     -0.418649    32A     -0.385306    33A     -0.337792

  @DF-RHF Final Energy:  -431.80113367316369

   => Energetics <=

    Nuclear Repulsion Energy =            441.3598024835155798
    One-Electron Energy =               -1462.7785468899655825
    Two-Electron Energy =                 589.6176107332863694
    Total Energy =                       -431.8011336731636902
  Basis Set: (AUG-CC-PVTZ AUX)
    Blend: AUG-CC-PVTZ-RI
    Molecular point group: c1

    Geometry (in Angstrom), charge = 0, multiplicity = 1:

       Center              X                  Y                   Z               Mass
    ------------   -----------------  -----------------  -----------------  -----------------
         O           -1.468542224880    -1.758933315203     0.002578653068    15.994914619570
         N           -1.114961224880     0.494803684797     0.004863653068    14.003074004430
         N            0.725583775120    -1.032433315203     0.009136653068    14.003074004430
         N            2.878986775120    -0.249061315203    -0.063101346932    14.003074004430
         C           -0.265880224880     1.553559684797     0.003152653068    12.000000000000
         C            1.083218775120     1.368236684797    -0.001359346932    12.000000000000
         C           -0.639921224880    -0.850088315203     0.001955653068    12.000000000000
         C           -2.564612224880     0.664739684797     0.008341653068    12.000000000000
         C            1.532236775120     0.010589684797     0.003378653068    12.000000000000
         H           -0.723028224880     2.539431684797     0.001226653068     1.007825032230
         H            1.766346775120     2.209134684797    -0.021214346932     1.007825032230
         H           -2.802187924880     1.780641584797     0.007555153068     1.007825032230
         H           -2.988511224880     0.188664684797     0.893778653068     1.007825032230
         H           -2.992265224880     0.186521684797    -0.874054346932     1.007825032230
         H            3.512435775120     0.445354684797     0.310267653068     1.007825032230
         H            3.122376775120    -1.212145315203     0.139552653068     1.007825032230

  Basis Set: AUG-CC-PVTZ
    Blend: AUG-CC-PVTZ
  Basis Set: (AUG-CC-PVTZ AUX)
    Blend: AUG-CC-PVTZ-JKFIT
	 Reference Energy          =    -431.8011336731636902 [Eh]
	 Singles Energy            =      -0.0000000000000000 [Eh]
	 Same-Spin Energy          =      -0.4504322526644104 [Eh]
	 Opposite-Spin Energy      =      -1.3722611474624551 [Eh]
	 Correlation Energy        =      -1.8226934001268655 [Eh]
	 Total Energy              =    -433.6238270732905562 [Eh]

	 ================> DF-SCS-MP2 Energies <==================
	-----------------------------------------------------------
	 SCS Same-Spin Scale       =       0.3333333333333333 [-]
	 SCS Opposite-Spin Scale   =       1.2000000000000000 [-]
	 SCS Same-Spin Energy      =      -0.1501440842214701 [Eh]
	 SCS Opposite-Spin Energy  =      -1.6467133769549460 [Eh]
	 SCS Correlation Energy    =      -1.7968574611764161 [Eh]
	 SCS Total Energy          =    -433.5979911343401341 [Eh]
	-----------------------------------------------------------

  Dipole Moment: [D]
     X:     1.8228      Y:     5.5859      Z:     0.7691     Total:     5.9259

*** Psi4 exiting successfully. Buy a developer a beer!
