                               Psi4 1.3.2 release

  ==> Input File <==

--------------------------------------------------------------------------
#psi4
#
memory 32 gb

molecule  {
0 1
  O       -1.4243350     1.8531120    -0.0084660
  N       -1.1176450    -0.4263010     0.0065070
  N        0.7429240     1.0712790     0.0095610
  N        2.8919430     0.2615640    -0.0759850
  C       -0.2733660    -1.4960510    -0.0007800
  C        1.0765330    -1.3300920    -0.0040440
  C       -0.8325466     0.8878064     0.0163821
  C       -2.5617390    -0.6507120     0.0005160
  C        1.5376510     0.0247200    -0.0002060
  H       -0.7522370    -2.4720050    -0.0099570
  H        1.7553550    -2.1750520    -0.0313920
  H       -2.8635010    -1.2105310     0.8892080
  H       -2.8583950    -1.1972750    -0.8980640
  H       -3.0263160     0.3321150     0.0069490
  H        3.5027140    -0.4263080     0.3467730
  H        3.1453740     1.2255370     0.1175850
units angstrom
no_reorient  #important for SAPT in psi4, default
symmetry c1  #important for SAPT in psi4, default
}

set PROPERTIES_ORIGIN ["COM"]
properties('MP2/aug-cc-pvtz', properties = ['dipole'])
--------------------------------------------------------------------------

    Molecular point group: c1
  Charge       = 0
  Multiplicity = 1
  Basis Set: AUG-CC-PVTZ
    Blend: AUG-CC-PVTZ
  Basis Set: (AUG-CC-PVTZ AUX)
    Blend: AUG-CC-PVTZ-JKFIT

    Orbital Energies [Eh]
    ---------------------

    Doubly Occupied:

       1A    -20.533335     2A    -15.628893     3A    -15.573651
       4A    -15.527989     5A    -11.374528     6A    -11.322553
       7A    -11.322274     8A    -11.276117     9A    -11.246033
      10A     -1.450978    11A     -1.320099    12A     -1.254856
      13A     -1.128022    14A     -1.070743    15A     -0.970301
      16A     -0.916559    17A     -0.820962    18A     -0.749190
      19A     -0.717998    20A     -0.683586    21A     -0.672639
      22A     -0.667769    23A     -0.652314    24A     -0.595554
      25A     -0.586127    26A     -0.582022    27A     -0.573103
      28A     -0.538179    29A     -0.486098    30A     -0.461472
      31A     -0.385630    32A     -0.371183    33A     -0.336040

  @DF-RHF Final Energy:  -431.75906236848226

   => Energetics <=

    Nuclear Repulsion Energy =            441.0722876200731548
    One-Electron Energy =               -1462.0691015157915444
    Two-Electron Energy =                 589.2377515272360142
    Total Energy =                       -431.7590623684823186
  Basis Set: (AUG-CC-PVTZ AUX)
    Blend: AUG-CC-PVTZ-RI
    Molecular point group: c1

    Geometry (in Angstrom), charge = 0, multiplicity = 1:

       Center              X                  Y                   Z               Mass
    ------------   -----------------  -----------------  -----------------  -----------------
         O           -1.414096049002     1.808389645356    -0.005206569788    15.994914619570
         N           -1.107406049002    -0.471023354644     0.009766430212    14.003074004430
         N            0.753162950998     1.026556645356     0.012820430212    14.003074004430
         N            2.902181950998     0.216841645356    -0.072725569788    14.003074004430
         C           -0.263127049002    -1.540773354644     0.002479430212    12.000000000000
         C            1.086771950998    -1.374814354644    -0.000784569788    12.000000000000
         C           -0.822307649002     0.843084045356     0.019641530212    12.000000000000
         C           -2.551500049002    -0.695434354644     0.003775430212    12.000000000000
         C            1.547889950998    -0.020002354644     0.003053430212    12.000000000000
         H           -0.741998049002    -2.516727354644    -0.006697569788     1.007825032230
         H            1.765593950998    -2.219774354644    -0.028132569788     1.007825032230
         H           -2.853262049002    -1.255253354644     0.892467430212     1.007825032230
         H           -2.848156049002    -1.241997354644    -0.894804569788     1.007825032230
         H           -3.016077049002     0.287392645356     0.010208430212     1.007825032230
         H            3.512952950998    -0.471030354644     0.350032430212     1.007825032230
         H            3.155612950998     1.180814645356     0.120844430212     1.007825032230

  Basis Set: AUG-CC-PVTZ
    Blend: AUG-CC-PVTZ
  Basis Set: (AUG-CC-PVTZ AUX)
    Blend: AUG-CC-PVTZ-JKFIT
	 Reference Energy          =    -431.7590623684822617 [Eh]
	 Singles Energy            =      -0.0000000000000000 [Eh]
	 Same-Spin Energy          =      -0.4500791975768608 [Eh]
	 Opposite-Spin Energy      =      -1.3747732674776518 [Eh]
	 Correlation Energy        =      -1.8248524650545126 [Eh]
	 Total Energy              =    -433.5839148335367668 [Eh]

	 ================> DF-SCS-MP2 Energies <==================
	-----------------------------------------------------------
	 SCS Same-Spin Scale       =       0.3333333333333333 [-]
	 SCS Opposite-Spin Scale   =       1.2000000000000000 [-]
	 SCS Same-Spin Energy      =      -0.1500263991922869 [Eh]
	 SCS Opposite-Spin Energy  =      -1.6497279209731821 [Eh]
	 SCS Correlation Energy    =      -1.7997543201654691 [Eh]
	 SCS Total Energy          =    -433.5588166886477097 [Eh]
	-----------------------------------------------------------

  Dipole Moment: [D]
     X:     0.2896      Y:    -5.2403      Z:     0.8413     Total:     5.3153

*** Psi4 exiting successfully. Buy a developer a beer!
