                               Psi4 1.3.2 release

  ==> Input File <==

--------------------------------------------------------------------------
#psi4
#
memory 32 gb

molecule  {
0 1
  O       -1.4243350     1.8531120    -0.0084660
  N       -1.1176450    -0.4263010     0.0065070
  N        0.7429240     1.0712790     0.0095610
  N        2.8919430     0.2615640    -0.0759850
  C       -0.2733660    -1.4960510    -0.0007800
  C        1.0765330    -1.3300920    -0.0040440
  C       -0.6338910     0.9109410     0.0155220
  C       -2.5617390    -0.6507120     0.0005160
  C        1.5376510     0.0247200    -0.0002060
  H       -0.7522370    -2.4720050    -0.0099570
  H        1.7553550    -2.1750520    -0.0313920
  H       -2.8911144    -1.2617585     0.9705298
  H       -2.8583950    -1.1972750    -0.8980640
  H       -3.0263160     0.3321150     0.0069490
  H        3.5027140    -0.4263080     0.3467730
  H        3.1453740     1.2255370     0.1175850
units angstrom
no_reorient  #important for SAPT in psi4, default
symmetry c1  #important for SAPT in psi4, default
}

set PROPERTIES_ORIGIN ["COM"]
properties('MP2/aug-cc-pvtz', properties = ['dipole'])
--------------------------------------------------------------------------

    Molecular point group: c1
  Charge       = 0
  Multiplicity = 1
  Basis Set: AUG-CC-PVTZ
    Blend: AUG-CC-PVTZ
  Basis Set: (AUG-CC-PVTZ AUX)
    Blend: AUG-CC-PVTZ-JKFIT

    Orbital Energies [Eh]
    ---------------------

    Doubly Occupied:

       1A    -20.504268     2A    -15.626551     3A    -15.591990
       4A    -15.544117     5A    -11.373009     6A    -11.349812
       7A    -11.327489     8A    -11.282102     9A    -11.246542
      10A     -1.383265    11A     -1.296552    12A     -1.267854
      13A     -1.171084    14A     -1.072683    15A     -0.959448
      16A     -0.899436    17A     -0.852864    18A     -0.759426
      19A     -0.723612    20A     -0.685012    21A     -0.674624
      22A     -0.650164    23A     -0.622507    24A     -0.601960
      25A     -0.592587    26A     -0.571801    27A     -0.557878
      28A     -0.520118    29A     -0.474584    30A     -0.441423
      31A     -0.420363    32A     -0.387991    33A     -0.339395

  @DF-RHF Final Energy:  -431.79452247276402

   => Energetics <=

    Nuclear Repulsion Energy =            440.4784013665268958
    One-Electron Energy =               -1461.0008270520211227
    Two-Electron Energy =                 588.7279032127302116
    Total Energy =                       -431.7945224727640152
  Basis Set: (AUG-CC-PVTZ AUX)
    Blend: AUG-CC-PVTZ-RI
    Molecular point group: c1

    Geometry (in Angstrom), charge = 0, multiplicity = 1:

       Center              X                  Y                   Z               Mass
    ------------   -----------------  -----------------  -----------------  -----------------
         O           -1.432935471873     1.806582602261    -0.005779395384    15.994914619570
         N           -1.126245471873    -0.472830397739     0.009193604616    14.003074004430
         N            0.734323528127     1.024749602261     0.012247604616    14.003074004430
         N            2.883342528127     0.215034602261    -0.073298395384    14.003074004430
         C           -0.281966471873    -1.542580397739     0.001906604616    12.000000000000
         C            1.067932528127    -1.376621397739    -0.001357395384    12.000000000000
         C           -0.642491471873     0.864411602261     0.018208604616    12.000000000000
         C           -2.570339471873    -0.697241397739     0.003202604616    12.000000000000
         C            1.529050528127    -0.021809397739     0.002480604616    12.000000000000
         H           -0.760837471873    -2.518534397739    -0.007270395384     1.007825032230
         H            1.746754528127    -2.221581397739    -0.028705395384     1.007825032230
         H           -2.899714871873    -1.308287897739     0.973216404616     1.007825032230
         H           -2.866995471873    -1.243804397739    -0.895377395384     1.007825032230
         H           -3.034916471873     0.285585602261     0.009635604616     1.007825032230
         H            3.494113528127    -0.472837397739     0.349459604616     1.007825032230
         H            3.136773528127     1.179007602261     0.120271604616     1.007825032230

  Basis Set: AUG-CC-PVTZ
    Blend: AUG-CC-PVTZ
  Basis Set: (AUG-CC-PVTZ AUX)
    Blend: AUG-CC-PVTZ-JKFIT
	 Reference Energy          =    -431.7945224727640152 [Eh]
	 Singles Energy            =      -0.0000000000000000 [Eh]
	 Same-Spin Energy          =      -0.4503757748089253 [Eh]
	 Opposite-Spin Energy      =      -1.3728264658574354 [Eh]
	 Correlation Energy        =      -1.8232022406663608 [Eh]
	 Total Energy              =    -433.6177247134303911 [Eh]

	 ================> DF-SCS-MP2 Energies <==================
	-----------------------------------------------------------
	 SCS Same-Spin Scale       =       0.3333333333333333 [-]
	 SCS Opposite-Spin Scale   =       1.2000000000000000 [-]
	 SCS Same-Spin Energy      =      -0.1501252582696418 [Eh]
	 SCS Opposite-Spin Energy  =      -1.6473917590289224 [Eh]
	 SCS Correlation Energy    =      -1.7975170172985642 [Eh]
	 SCS Total Energy          =    -433.5920394900625752 [Eh]
	-----------------------------------------------------------

  Dipole Moment: [D]
     X:     1.7667      Y:    -5.5992      Z:     0.7945     Total:     5.9248

*** Psi4 exiting successfully. Buy a developer a beer!
