                               Psi4 1.3.2 release

  ==> Input File <==

--------------------------------------------------------------------------
#psi4
#
memory 32 gb

molecule  {
0 1
  O       -1.4243350     1.8531120    -0.0084660
  N       -1.1176450    -0.4263010     0.0065070
  N        0.7429240     1.0712790     0.0095610
  N        2.8919430     0.2615640    -0.0759850
  C       -0.2733660    -1.4960510    -0.0007800
  C        0.8780281    -1.3544965    -0.0035640
  C       -0.6338910     0.9109410     0.0155220
  C       -2.5617390    -0.6507120     0.0005160
  C        1.5376510     0.0247200    -0.0002060
  H       -0.7522370    -2.4720050    -0.0099570
  H        1.7553550    -2.1750520    -0.0313920
  H       -2.8635010    -1.2105310     0.8892080
  H       -2.8583950    -1.1972750    -0.8980640
  H       -3.0263160     0.3321150     0.0069490
  H        3.5027140    -0.4263080     0.3467730
  H        3.1453740     1.2255370     0.1175850
units angstrom
no_reorient  #important for SAPT in psi4, default
symmetry c1  #important for SAPT in psi4, default
}

set PROPERTIES_ORIGIN ["COM"]
properties('MP2/aug-cc-pvtz', properties = ['dipole'])
--------------------------------------------------------------------------

    Molecular point group: c1
  Charge       = 0
  Multiplicity = 1
  Basis Set: AUG-CC-PVTZ
    Blend: AUG-CC-PVTZ
  Basis Set: (AUG-CC-PVTZ AUX)
    Blend: AUG-CC-PVTZ-JKFIT

    Orbital Energies [Eh]
    ---------------------

    Doubly Occupied:

       1A    -20.502360     2A    -15.606037     3A    -15.604273
       4A    -15.547788     5A    -11.370038     6A    -11.362517
       7A    -11.281799     8A    -11.261609     9A    -11.244126
      10A     -1.380075    11A     -1.298725    12A     -1.267372
      13A     -1.175317    14A     -1.108692    15A     -0.953713
      16A     -0.880206    17A     -0.859588    18A     -0.766602
      19A     -0.727954    20A     -0.687716    21A     -0.670833
      22A     -0.653071    23A     -0.620771    24A     -0.607687
      25A     -0.579256    26A     -0.562242    27A     -0.546888
      28A     -0.521788    29A     -0.498794    30A     -0.436998
      31A     -0.411632    32A     -0.389450    33A     -0.355593

  @DF-RHF Final Energy:  -431.73372859438877

   => Energetics <=

    Nuclear Repulsion Energy =            443.1027089373253602
    One-Electron Energy =               -1466.1898556887374525
    Two-Electron Energy =                 591.3534181570232704
    Total Energy =                       -431.7337285943888219
  Basis Set: (AUG-CC-PVTZ AUX)
    Blend: AUG-CC-PVTZ-RI
    Molecular point group: c1

    Geometry (in Angstrom), charge = 0, multiplicity = 1:

       Center              X                  Y                   Z               Mass
    ------------   -----------------  -----------------  -----------------  -----------------
         O           -1.414110509387     1.808511498327    -0.005170097377    15.994914619570
         N           -1.107420509387    -0.470901501673     0.009802902623    14.003074004430
         N            0.753148490613     1.026678498327     0.012856902623    14.003074004430
         N            2.902167490613     0.216963498327    -0.072689097377    14.003074004430
         C           -0.263141509387    -1.540651501673     0.002515902623    12.000000000000
         C            0.888252590613    -1.399097001673    -0.000268097377    12.000000000000
         C           -0.623666509387     0.866340498327     0.018817902623    12.000000000000
         C           -2.551514509387    -0.695312501673     0.003811902623    12.000000000000
         C            1.547875490613    -0.019880501673     0.003089902623    12.000000000000
         H           -0.742012509387    -2.516605501673    -0.006661097377     1.007825032230
         H            1.765579490613    -2.219652501673    -0.028096097377     1.007825032230
         H           -2.853276509387    -1.255131501673     0.892503902623     1.007825032230
         H           -2.848170509387    -1.241875501673    -0.894768097377     1.007825032230
         H           -3.016091509387     0.287514498327     0.010244902623     1.007825032230
         H            3.512938490613    -0.470908501673     0.350068902623     1.007825032230
         H            3.155598490613     1.180936498327     0.120880902623     1.007825032230

  Basis Set: AUG-CC-PVTZ
    Blend: AUG-CC-PVTZ
  Basis Set: (AUG-CC-PVTZ AUX)
    Blend: AUG-CC-PVTZ-JKFIT
	 Reference Energy          =    -431.7337285943887650 [Eh]
	 Singles Energy            =      -0.0000000000000000 [Eh]
	 Same-Spin Energy          =      -0.4484563414406949 [Eh]
	 Opposite-Spin Energy      =      -1.3702481659266108 [Eh]
	 Correlation Energy        =      -1.8187045073673056 [Eh]
	 Total Energy              =    -433.5524331017560939 [Eh]

	 ================> DF-SCS-MP2 Energies <==================
	-----------------------------------------------------------
	 SCS Same-Spin Scale       =       0.3333333333333333 [-]
	 SCS Opposite-Spin Scale   =       1.2000000000000000 [-]
	 SCS Same-Spin Energy      =      -0.1494854471468983 [Eh]
	 SCS Opposite-Spin Energy  =      -1.6442977991119330 [Eh]
	 SCS Correlation Energy    =      -1.7937832462588312 [Eh]
	 SCS Total Energy          =    -433.5275118406476054 [Eh]
	-----------------------------------------------------------

  Dipole Moment: [D]
     X:     2.3904      Y:    -5.3942      Z:     0.8385     Total:     5.9594

*** Psi4 exiting successfully. Buy a developer a beer!
