                               Psi4 1.4a3.dev225

  ==> Input File <==

--------------------------------------------------------------------------
#psi4
#
memory 32 gb

molecule  {
0 1
  O       -1.4602810    -1.8042760    -0.0008590
  N       -1.1067000     0.4494610     0.0014260
  N        0.7338450    -1.0777760     0.0056990
  N        2.8872480    -0.2944040    -0.0665390
  C       -0.2576190     1.5082170    -0.0002850
  C        1.0914800     1.3228940    -0.0047970
  C       -0.6653470    -0.9323794    -0.0014567
  C       -2.5563510     0.6193970     0.0049040
  C        1.5404980    -0.0347530    -0.0000590
  H       -0.7147670     2.4940890    -0.0022110
  H        1.7746080     2.1637920    -0.0246520
  H       -2.7835150     1.6863950     0.0041520
  H       -2.9802500     0.1433220     0.8903410
  H       -2.9840040     0.1411790    -0.8774920
  H        3.5206970     0.4000120     0.3068300
  H        3.1306380    -1.2574880     0.1361150
units angstrom
no_reorient  #important for SAPT in psi4, default
symmetry c1  #important for SAPT in psi4, default
}

set PROPERTIES_ORIGIN ["COM"]
properties('MP2/aug-cc-pvtz', properties = ['dipole'])
--------------------------------------------------------------------------

    Molecular point group: c1
  Charge       = 0
  Multiplicity = 1
  Basis Set: AUG-CC-PVTZ
    Blend: AUG-CC-PVTZ
  Basis Set: (AUG-CC-PVTZ AUX)
    Blend: AUG-CC-PVTZ-JKFIT

    Orbital Energies [Eh]
    ---------------------

    Doubly Occupied:

       1A    -20.517189     2A    -15.620283     3A    -15.587544
       4A    -15.537855     5A    -11.370976     6A    -11.344861
       7A    -11.324609     8A    -11.271865     9A    -11.238506
      10A     -1.411052    11A     -1.299786    12A     -1.262948
      13A     -1.162091    14A     -1.068612    15A     -0.960317
      16A     -0.892238    17A     -0.849578    18A     -0.755355
      19A     -0.721984    20A     -0.682937    21A     -0.671894
      22A     -0.654040    23A     -0.634392    24A     -0.602070
      25A     -0.589712    26A     -0.575049    27A     -0.567046
      28A     -0.527764    29A     -0.483518    30A     -0.456232
      31A     -0.409972    32A     -0.381937    33A     -0.335265

  @DF-RHF Final Energy:  -431.80138989059913

   => Energetics <=

    Nuclear Repulsion Energy =            441.3773484685843300
    One-Electron Energy =               -1462.8185195952767117
    Two-Electron Energy =                 589.6397812360931994
    Total Energy =                       -431.8013898905991255
  Basis Set: (AUG-CC-PVTZ AUX)
    Blend: AUG-CC-PVTZ-RI
    Molecular point group: c1

    Geometry (in Angstrom), charge = 0, multiplicity = 1:

       Center              X                  Y                   Z               Mass
    ------------   -----------------  -----------------  -----------------  -----------------
         O           -1.465393702138    -1.754993832864     0.002575947384    15.994914619570
         N           -1.111812702138     0.498743167136     0.004860947384    14.003074004430
         N            0.728732297862    -1.028493832864     0.009133947384    14.003074004430
         N            2.882135297862    -0.245121832864    -0.063104052616    14.003074004430
         C           -0.262731702138     1.557499167136     0.003149947384    12.000000000000
         C            1.086367297862     1.372176167136    -0.001362052616    12.000000000000
         C           -0.670459702138    -0.883097232864     0.001978247384    12.000000000000
         C           -2.561463702138     0.668679167136     0.008338947384    12.000000000000
         C            1.535385297862     0.014529167136     0.003375947384    12.000000000000
         H           -0.719879702138     2.543371167136     0.001223947384     1.007825032230
         H            1.769495297862     2.213074167136    -0.021217052616     1.007825032230
         H           -2.788627702138     1.735677167136     0.007586947384     1.007825032230
         H           -2.985362702138     0.192604167136     0.893775947384     1.007825032230
         H           -2.989116702138     0.190461167136    -0.874057052616     1.007825032230
         H            3.515584297862     0.449294167136     0.310264947384     1.007825032230
         H            3.125525297862    -1.208205832864     0.139549947384     1.007825032230

  Basis Set: AUG-CC-PVTZ
    Blend: AUG-CC-PVTZ
  Basis Set: (AUG-CC-PVTZ AUX)
    Blend: AUG-CC-PVTZ-JKFIT
	 Reference Energy          =    -431.8013898905991255 [Eh]
	 Singles Energy            =      -0.0000000000000000 [Eh]
	 Same-Spin Energy          =      -0.4496154641283187 [Eh]
	 Opposite-Spin Energy      =      -1.3706887265925793 [Eh]
	 Correlation Energy        =      -1.8203041907208979 [Eh]
	 Total Energy              =    -433.6216940813200154 [Eh]

	 ================> DF-SCS-MP2 Energies <==================
	-----------------------------------------------------------
	 SCS Same-Spin Scale       =       0.3333333333333333 [-]
	 SCS Opposite-Spin Scale   =       1.2000000000000000 [-]
	 SCS Same-Spin Energy      =      -0.1498718213761062 [Eh]
	 SCS Opposite-Spin Energy  =      -1.6448264719110952 [Eh]
	 SCS Correlation Energy    =      -1.7946982932872013 [Eh]
	 SCS Total Energy          =    -433.5960881838863088 [Eh]
	-----------------------------------------------------------

  Dipole Moment: [D]
     X:     1.4313      Y:     5.1910      Z:     0.7682     Total:     5.4392

*** Psi4 exiting successfully. Buy a developer a beer!
