                               Psi4 1.3.2 release

  ==> Input File <==

--------------------------------------------------------------------------
#psi4
#
memory 32 gb

molecule  {
0 1
  O       -1.4243350     1.8531120    -0.0084660
  N       -1.1176450    -0.4263010     0.0065070
  N        0.7429240     1.0712790     0.0095610
  N        2.8919430     0.2615640    -0.0759850
  C       -0.2114142    -1.5745474    -0.0013147
  C        1.0765330    -1.3300920    -0.0040440
  C       -0.6338910     0.9109410     0.0155220
  C       -2.5617390    -0.6507120     0.0005160
  C        1.5376510     0.0247200    -0.0002060
  H       -0.7522370    -2.4720050    -0.0099570
  H        1.7553550    -2.1750520    -0.0313920
  H       -2.8635010    -1.2105310     0.8892080
  H       -2.8583950    -1.1972750    -0.8980640
  H       -3.0263160     0.3321150     0.0069490
  H        3.5027140    -0.4263080     0.3467730
  H        3.1453740     1.2255370     0.1175850
units angstrom
no_reorient  #important for SAPT in psi4, default
symmetry c1  #important for SAPT in psi4, default
}

set PROPERTIES_ORIGIN ["COM"]
properties('MP2/aug-cc-pvtz', properties = ['dipole'])
--------------------------------------------------------------------------

    Molecular point group: c1
  Charge       = 0
  Multiplicity = 1
  Basis Set: AUG-CC-PVTZ
    Blend: AUG-CC-PVTZ
  Basis Set: (AUG-CC-PVTZ AUX)
    Blend: AUG-CC-PVTZ-JKFIT

    Orbital Energies [Eh]
    ---------------------

    Doubly Occupied:

       1A    -20.499732     2A    -15.613318     3A    -15.597005
       4A    -15.546938     5A    -11.368418     6A    -11.355515
       7A    -11.323364     8A    -11.262977     9A    -11.251752
      10A     -1.374561    11A     -1.292694    12A     -1.247641
      13A     -1.170635    14A     -1.087551    15A     -0.954298
      16A     -0.897723    17A     -0.850724    18A     -0.758107
      19A     -0.727280    20A     -0.682691    21A     -0.675487
      22A     -0.643236    23A     -0.629398    24A     -0.612242
      25A     -0.585256    26A     -0.578407    27A     -0.543677
      28A     -0.520992    29A     -0.469183    30A     -0.440596
      31A     -0.418406    32A     -0.387178    33A     -0.348695

  @DF-RHF Final Energy:  -431.78883276577972

   => Energetics <=

    Nuclear Repulsion Energy =            439.5598144281270834
    One-Electron Energy =               -1459.2659387136338864
    Two-Electron Energy =                 587.9172915197270868
    Total Energy =                       -431.7888327657797163
  Basis Set: (AUG-CC-PVTZ AUX)
    Blend: AUG-CC-PVTZ-RI
    Molecular point group: c1

    Geometry (in Angstrom), charge = 0, multiplicity = 1:

       Center              X                  Y                   Z               Mass
    ------------   -----------------  -----------------  -----------------  -----------------
         O           -1.439102573955     1.813701874530    -0.005072732065    15.994914619570
         N           -1.132412573955    -0.465711125470     0.009900267935    14.003074004430
         N            0.728156426045     1.031868874530     0.012954267935    14.003074004430
         N            2.877175426045     0.222153874530    -0.072591732065    14.003074004430
         C           -0.226181773955    -1.613957525470     0.002078567935    12.000000000000
         C            1.061765426045    -1.369502125470    -0.000650732065    12.000000000000
         C           -0.648658573955     0.871530874530     0.018915267935    12.000000000000
         C           -2.576506573955    -0.690122125470     0.003909267935    12.000000000000
         C            1.522883426045    -0.014690125470     0.003187267935    12.000000000000
         H           -0.767004573955    -2.511415125470    -0.006563732065     1.007825032230
         H            1.740587426045    -2.214462125470    -0.027998732065     1.007825032230
         H           -2.878268573955    -1.249941125470     0.892601267935     1.007825032230
         H           -2.873162573955    -1.236685125470    -0.894670732065     1.007825032230
         H           -3.041083573955     0.292704874530     0.010342267935     1.007825032230
         H            3.487946426045    -0.465718125470     0.350166267935     1.007825032230
         H            3.130606426045     1.186126874530     0.120978267935     1.007825032230

  Basis Set: AUG-CC-PVTZ
    Blend: AUG-CC-PVTZ
  Basis Set: (AUG-CC-PVTZ AUX)
    Blend: AUG-CC-PVTZ-JKFIT
	 Reference Energy          =    -431.7888327657797163 [Eh]
	 Singles Energy            =      -0.0000000000000000 [Eh]
	 Same-Spin Energy          =      -0.4497303948091518 [Eh]
	 Opposite-Spin Energy      =      -1.3730217571324750 [Eh]
	 Correlation Energy        =      -1.8227521519416268 [Eh]
	 Total Energy              =    -433.6115849177213590 [Eh]

	 ================> DF-SCS-MP2 Energies <==================
	-----------------------------------------------------------
	 SCS Same-Spin Scale       =       0.3333333333333333 [-]
	 SCS Opposite-Spin Scale   =       1.2000000000000000 [-]
	 SCS Same-Spin Energy      =      -0.1499101316030506 [Eh]
	 SCS Opposite-Spin Energy  =      -1.6476261085589698 [Eh]
	 SCS Correlation Energy    =      -1.7975362401620205 [Eh]
	 SCS Total Energy          =    -433.5863690059417195 [Eh]
	-----------------------------------------------------------

  Dipole Moment: [D]
     X:     2.1702      Y:    -5.7523      Z:     0.8329     Total:     6.2042

*** Psi4 exiting successfully. Buy a developer a beer!
