                               Psi4 1.3.2 release

  ==> Input File <==

--------------------------------------------------------------------------
#psi4
#
memory 32 gb

molecule  {
0 1
  O       -1.4243350     1.8531120    -0.0084660
  N       -1.1176450    -0.4263010     0.0065070
  N        0.7429240     1.0712790     0.0095610
  N        2.8919430     0.2615640    -0.0759850
  C       -0.2733660    -1.4960510    -0.0007800
  C        1.0765330    -1.3300920    -0.0040440
  C       -0.6338910     0.9109410     0.0155220
  C       -2.5617390    -0.6507120     0.0005160
  C        1.4771761     0.1043581     0.0005372
  H       -0.7522370    -2.4720050    -0.0099570
  H        1.7553550    -2.1750520    -0.0313920
  H       -2.8635010    -1.2105310     0.8892080
  H       -2.8583950    -1.1972750    -0.8980640
  H       -3.0263160     0.3321150     0.0069490
  H        3.5027140    -0.4263080     0.3467730
  H        3.1453740     1.2255370     0.1175850
units angstrom
no_reorient  #important for SAPT in psi4, default
symmetry c1  #important for SAPT in psi4, default
}

set PROPERTIES_ORIGIN ["COM"]
properties('MP2/aug-cc-pvtz', properties = ['dipole'])
--------------------------------------------------------------------------

    Molecular point group: c1
  Charge       = 0
  Multiplicity = 1
  Basis Set: AUG-CC-PVTZ
    Blend: AUG-CC-PVTZ
  Basis Set: (AUG-CC-PVTZ AUX)
    Blend: AUG-CC-PVTZ-JKFIT

    Orbital Energies [Eh]
    ---------------------

    Doubly Occupied:

       1A    -20.515368     2A    -15.624337     3A    -15.580101
       4A    -15.548797     5A    -11.383706     6A    -11.343443
       7A    -11.319140     8A    -11.271660     9A    -11.247216
      10A     -1.394240    11A     -1.308006    12A     -1.270431
      13A     -1.178635    14A     -1.065697    15A     -0.966109
      16A     -0.894016    17A     -0.861992    18A     -0.755360
      19A     -0.718109    20A     -0.688073    21A     -0.668658
      22A     -0.659446    23A     -0.619682    24A     -0.600913
      25A     -0.595272    26A     -0.588329    27A     -0.558350
      28A     -0.518740    29A     -0.478520    30A     -0.451975
      31A     -0.424785    32A     -0.400688    33A     -0.338774

  @DF-RHF Final Energy:  -431.78898475476831

   => Energetics <=

    Nuclear Repulsion Energy =            441.8181548487264649
    One-Electron Energy =               -1463.5371420028479861
    Two-Electron Energy =                 589.9300023993532704
    Total Energy =                       -431.7889847547683075
  Basis Set: (AUG-CC-PVTZ AUX)
    Blend: AUG-CC-PVTZ-RI
    Molecular point group: c1

    Geometry (in Angstrom), charge = 0, multiplicity = 1:

       Center              X                  Y                   Z               Mass
    ------------   -----------------  -----------------  -----------------  -----------------
         O           -1.427355147257     1.798528113845    -0.005195352675    15.994914619570
         N           -1.120665147257    -0.480884886155     0.009777647325    14.003074004430
         N            0.739903852743     1.016695113845     0.012831647325    14.003074004430
         N            2.888922852743     0.206980113845    -0.072714352675    14.003074004430
         C           -0.276386147257    -1.550634886155     0.002490647325    12.000000000000
         C            1.073512852743    -1.384675886155    -0.000773352675    12.000000000000
         C           -0.636911147257     0.856357113845     0.018792647325    12.000000000000
         C           -2.564759147257    -0.705295886155     0.003786647325    12.000000000000
         C            1.474155952743     0.049774213845     0.003807847325    12.000000000000
         H           -0.755257147257    -2.526588886155    -0.006686352675     1.007825032230
         H            1.752334852743    -2.229635886155    -0.028121352675     1.007825032230
         H           -2.866521147257    -1.265114886155     0.892478647325     1.007825032230
         H           -2.861415147257    -1.251858886155    -0.894793352675     1.007825032230
         H           -3.029336147257     0.277531113845     0.010219647325     1.007825032230
         H            3.499693852743    -0.480891886155     0.350043647325     1.007825032230
         H            3.142353852743     1.170953113845     0.120855647325     1.007825032230

  Basis Set: AUG-CC-PVTZ
    Blend: AUG-CC-PVTZ
  Basis Set: (AUG-CC-PVTZ AUX)
    Blend: AUG-CC-PVTZ-JKFIT
	 Reference Energy          =    -431.7889847547683075 [Eh]
	 Singles Energy            =      -0.0000000000000000 [Eh]
	 Same-Spin Energy          =      -0.4487461096343791 [Eh]
	 Opposite-Spin Energy      =      -1.3707814175617652 [Eh]
	 Correlation Energy        =      -1.8195275271961444 [Eh]
	 Total Energy              =    -433.6085122819644653 [Eh]

	 ================> DF-SCS-MP2 Energies <==================
	-----------------------------------------------------------
	 SCS Same-Spin Scale       =       0.3333333333333333 [-]
	 SCS Opposite-Spin Scale   =       1.2000000000000000 [-]
	 SCS Same-Spin Energy      =      -0.1495820365447930 [Eh]
	 SCS Opposite-Spin Energy  =      -1.6449377010741182 [Eh]
	 SCS Correlation Energy    =      -1.7945197376189113 [Eh]
	 SCS Total Energy          =    -433.5835044923871919 [Eh]
	-----------------------------------------------------------

  Dipole Moment: [D]
     X:     1.2000      Y:    -5.2377      Z:     0.8552     Total:     5.4410

*** Psi4 exiting successfully. Buy a developer a beer!
