                               Psi4 1.3.2 release

  ==> Input File <==

--------------------------------------------------------------------------
#psi4
#
memory 32 gb

molecule  {
0 1
  O       -1.4243350     1.8531120    -0.0084660
  N       -1.1176450    -0.4263010     0.0065070
  N        0.7429240     1.0712790     0.0095610
  N        2.8919430     0.2615640    -0.0759850
  C       -0.2733660    -1.4960510    -0.0007800
  C        1.0765330    -1.3300920    -0.0040440
  C       -0.6338910     0.9109410     0.0155220
  C       -2.5617390    -0.6507120     0.0005160
  C        1.6020917     0.2140533     0.0003304
  H       -0.7522370    -2.4720050    -0.0099570
  H        1.7553550    -2.1750520    -0.0313920
  H       -2.8635010    -1.2105310     0.8892080
  H       -2.8583950    -1.1972750    -0.8980640
  H       -3.0263160     0.3321150     0.0069490
  H        3.5027140    -0.4263080     0.3467730
  H        3.1453740     1.2255370     0.1175850
units angstrom
no_reorient  #important for SAPT in psi4, default
symmetry c1  #important for SAPT in psi4, default
}

set PROPERTIES_ORIGIN ["COM"]
properties('MP2/aug-cc-pvtz', properties = ['dipole'])
--------------------------------------------------------------------------

    Molecular point group: c1
  Charge       = 0
  Multiplicity = 1
  Basis Set: AUG-CC-PVTZ
    Blend: AUG-CC-PVTZ
  Basis Set: (AUG-CC-PVTZ AUX)
    Blend: AUG-CC-PVTZ-JKFIT

    Orbital Energies [Eh]
    ---------------------

    Doubly Occupied:

       1A    -20.512938     2A    -15.611151     3A    -15.603350
       4A    -15.540371     5A    -11.383646     6A    -11.350041
       7A    -11.303754     8A    -11.264185     9A    -11.242009
      10A     -1.387774    11A     -1.321299    12A     -1.272816
      13A     -1.209858    14A     -1.042936    15A     -0.959748
      16A     -0.877457    17A     -0.866184    18A     -0.766857
      19A     -0.749499    20A     -0.694386    21A     -0.669047
      22A     -0.651672    23A     -0.616078    24A     -0.596444
      25A     -0.591652    26A     -0.576303    27A     -0.551168
      28A     -0.535194    29A     -0.470168    30A     -0.442546
      31A     -0.405232    32A     -0.398138    33A     -0.326665

  @DF-RHF Final Energy:  -431.76067894830999

   => Energetics <=

    Nuclear Repulsion Energy =            440.8213504904961724
    One-Electron Energy =               -1461.5829280594334705
    Two-Electron Energy =                 589.0008986206273676
    Total Energy =                       -431.7606789483099874
  Basis Set: (AUG-CC-PVTZ AUX)
    Blend: AUG-CC-PVTZ-RI
    Molecular point group: c1

    Geometry (in Angstrom), charge = 0, multiplicity = 1:

       Center              X                  Y                   Z               Mass
    ------------   -----------------  -----------------  -----------------  -----------------
         O           -1.439341395800     1.788002335390    -0.005175509227    15.994914619570
         N           -1.132651395800    -0.491410664610     0.009797490773    14.003074004430
         N            0.727917604200     1.006169335390     0.012851490773    14.003074004430
         N            2.876936604200     0.196454335390    -0.072694509227    14.003074004430
         C           -0.288372395800    -1.561160664610     0.002510490773    12.000000000000
         C            1.061526604200    -1.395201664610    -0.000753509227    12.000000000000
         C           -0.648897395800     0.845831335390     0.018812490773    12.000000000000
         C           -2.576745395800    -0.715821664610     0.003806490773    12.000000000000
         C            1.587085304200     0.148943635390     0.003620890773    12.000000000000
         H           -0.767243395800    -2.537114664610    -0.006666509227     1.007825032230
         H            1.740348604200    -2.240161664610    -0.028101509227     1.007825032230
         H           -2.878507395800    -1.275640664610     0.892498490773     1.007825032230
         H           -2.873401395800    -1.262384664610    -0.894773509227     1.007825032230
         H           -3.041322395800     0.267005335390     0.010239490773     1.007825032230
         H            3.487707604200    -0.491417664610     0.350063490773     1.007825032230
         H            3.130367604200     1.160427335390     0.120875490773     1.007825032230

  Basis Set: AUG-CC-PVTZ
    Blend: AUG-CC-PVTZ
  Basis Set: (AUG-CC-PVTZ AUX)
    Blend: AUG-CC-PVTZ-JKFIT
	 Reference Energy          =    -431.7606789483099874 [Eh]
	 Singles Energy            =      -0.0000000000000000 [Eh]
	 Same-Spin Energy          =      -0.4488945674040549 [Eh]
	 Opposite-Spin Energy      =      -1.3716635082394792 [Eh]
	 Correlation Energy        =      -1.8205580756435342 [Eh]
	 Total Energy              =    -433.5812370239535198 [Eh]

	 ================> DF-SCS-MP2 Energies <==================
	-----------------------------------------------------------
	 SCS Same-Spin Scale       =       0.3333333333333333 [-]
	 SCS Opposite-Spin Scale   =       1.2000000000000000 [-]
	 SCS Same-Spin Energy      =      -0.1496315224680183 [Eh]
	 SCS Opposite-Spin Energy  =      -1.6459962098873751 [Eh]
	 SCS Correlation Energy    =      -1.7956277323553933 [Eh]
	 SCS Total Energy          =    -433.5563066806653865 [Eh]
	-----------------------------------------------------------

  Dipole Moment: [D]
     X:     2.4751      Y:    -4.6885      Z:     0.8314     Total:     5.3665

*** Psi4 exiting successfully. Buy a developer a beer!
