                               Psi4 1.3.2 release

  ==> Input File <==

--------------------------------------------------------------------------
#psi4
#
memory 32 gb

molecule  {
0 1
  O       -1.4243350     1.8531120    -0.0084660
  N       -1.1176450    -0.4263010     0.0065070
  N        0.7798599     1.0983467     0.0068910
  N        2.8827892     0.3087369    -0.0769004
  C       -0.2733660    -1.4960510    -0.0007800
  C        1.0765330    -1.3300920    -0.0040440
  C       -0.6338910     0.9109410     0.0155220
  C       -2.5617390    -0.6507120     0.0005160
  C        1.5376510     0.0247200    -0.0002060
  H       -0.7522370    -2.4720050    -0.0099570
  H        1.7553550    -2.1750520    -0.0313920
  H       -2.8635010    -1.2105310     0.8892080
  H       -2.8583950    -1.1972750    -0.8980640
  H       -3.0263160     0.3321150     0.0069490
  H        3.5027140    -0.4263080     0.3467730
  H        3.1453740     1.2255370     0.1175850
units angstrom
no_reorient  #important for SAPT in psi4, default
symmetry c1  #important for SAPT in psi4, default
}

set PROPERTIES_ORIGIN ["COM"]
properties('MP2/aug-cc-pvtz', properties = ['dipole'])
--------------------------------------------------------------------------

    Molecular point group: c1
  Charge       = 0
  Multiplicity = 1
  Basis Set: AUG-CC-PVTZ
    Blend: AUG-CC-PVTZ
  Basis Set: (AUG-CC-PVTZ AUX)
    Blend: AUG-CC-PVTZ-JKFIT

    Orbital Energies [Eh]
    ---------------------

    Doubly Occupied:

       1A    -20.507323     2A    -15.627610     3A    -15.587039
       4A    -15.546699     5A    -11.375401     6A    -11.345764
       7A    -11.329073     8A    -11.272196     9A    -11.248456
      10A     -1.382283    11A     -1.296287    12A     -1.268770
      13A     -1.161005    14A     -1.074005    15A     -0.965543
      16A     -0.902344    17A     -0.845745    18A     -0.757811
      19A     -0.724522    20A     -0.686072    21A     -0.664860
      22A     -0.655567    23A     -0.626074    24A     -0.604316
      25A     -0.589862    26A     -0.577539    27A     -0.560487
      28A     -0.521548    29A     -0.477193    30A     -0.447584
      31A     -0.419334    32A     -0.384877    33A     -0.339865

  @DF-RHF Final Energy:  -431.79422088289277

   => Energetics <=

    Nuclear Repulsion Energy =            440.0467753074512984
    One-Electron Energy =               -1460.1358806100508900
    Two-Electron Energy =                 588.2948844197068183
    Total Energy =                       -431.7942208828927733
  Basis Set: (AUG-CC-PVTZ AUX)
    Blend: AUG-CC-PVTZ-RI
    Molecular point group: c1

    Geometry (in Angstrom), charge = 0, multiplicity = 1:

       Center              X                  Y                   Z               Mass
    ------------   -----------------  -----------------  -----------------  -----------------
         O           -1.436268815109     1.797856914850    -0.004722575320    15.994914619570
         N           -1.129578815109    -0.481556085150     0.010250424680    14.003074004430
         N            0.767926084891     1.043091614850     0.010634424680    14.003074004430
         N            2.870855384891     0.253481814850    -0.073156975320    14.003074004430
         C           -0.285299815109    -1.551306085150     0.002963424680    12.000000000000
         C            1.064599184891    -1.385347085150    -0.000300575320    12.000000000000
         C           -0.645824815109     0.855685914850     0.019265424680    12.000000000000
         C           -2.573672815109    -0.705967085150     0.004259424680    12.000000000000
         C            1.525717184891    -0.030535085150     0.003537424680    12.000000000000
         H           -0.764170815109    -2.527260085150    -0.006213575320     1.007825032230
         H            1.743421184891    -2.230307085150    -0.027648575320     1.007825032230
         H           -2.875434815109    -1.265786085150     0.892951424680     1.007825032230
         H           -2.870328815109    -1.252530085150    -0.894320575320     1.007825032230
         H           -3.038249815109     0.276859914850     0.010692424680     1.007825032230
         H            3.490780184891    -0.481563085150     0.350516424680     1.007825032230
         H            3.133440184891     1.170281914850     0.121328424680     1.007825032230

  Basis Set: AUG-CC-PVTZ
    Blend: AUG-CC-PVTZ
  Basis Set: (AUG-CC-PVTZ AUX)
    Blend: AUG-CC-PVTZ-JKFIT
	 Reference Energy          =    -431.7942208828927733 [Eh]
	 Singles Energy            =      -0.0000000000000000 [Eh]
	 Same-Spin Energy          =      -0.4503102613208554 [Eh]
	 Opposite-Spin Energy      =      -1.3731384230253716 [Eh]
	 Correlation Energy        =      -1.8234486843462270 [Eh]
	 Total Energy              =    -433.6176695672389769 [Eh]

	 ================> DF-SCS-MP2 Energies <==================
	-----------------------------------------------------------
	 SCS Same-Spin Scale       =       0.3333333333333333 [-]
	 SCS Opposite-Spin Scale   =       1.2000000000000000 [-]
	 SCS Same-Spin Energy      =      -0.1501034204402851 [Eh]
	 SCS Opposite-Spin Energy  =      -1.6477661076304460 [Eh]
	 SCS Correlation Energy    =      -1.7978695280707311 [Eh]
	 SCS Total Energy          =    -433.5920904109635217 [Eh]
	-----------------------------------------------------------

  Dipole Moment: [D]
     X:     1.4925      Y:    -5.6865      Z:     0.8292     Total:     5.9373

*** Psi4 exiting successfully. Buy a developer a beer!
