                               Psi4 1.3.2 release

  ==> Input File <==

--------------------------------------------------------------------------
#psi4
#
memory 32 gb

molecule  {
0 1
  O       -1.4243350     1.8531120    -0.0084660
  N       -1.1176450    -0.4263010     0.0065070
  N        0.7429240     1.0712790     0.0095610
  N        2.8919430     0.2615640    -0.0759850
  C       -0.2733660    -1.4960510    -0.0007800
  C        1.0765330    -1.3300920    -0.0040440
  C       -0.6338910     0.9109410     0.0155220
  C       -2.5617390    -0.6507120     0.0005160
  C        1.5612168     0.0164710    -0.0009104
  H       -0.7522370    -2.4720050    -0.0099570
  H        1.7699978    -2.1630687    -0.0316308
  H       -2.8635010    -1.2105310     0.8892080
  H       -2.8583950    -1.1972750    -0.8980640
  H       -3.0263160     0.3321150     0.0069490
  H        3.5027140    -0.4263080     0.3467730
  H        3.1453740     1.2255370     0.1175850
units angstrom
no_reorient  #important for SAPT in psi4, default
symmetry c1  #important for SAPT in psi4, default
}

set PROPERTIES_ORIGIN ["COM"]
properties('MP2/aug-cc-pvtz', properties = ['dipole'])
--------------------------------------------------------------------------

    Molecular point group: c1
  Charge       = 0
  Multiplicity = 1
  Basis Set: AUG-CC-PVTZ
    Blend: AUG-CC-PVTZ
  Basis Set: (AUG-CC-PVTZ AUX)
    Blend: AUG-CC-PVTZ-JKFIT

    Orbital Energies [Eh]
    ---------------------

    Doubly Occupied:

       1A    -20.500943     2A    -15.624452     3A    -15.595890
       4A    -15.541213     5A    -11.369814     6A    -11.350260
       7A    -11.327815     8A    -11.269590     9A    -11.245889
      10A     -1.379889    11A     -1.295825    12A     -1.270474
      13A     -1.168071    14A     -1.071625    15A     -0.964605
      16A     -0.899129    17A     -0.852818    18A     -0.760499
      19A     -0.725823    20A     -0.688014    21A     -0.675315
      22A     -0.654126    23A     -0.621462    24A     -0.602776
      25A     -0.589891    26A     -0.578759    27A     -0.558649
      28A     -0.524590    29A     -0.475426    30A     -0.436739
      31A     -0.416948    32A     -0.384670    33A     -0.337907

  @DF-RHF Final Energy:  -431.79955196330292

   => Energetics <=

    Nuclear Repulsion Energy =            440.6740125202452987
    One-Electron Energy =               -1461.4273424671241628
    Two-Electron Energy =                 588.9537779835760603
    Total Energy =                       -431.7995519633028607
  Basis Set: (AUG-CC-PVTZ AUX)
    Blend: AUG-CC-PVTZ-RI
    Molecular point group: c1

    Geometry (in Angstrom), charge = 0, multiplicity = 1:

       Center              X                  Y                   Z               Mass
    ------------   -----------------  -----------------  -----------------  -----------------
         O           -1.435537257314     1.806864729883    -0.005054524098    15.994914619570
         N           -1.128847257314    -0.472548270117     0.009918475902    14.003074004430
         N            0.731721742686     1.025031729883     0.012972475902    14.003074004430
         N            2.880740742686     0.215316729883    -0.072573524098    14.003074004430
         C           -0.284568257314    -1.542298270117     0.002631475902    12.000000000000
         C            1.065330742686    -1.376339270117    -0.000632524098    12.000000000000
         C           -0.645093257314     0.864693729883     0.018933475902    12.000000000000
         C           -2.572941257314    -0.696959270117     0.003927475902    12.000000000000
         C            1.550014542686    -0.029776270117     0.002501075902    12.000000000000
         H           -0.763439257314    -2.518252270117    -0.006545524098     1.007825032230
         H            1.758795542686    -2.209315970117    -0.028219324098     1.007825032230
         H           -2.874703257314    -1.256778270117     0.892619475902     1.007825032230
         H           -2.869597257314    -1.243522270117    -0.894652524098     1.007825032230
         H           -3.037518257314     0.285867729883     0.010360475902     1.007825032230
         H            3.491511742686    -0.472555270117     0.350184475902     1.007825032230
         H            3.134171742686     1.179289729883     0.120996475902     1.007825032230

  Basis Set: AUG-CC-PVTZ
    Blend: AUG-CC-PVTZ
  Basis Set: (AUG-CC-PVTZ AUX)
    Blend: AUG-CC-PVTZ-JKFIT
	 Reference Energy          =    -431.7995519633029176 [Eh]
	 Singles Energy            =      -0.0000000000000000 [Eh]
	 Same-Spin Energy          =      -0.4506477784047889 [Eh]
	 Opposite-Spin Energy      =      -1.3724101178300008 [Eh]
	 Correlation Energy        =      -1.8230578962347896 [Eh]
	 Total Energy              =    -433.6226098595377039 [Eh]

	 ================> DF-SCS-MP2 Energies <==================
	-----------------------------------------------------------
	 SCS Same-Spin Scale       =       0.3333333333333333 [-]
	 SCS Opposite-Spin Scale   =       1.2000000000000000 [-]
	 SCS Same-Spin Energy      =      -0.1502159261349296 [Eh]
	 SCS Opposite-Spin Energy  =      -1.6468921413960009 [Eh]
	 SCS Correlation Energy    =      -1.7971080675309306 [Eh]
	 SCS Total Energy          =    -433.5966600308338457 [Eh]
	-----------------------------------------------------------

  Dipole Moment: [D]
     X:     1.9216      Y:    -5.6645      Z:     0.8243     Total:     6.0381

*** Psi4 exiting successfully. Buy a developer a beer!
