                               Psi4 1.3.2 release

  ==> Input File <==

--------------------------------------------------------------------------
#psi4
#
memory 32 gb

molecule  {
0 1
  O       -1.4077662     1.8667583    -0.0088483
  N       -1.1176450    -0.4263010     0.0065070
  N        0.7399142     1.0952750     0.0089288
  N        2.8919430     0.2615640    -0.0759850
  C       -0.2733660    -1.4960510    -0.0007800
  C        1.0765330    -1.3300920    -0.0040440
  C       -0.6338910     0.9109410     0.0155220
  C       -2.5617390    -0.6507120     0.0005160
  C        1.5376510     0.0247200    -0.0002060
  H       -0.7522370    -2.4720050    -0.0099570
  H        1.7553550    -2.1750520    -0.0313920
  H       -2.8635010    -1.2105310     0.8892080
  H       -2.8583950    -1.1972750    -0.8980640
  H       -3.0263160     0.3321150     0.0069490
  H        3.5027140    -0.4263080     0.3467730
  H        3.1453740     1.2255370     0.1175850
units angstrom
no_reorient  #important for SAPT in psi4, default
symmetry c1  #important for SAPT in psi4, default
}

set PROPERTIES_ORIGIN ["COM"]
properties('MP2/aug-cc-pvtz', properties = ['dipole'])
--------------------------------------------------------------------------

    Molecular point group: c1
  Charge       = 0
  Multiplicity = 1
  Basis Set: AUG-CC-PVTZ
    Blend: AUG-CC-PVTZ
  Basis Set: (AUG-CC-PVTZ AUX)
    Blend: AUG-CC-PVTZ-JKFIT

    Orbital Energies [Eh]
    ---------------------

    Doubly Occupied:

       1A    -20.500882     2A    -15.626859     3A    -15.592862
       4A    -15.544776     5A    -11.369776     6A    -11.351652
       7A    -11.328914     8A    -11.271535     9A    -11.247407
      10A     -1.380659    11A     -1.293864    12A     -1.267023
      13A     -1.166928    14A     -1.073835    15A     -0.965083
      16A     -0.900606    17A     -0.851114    18A     -0.758474
      19A     -0.723661    20A     -0.685512    21A     -0.673955
      22A     -0.655628    23A     -0.621441    24A     -0.602050
      25A     -0.590399    26A     -0.578257    27A     -0.559873
      28A     -0.521275    29A     -0.476552    30A     -0.439020
      31A     -0.420902    32A     -0.385246    33A     -0.339074

  @DF-RHF Final Energy:  -431.79918587728821

   => Energetics <=

    Nuclear Repulsion Energy =            440.3296960157563262
    One-Electron Energy =               -1460.7275782989036088
    Two-Electron Energy =                 588.5986964058590729
    Total Energy =                       -431.7991858772882097
  Basis Set: (AUG-CC-PVTZ AUX)
    Blend: AUG-CC-PVTZ-RI
    Molecular point group: c1

    Geometry (in Angstrom), charge = 0, multiplicity = 1:

       Center              X                  Y                   Z               Mass
    ------------   -----------------  -----------------  -----------------  -----------------
         O           -1.418371323610     1.815383845519    -0.005386654697    15.994914619570
         N           -1.128250123610    -0.477675454481     0.009968645303    14.003074004430
         N            0.729309076390     1.043900545519     0.012390445303    14.003074004430
         N            2.881337876390     0.210189545519    -0.072523354697    14.003074004430
         C           -0.283971123610    -1.547425454481     0.002681645303    12.000000000000
         C            1.065927876390    -1.381466454481    -0.000582354697    12.000000000000
         C           -0.644496123610     0.859566545519     0.018983645303    12.000000000000
         C           -2.572344123610    -0.702086454481     0.003977645303    12.000000000000
         C            1.527045876390    -0.026654454481     0.003255645303    12.000000000000
         H           -0.762842123610    -2.523379454481    -0.006495354697     1.007825032230
         H            1.744749876390    -2.226426454481    -0.027930354697     1.007825032230
         H           -2.874106123610    -1.261905454481     0.892669645303     1.007825032230
         H           -2.869000123610    -1.248649454481    -0.894602354697     1.007825032230
         H           -3.036921123610     0.280740545519     0.010410645303     1.007825032230
         H            3.492108876390    -0.477682454481     0.350234645303     1.007825032230
         H            3.134768876390     1.174162545519     0.121046645303     1.007825032230

  Basis Set: AUG-CC-PVTZ
    Blend: AUG-CC-PVTZ
  Basis Set: (AUG-CC-PVTZ AUX)
    Blend: AUG-CC-PVTZ-JKFIT
	 Reference Energy          =    -431.7991858772882097 [Eh]
	 Singles Energy            =      -0.0000000000000000 [Eh]
	 Same-Spin Energy          =      -0.4505181779761612 [Eh]
	 Opposite-Spin Energy      =      -1.3726760488602983 [Eh]
	 Correlation Energy        =      -1.8231942268364594 [Eh]
	 Total Energy              =    -433.6223801041246588 [Eh]

	 ================> DF-SCS-MP2 Energies <==================
	-----------------------------------------------------------
	 SCS Same-Spin Scale       =       0.3333333333333333 [-]
	 SCS Opposite-Spin Scale   =       1.2000000000000000 [-]
	 SCS Same-Spin Energy      =      -0.1501727259920537 [Eh]
	 SCS Opposite-Spin Energy  =      -1.6472112586323580 [Eh]
	 SCS Correlation Energy    =      -1.7973839846244117 [Eh]
	 SCS Total Energy          =    -433.5965698619125988 [Eh]
	-----------------------------------------------------------

  Dipole Moment: [D]
     X:     1.7199      Y:    -5.7425      Z:     0.8311     Total:     6.0519

*** Psi4 exiting successfully. Buy a developer a beer!
