                               Psi4 1.3.2 release

  ==> Input File <==

--------------------------------------------------------------------------
#psi4
#
memory 32 gb

molecule  {
0 1
  O       -1.4243350     1.8531120    -0.0084660
  N       -1.0797964    -0.3974874     0.0065235
  N        0.7429240     1.0712790     0.0095610
  N        2.8919430     0.2615640    -0.0759850
  C       -0.2733660    -1.4960510    -0.0007800
  C        1.0699194    -1.2830826    -0.0038142
  C       -0.6338910     0.9109410     0.0155220
  C       -2.5617390    -0.6507120     0.0005160
  C        1.5376510     0.0247200    -0.0002060
  H       -0.7522370    -2.4720050    -0.0099570
  H        1.7553550    -2.1750520    -0.0313920
  H       -2.8635010    -1.2105310     0.8892080
  H       -2.8583950    -1.1972750    -0.8980640
  H       -3.0263160     0.3321150     0.0069490
  H        3.5027140    -0.4263080     0.3467730
  H        3.1453740     1.2255370     0.1175850
units angstrom
no_reorient  #important for SAPT in psi4, default
symmetry c1  #important for SAPT in psi4, default
}

set PROPERTIES_ORIGIN ["COM"]
properties('MP2/aug-cc-pvtz', properties = ['dipole'])
--------------------------------------------------------------------------

    Molecular point group: c1
  Charge       = 0
  Multiplicity = 1
  Basis Set: AUG-CC-PVTZ
    Blend: AUG-CC-PVTZ
  Basis Set: (AUG-CC-PVTZ AUX)
    Blend: AUG-CC-PVTZ-JKFIT

    Orbital Energies [Eh]
    ---------------------

    Doubly Occupied:

       1A    -20.497672     2A    -15.627402     3A    -15.589017
       4A    -15.540269     5A    -11.366612     6A    -11.342972
       7A    -11.329978     8A    -11.275132     9A    -11.246422
      10A     -1.384205    11A     -1.297038    12A     -1.265700
      13A     -1.167757    14A     -1.074567    15A     -0.967322
      16A     -0.910861    17A     -0.851313    18A     -0.761664
      19A     -0.727367    20A     -0.680015    21A     -0.668523
      22A     -0.656020    23A     -0.625604    24A     -0.604531
      25A     -0.586299    26A     -0.580907    27A     -0.552879
      28A     -0.523984    29A     -0.475854    30A     -0.437336
      31A     -0.418163    32A     -0.387201    33A     -0.339237

  @DF-RHF Final Energy:  -431.79456443637184

   => Energetics <=

    Nuclear Repulsion Energy =            442.3685814697571459
    One-Electron Energy =               -1464.8066433265305477
    Two-Electron Energy =                 590.6434974204015589
    Total Energy =                       -431.7945644363718429
  Basis Set: (AUG-CC-PVTZ AUX)
    Blend: AUG-CC-PVTZ-RI
    Molecular point group: c1

    Geometry (in Angstrom), charge = 0, multiplicity = 1:

       Center              X                  Y                   Z               Mass
    ------------   -----------------  -----------------  -----------------  -----------------
         O           -1.436761372925     1.798432682236    -0.005147937027    15.994914619570
         N           -1.092222772925    -0.452166717764     0.009841562973    14.003074004430
         N            0.730497627075     1.016599682236     0.012879062973    14.003074004430
         N            2.879516627075     0.206884682236    -0.072666937027    14.003074004430
         C           -0.285792372925    -1.550730317764     0.002538062973    12.000000000000
         C            1.057493027075    -1.337761917764    -0.000496137027    12.000000000000
         C           -0.646317372925     0.856261682236     0.018840062973    12.000000000000
         C           -2.574165372925    -0.705391317764     0.003834062973    12.000000000000
         C            1.525224627075    -0.029959317764     0.003112062973    12.000000000000
         H           -0.764663372925    -2.526684317764    -0.006638937027     1.007825032230
         H            1.742928627075    -2.229731317764    -0.028073937027     1.007825032230
         H           -2.875927372925    -1.265210317764     0.892526062973     1.007825032230
         H           -2.870821372925    -1.251954317764    -0.894745937027     1.007825032230
         H           -3.038742372925     0.277435682236     0.010267062973     1.007825032230
         H            3.490287627075    -0.480987317764     0.350091062973     1.007825032230
         H            3.132947627075     1.170857682236     0.120903062973     1.007825032230

  Basis Set: AUG-CC-PVTZ
    Blend: AUG-CC-PVTZ
  Basis Set: (AUG-CC-PVTZ AUX)
    Blend: AUG-CC-PVTZ-JKFIT
	 Reference Energy          =    -431.7945644363718429 [Eh]
	 Singles Energy            =      -0.0000000000000000 [Eh]
	 Same-Spin Energy          =      -0.4511190636465475 [Eh]
	 Opposite-Spin Energy      =      -1.3728788196422683 [Eh]
	 Correlation Energy        =      -1.8239978832888157 [Eh]
	 Total Energy              =    -433.6185623196606684 [Eh]

	 ================> DF-SCS-MP2 Energies <==================
	-----------------------------------------------------------
	 SCS Same-Spin Scale       =       0.3333333333333333 [-]
	 SCS Opposite-Spin Scale   =       1.2000000000000000 [-]
	 SCS Same-Spin Energy      =      -0.1503730212155158 [Eh]
	 SCS Opposite-Spin Energy  =      -1.6474545835707219 [Eh]
	 SCS Correlation Energy    =      -1.7978276047862378 [Eh]
	 SCS Total Energy          =    -433.5923920411580639 [Eh]
	-----------------------------------------------------------

  Dipole Moment: [D]
     X:     1.5588      Y:    -5.8970      Z:     0.8378     Total:     6.1568

*** Psi4 exiting successfully. Buy a developer a beer!
