                               Psi4 1.3.2 release

  ==> Input File <==

--------------------------------------------------------------------------
#psi4
#
memory 32 gb

molecule  {
0 1
  O       -1.4077762     1.8667699    -0.0080623
  N       -1.0942422    -0.4345411     0.0071590
  N        0.7429240     1.0712790     0.0095610
  N        2.8919430     0.2615640    -0.0759850
  C       -0.2733660    -1.4960510    -0.0007800
  C        1.0765330    -1.3300920    -0.0040440
  C       -0.6338910     0.9109410     0.0155220
  C       -2.5617390    -0.6507120     0.0005160
  C        1.5376510     0.0247200    -0.0002060
  H       -0.7522370    -2.4720050    -0.0099570
  H        1.7553550    -2.1750520    -0.0313920
  H       -2.8635010    -1.2105310     0.8892080
  H       -2.8583950    -1.1972750    -0.8980640
  H       -3.0263160     0.3321150     0.0069490
  H        3.5027140    -0.4263080     0.3467730
  H        3.1453740     1.2255370     0.1175850
units angstrom
no_reorient  #important for SAPT in psi4, default
symmetry c1  #important for SAPT in psi4, default
}

set PROPERTIES_ORIGIN ["COM"]
properties('MP2/aug-cc-pvtz', properties = ['dipole'])
--------------------------------------------------------------------------

    Molecular point group: c1
  Charge       = 0
  Multiplicity = 1
  Basis Set: AUG-CC-PVTZ
    Blend: AUG-CC-PVTZ
  Basis Set: (AUG-CC-PVTZ AUX)
    Blend: AUG-CC-PVTZ-JKFIT

    Orbital Energies [Eh]
    ---------------------

    Doubly Occupied:

       1A    -20.504991     2A    -15.627455     3A    -15.589741
       4A    -15.541556     5A    -11.372739     6A    -11.347063
       7A    -11.325613     8A    -11.274193     9A    -11.243443
      10A     -1.383094    11A     -1.298473    12A     -1.268066
      13A     -1.168792    14A     -1.071252    15A     -0.965580
      16A     -0.901596    17A     -0.854170    18A     -0.758782
      19A     -0.724898    20A     -0.683650    21A     -0.672690
      22A     -0.656066    23A     -0.621820    24A     -0.600505
      25A     -0.589726    26A     -0.579996    27A     -0.563408
      28A     -0.521929    29A     -0.480459    30A     -0.440206
      31A     -0.419066    32A     -0.386528    33A     -0.337630

  @DF-RHF Final Energy:  -431.80012185061400

   => Energetics <=

    Nuclear Repulsion Energy =            441.0384983246853494
    One-Electron Energy =               -1462.1268866863026687
    Two-Electron Energy =                 589.2882665110032576
    Total Energy =                       -431.8001218506140049
  Basis Set: (AUG-CC-PVTZ AUX)
    Blend: AUG-CC-PVTZ-RI
    Molecular point group: c1

    Geometry (in Angstrom), charge = 0, multiplicity = 1:

       Center              X                  Y                   Z               Mass
    ------------   -----------------  -----------------  -----------------  -----------------
         O           -1.421337511520     1.819003496686    -0.004844977553    15.994914619570
         N           -1.107803511520    -0.482307503314     0.010376322447    14.003074004430
         N            0.729362688480     1.023512596686     0.012778322447    14.003074004430
         N            2.878381688480     0.213797596686    -0.072767677553    14.003074004430
         C           -0.286927311520    -1.543817403314     0.002437322447    12.000000000000
         C            1.062971688480    -1.377858403314    -0.000826677553    12.000000000000
         C           -0.647452311520     0.863174596686     0.018739322447    12.000000000000
         C           -2.575300311520    -0.698478403314     0.003733322447    12.000000000000
         C            1.524089688480    -0.023046403314     0.003011322447    12.000000000000
         H           -0.765798311520    -2.519771403314    -0.006739677553     1.007825032230
         H            1.741793688480    -2.222818403314    -0.028174677553     1.007825032230
         H           -2.877062311520    -1.258297403314     0.892425322447     1.007825032230
         H           -2.871956311520    -1.245041403314    -0.894846677553     1.007825032230
         H           -3.039877311520     0.284348596686     0.010166322447     1.007825032230
         H            3.489152688480    -0.474074403314     0.349990322447     1.007825032230
         H            3.131812688480     1.177770596686     0.120802322447     1.007825032230

  Basis Set: AUG-CC-PVTZ
    Blend: AUG-CC-PVTZ
  Basis Set: (AUG-CC-PVTZ AUX)
    Blend: AUG-CC-PVTZ-JKFIT
	 Reference Energy          =    -431.8001218506140049 [Eh]
	 Singles Energy            =      -0.0000000000000000 [Eh]
	 Same-Spin Energy          =      -0.4504944568060510 [Eh]
	 Opposite-Spin Energy      =      -1.3722364107894154 [Eh]
	 Correlation Energy        =      -1.8227308675954665 [Eh]
	 Total Energy              =    -433.6228527182094581 [Eh]

	 ================> DF-SCS-MP2 Energies <==================
	-----------------------------------------------------------
	 SCS Same-Spin Scale       =       0.3333333333333333 [-]
	 SCS Opposite-Spin Scale   =       1.2000000000000000 [-]
	 SCS Same-Spin Energy      =      -0.1501648189353503 [Eh]
	 SCS Opposite-Spin Energy  =      -1.6466836929472983 [Eh]
	 SCS Correlation Energy    =      -1.7968485118826487 [Eh]
	 SCS Total Energy          =    -433.5969703624966769 [Eh]
	-----------------------------------------------------------

  Dipole Moment: [D]
     X:     1.5264      Y:    -5.6517      Z:     0.8316     Total:     5.9130

*** Psi4 exiting successfully. Buy a developer a beer!
