                               Psi4 1.4a3.dev225

  ==> Input File <==

--------------------------------------------------------------------------
#psi4
#
memory 32 gb

molecule  {
0 1
  O       -1.4602810    -1.8042760    -0.0008590
  N       -1.1067000     0.4494610     0.0014260
  N        0.7338450    -1.0777760     0.0056990
  N        2.8872480    -0.2944040    -0.0665390
  C       -0.2576190     1.5082170    -0.0002850
  C        1.0914800     1.3228940    -0.0047970
  C       -0.6249990    -0.9142891    -0.0015228
  C       -2.5563510     0.6193970     0.0049040
  C        1.5404980    -0.0347530    -0.0000590
  H       -0.7147670     2.4940890    -0.0022110
  H        1.7746080     2.1637920    -0.0246520
  H       -2.7835150     1.6863950     0.0041520
  H       -2.9802500     0.1433220     0.8903410
  H       -2.9840040     0.1411790    -0.8774920
  H        3.5206970     0.4000120     0.3068300
  H        3.1306380    -1.2574880     0.1361150
units angstrom
no_reorient  #important for SAPT in psi4, default
symmetry c1  #important for SAPT in psi4, default
}

set PROPERTIES_ORIGIN ["COM"]
properties('MP2/aug-cc-pvtz', properties = ['dipole'])
--------------------------------------------------------------------------

    Molecular point group: c1
  Charge       = 0
  Multiplicity = 1
  Basis Set: AUG-CC-PVTZ
    Blend: AUG-CC-PVTZ
  Basis Set: (AUG-CC-PVTZ AUX)
    Blend: AUG-CC-PVTZ-JKFIT

    Orbital Energies [Eh]
    ---------------------

    Doubly Occupied:

       1A    -20.505518     2A    -15.623602     3A    -15.591837
       4A    -15.541642     5A    -11.369999     6A    -11.350435
       7A    -11.327196     8A    -11.272304     9A    -11.241548
      10A     -1.386400    11A     -1.296879    12A     -1.266007
      13A     -1.173246    14A     -1.071217    15A     -0.962852
      16A     -0.894058    17A     -0.857235    18A     -0.758716
      19A     -0.723915    20A     -0.685187    21A     -0.674140
      22A     -0.653027    23A     -0.623570    24A     -0.601854
      25A     -0.591486    26A     -0.576821    27A     -0.565560
      28A     -0.518423    29A     -0.481193    30A     -0.445070
      31A     -0.417187    32A     -0.385470    33A     -0.336638

  @DF-RHF Final Energy:  -431.80341791174135

   => Energetics <=

    Nuclear Repulsion Energy =            441.4766464543353663
    One-Electron Energy =               -1463.0196560869039786
    Two-Electron Energy =                 589.7395917208272067
    Total Energy =                       -431.8034179117413487
  Basis Set: (AUG-CC-PVTZ AUX)
    Blend: AUG-CC-PVTZ-RI
    Molecular point group: c1

    Geometry (in Angstrom), charge = 0, multiplicity = 1:

       Center              X                  Y                   Z               Mass
    ------------   -----------------  -----------------  -----------------  -----------------
         O           -1.469265285480    -1.756729683566     0.002582289995    15.994914619570
         N           -1.115684285480     0.497007316434     0.004867289995    14.003074004430
         N            0.724860714520    -1.030229683566     0.009140289995    14.003074004430
         N            2.878263714520    -0.246857683566    -0.063097710005    14.003074004430
         C           -0.266603285480     1.555763316434     0.003156289995    12.000000000000
         C            1.082495714520     1.370440316434    -0.001355710005    12.000000000000
         C           -0.633983285480    -0.866742783566     0.001918489995    12.000000000000
         C           -2.565335285480     0.666943316434     0.008345289995    12.000000000000
         C            1.531513714520     0.012793316434     0.003382289995    12.000000000000
         H           -0.723751285480     2.541635316434     0.001230289995     1.007825032230
         H            1.765623714520     2.211338316434    -0.021210710005     1.007825032230
         H           -2.792499285480     1.733941316434     0.007593289995     1.007825032230
         H           -2.989234285480     0.190868316434     0.893782289995     1.007825032230
         H           -2.992988285480     0.188725316434    -0.874050710005     1.007825032230
         H            3.511712714520     0.447558316434     0.310271289995     1.007825032230
         H            3.121653714520    -1.209941683566     0.139556289995     1.007825032230

  Basis Set: AUG-CC-PVTZ
    Blend: AUG-CC-PVTZ
  Basis Set: (AUG-CC-PVTZ AUX)
    Blend: AUG-CC-PVTZ-JKFIT
	 Reference Energy          =    -431.8034179117413487 [Eh]
	 Singles Energy            =      -0.0000000000000000 [Eh]
	 Same-Spin Energy          =      -0.4503302824390101 [Eh]
	 Opposite-Spin Energy      =      -1.3715620319184327 [Eh]
	 Correlation Energy        =      -1.8218923143574428 [Eh]
	 Total Energy              =    -433.6253102260988044 [Eh]

	 ================> DF-SCS-MP2 Energies <==================
	-----------------------------------------------------------
	 SCS Same-Spin Scale       =       0.3333333333333333 [-]
	 SCS Opposite-Spin Scale   =       1.2000000000000000 [-]
	 SCS Same-Spin Energy      =      -0.1501100941463367 [Eh]
	 SCS Opposite-Spin Energy  =      -1.6458744383021193 [Eh]
	 SCS Correlation Energy    =      -1.7959845324484560 [Eh]
	 SCS Total Energy          =    -433.5994024441898205 [Eh]
	-----------------------------------------------------------

  Dipole Moment: [D]
     X:     1.7985      Y:     5.4795      Z:     0.7680     Total:     5.8180

*** Psi4 exiting successfully. Buy a developer a beer!
