                               Psi4 1.4a3.dev225

  ==> Input File <==

--------------------------------------------------------------------------
#psi4
#
memory 32 gb

molecule  {
0 1
  O       -1.4602810    -1.8042760    -0.0008590
  N       -1.1067000     0.4494610     0.0014260
  N        0.7338450    -1.0777760     0.0056990
  N        2.8872480    -0.2944040    -0.0665390
  C       -0.2576190     1.5082170    -0.0002850
  C        1.0914800     1.3228940    -0.0047970
  C       -0.6316600    -0.8954310    -0.0014820
  C       -2.5066912     0.6135756     0.0047849
  C        1.5404980    -0.0347530    -0.0000590
  H       -0.7147670     2.4940890    -0.0022110
  H        1.7746080     2.1637920    -0.0246520
  H       -2.7835150     1.6863950     0.0041520
  H       -2.9802500     0.1433220     0.8903410
  H       -2.9840040     0.1411790    -0.8774920
  H        3.5206970     0.4000120     0.3068300
  H        3.1306380    -1.2574880     0.1361150
units angstrom
no_reorient  #important for SAPT in psi4, default
symmetry c1  #important for SAPT in psi4, default
}

set PROPERTIES_ORIGIN ["COM"]
properties('MP2/aug-cc-pvtz', properties = ['dipole'])
--------------------------------------------------------------------------

    Molecular point group: c1
  Charge       = 0
  Multiplicity = 1
  Basis Set: AUG-CC-PVTZ
    Blend: AUG-CC-PVTZ
  Basis Set: (AUG-CC-PVTZ AUX)
    Blend: AUG-CC-PVTZ-JKFIT

    Orbital Energies [Eh]
    ---------------------

    Doubly Occupied:

       1A    -20.504667     2A    -15.627351     3A    -15.592717
       4A    -15.543828     5A    -11.370650     6A    -11.350870
       7A    -11.329519     8A    -11.272620     9A    -11.245126
      10A     -1.386964    11A     -1.298930    12A     -1.273686
      13A     -1.174111    14A     -1.076315    15A     -0.963492
      16A     -0.901487    17A     -0.855380    18A     -0.762029
      19A     -0.726805    20A     -0.693813    21A     -0.676235
      22A     -0.658023    23A     -0.624366    24A     -0.605700
      25A     -0.592340    26A     -0.572810    27A     -0.556566
      28A     -0.514804    29A     -0.478668    30A     -0.443718
      31A     -0.420303    32A     -0.385371    33A     -0.338658

  @DF-RHF Final Energy:  -431.80055973075400

   => Energetics <=

    Nuclear Repulsion Energy =            442.6210010111947213
    One-Electron Energy =               -1465.2072762512220834
    Two-Electron Energy =                 590.7857155092733592
    Total Energy =                       -431.8005597307540029
  Basis Set: (AUG-CC-PVTZ AUX)
    Blend: AUG-CC-PVTZ-RI
    Molecular point group: c1

    Geometry (in Angstrom), charge = 0, multiplicity = 1:

       Center              X                  Y                   Z               Mass
    ------------   -----------------  -----------------  -----------------  -----------------
         O           -1.473391225746    -1.757980617208     0.002589803254    15.994914619570
         N           -1.119810225746     0.495756382792     0.004874803254    14.003074004430
         N            0.720734774254    -1.031480617208     0.009147803254    14.003074004430
         N            2.874137774254    -0.248108617208    -0.063090196746    14.003074004430
         C           -0.270729225746     1.554512382792     0.003163803254    12.000000000000
         C            1.078369774254     1.369189382792    -0.001348196746    12.000000000000
         C           -0.644770225746    -0.849135617208     0.001966803254    12.000000000000
         C           -2.519801425746     0.659870982792     0.008233703254    12.000000000000
         C            1.527387774254     0.011542382792     0.003389803254    12.000000000000
         H           -0.727877225746     2.540384382792     0.001237803254     1.007825032230
         H            1.761497774254     2.210087382792    -0.021203196746     1.007825032230
         H           -2.796625225746     1.732690382792     0.007600803254     1.007825032230
         H           -2.993360225746     0.189617382792     0.893789803254     1.007825032230
         H           -2.997114225746     0.187474382792    -0.874043196746     1.007825032230
         H            3.507586774254     0.446307382792     0.310278803254     1.007825032230
         H            3.117527774254    -1.211192617208     0.139563803254     1.007825032230

  Basis Set: AUG-CC-PVTZ
    Blend: AUG-CC-PVTZ
  Basis Set: (AUG-CC-PVTZ AUX)
    Blend: AUG-CC-PVTZ-JKFIT
	 Reference Energy          =    -431.8005597307540029 [Eh]
	 Singles Energy            =      -0.0000000000000000 [Eh]
	 Same-Spin Energy          =      -0.4508413261346363 [Eh]
	 Opposite-Spin Energy      =      -1.3722008696291341 [Eh]
	 Correlation Energy        =      -1.8230421957637704 [Eh]
	 Total Energy              =    -433.6236019265177788 [Eh]

	 ================> DF-SCS-MP2 Energies <==================
	-----------------------------------------------------------
	 SCS Same-Spin Scale       =       0.3333333333333333 [-]
	 SCS Opposite-Spin Scale   =       1.2000000000000000 [-]
	 SCS Same-Spin Energy      =      -0.1502804420448788 [Eh]
	 SCS Opposite-Spin Energy  =      -1.6466410435549610 [Eh]
	 SCS Correlation Energy    =      -1.7969214855998397 [Eh]
	 SCS Total Energy          =    -433.5974812163538559 [Eh]
	-----------------------------------------------------------

  Dipole Moment: [D]
     X:     1.9574      Y:     5.5754      Z:     0.7686     Total:     5.9587

*** Psi4 exiting successfully. Buy a developer a beer!
