                               Psi4 1.3.2 release

  ==> Input File <==

--------------------------------------------------------------------------
#psi4
#
memory 32 gb

molecule  {
0 1
  O       -1.4243350     1.8531120    -0.0084660
  N       -1.1176450    -0.4263010     0.0065070
  N        0.7429240     1.0712790     0.0095610
  N        2.8919430     0.2615640    -0.0759850
  C       -0.2733660    -1.4960510    -0.0007800
  C        1.0765330    -1.3300920    -0.0040440
  C       -0.6338910     0.9109410     0.0155220
  C       -2.5617390    -0.6507120     0.0005160
  C        1.4392953     0.0075192     0.0052975
  H       -0.7522370    -2.4720050    -0.0099570
  H        1.7553550    -2.1750520    -0.0313920
  H       -2.8635010    -1.2105310     0.8892080
  H       -2.8583950    -1.1972750    -0.8980640
  H       -3.0263160     0.3321150     0.0069490
  H        3.5027140    -0.4263080     0.3467730
  H        3.1453740     1.2255370     0.1175850
units angstrom
no_reorient  #important for SAPT in psi4, default
symmetry c1  #important for SAPT in psi4, default
}

set PROPERTIES_ORIGIN ["COM"]
properties('MP2/aug-cc-pvtz', properties = ['dipole'])
--------------------------------------------------------------------------

    Molecular point group: c1
  Charge       = 0
  Multiplicity = 1
  Basis Set: AUG-CC-PVTZ
    Blend: AUG-CC-PVTZ
  Basis Set: (AUG-CC-PVTZ AUX)
    Blend: AUG-CC-PVTZ-JKFIT

    Orbital Energies [Eh]
    ---------------------

    Doubly Occupied:

       1A    -20.509851     2A    -15.633188     3A    -15.573379
       4A    -15.551547     5A    -11.377663     6A    -11.344488
       7A    -11.332793     8A    -11.275502     9A    -11.246705
      10A     -1.391438    11A     -1.302564    12A     -1.260976
      13A     -1.158573    14A     -1.085195    15A     -0.970504
      16A     -0.908460    17A     -0.853196    18A     -0.758275
      19A     -0.724002    20A     -0.671332    21A     -0.665639
      22A     -0.660758    23A     -0.626312    24A     -0.603455
      25A     -0.593580    26A     -0.583710    27A     -0.560807
      28A     -0.512036    29A     -0.479807    30A     -0.455501
      31A     -0.426476    32A     -0.391573    33A     -0.345245

  @DF-RHF Final Energy:  -431.78820953654741

   => Energetics <=

    Nuclear Repulsion Energy =            441.9585031621827511
    One-Electron Energy =               -1463.8243631656796424
    Two-Electron Energy =                 590.0776504669495353
    Total Energy =                       -431.7882095365473560
  Basis Set: (AUG-CC-PVTZ AUX)
    Blend: AUG-CC-PVTZ-RI
    Molecular point group: c1

    Geometry (in Angstrom), charge = 0, multiplicity = 1:

       Center              X                  Y                   Z               Mass
    ------------   -----------------  -----------------  -----------------  -----------------
         O           -1.423720303540     1.807820268900    -0.005652126200    15.994914619570
         N           -1.117030303540    -0.471592731100     0.009320873800    14.003074004430
         N            0.743538696460     1.025987268900     0.012374873800    14.003074004430
         N            2.892557696460     0.216272268900    -0.073171126200    14.003074004430
         C           -0.272751303540    -1.541342731100     0.002033873800    12.000000000000
         C            1.077147696460    -1.375383731100    -0.001230126200    12.000000000000
         C           -0.633276303540     0.865649268900     0.018335873800    12.000000000000
         C           -2.561124303540    -0.696003731100     0.003329873800    12.000000000000
         C            1.439909996460    -0.037772531100     0.008111373800    12.000000000000
         H           -0.751622303540    -2.517296731100    -0.007143126200     1.007825032230
         H            1.755969696460    -2.220343731100    -0.028578126200     1.007825032230
         H           -2.862886303540    -1.255822731100     0.892021873800     1.007825032230
         H           -2.857780303540    -1.242566731100    -0.895250126200     1.007825032230
         H           -3.025701303540     0.286823268900     0.009762873800     1.007825032230
         H            3.503328696460    -0.471599731100     0.349586873800     1.007825032230
         H            3.145988696460     1.180245268900     0.120398873800     1.007825032230

  Basis Set: AUG-CC-PVTZ
    Blend: AUG-CC-PVTZ
  Basis Set: (AUG-CC-PVTZ AUX)
    Blend: AUG-CC-PVTZ-JKFIT
	 Reference Energy          =    -431.7882095365474129 [Eh]
	 Singles Energy            =      -0.0000000000000000 [Eh]
	 Same-Spin Energy          =      -0.4506088870624705 [Eh]
	 Opposite-Spin Energy      =      -1.3729691186941075 [Eh]
	 Correlation Energy        =      -1.8235780057565780 [Eh]
	 Total Energy              =    -433.6117875423040005 [Eh]

	 ================> DF-SCS-MP2 Energies <==================
	-----------------------------------------------------------
	 SCS Same-Spin Scale       =       0.3333333333333333 [-]
	 SCS Opposite-Spin Scale   =       1.2000000000000000 [-]
	 SCS Same-Spin Energy      =      -0.1502029623541568 [Eh]
	 SCS Opposite-Spin Energy  =      -1.6475629424329290 [Eh]
	 SCS Correlation Energy    =      -1.7977659047870858 [Eh]
	 SCS Total Energy          =    -433.5859754413344831 [Eh]
	-----------------------------------------------------------

  Dipole Moment: [D]
     X:     0.7456      Y:    -5.7387      Z:     0.8605     Total:     5.8505

*** Psi4 exiting successfully. Buy a developer a beer!
