                               Psi4 1.3.2 release

  ==> Input File <==

--------------------------------------------------------------------------
#psi4
#
memory 32 gb

molecule  {
0 1
  O       -1.4243350     1.8531120    -0.0084660
  N       -1.1176450    -0.4263010     0.0065070
  N        0.7429240     1.0712790     0.0095610
  N        2.8919430     0.2615640    -0.0759850
  C       -0.2733660    -1.4960510    -0.0007800
  C        1.0765330    -1.3300920    -0.0040440
  C       -0.6386467     0.9590885     0.0158131
  C       -2.5617390    -0.6507120     0.0005160
  C        1.5736921     0.0530940    -0.0002278
  H       -0.7522370    -2.4720050    -0.0099570
  H        1.7553550    -2.1750520    -0.0313920
  H       -2.8635010    -1.2105310     0.8892080
  H       -2.8583950    -1.1972750    -0.8980640
  H       -3.0263160     0.3321150     0.0069490
  H        3.5027140    -0.4263080     0.3467730
  H        3.1453740     1.2255370     0.1175850
units angstrom
no_reorient  #important for SAPT in psi4, default
symmetry c1  #important for SAPT in psi4, default
}

set PROPERTIES_ORIGIN ["COM"]
properties('MP2/aug-cc-pvtz', properties = ['dipole'])
--------------------------------------------------------------------------

    Molecular point group: c1
  Charge       = 0
  Multiplicity = 1
  Basis Set: AUG-CC-PVTZ
    Blend: AUG-CC-PVTZ
  Basis Set: (AUG-CC-PVTZ AUX)
    Blend: AUG-CC-PVTZ-JKFIT

    Orbital Energies [Eh]
    ---------------------

    Doubly Occupied:

       1A    -20.514254     2A    -15.613358     3A    -15.596942
       4A    -15.537450     5A    -11.374030     6A    -11.350320
       7A    -11.319013     8A    -11.264897     9A    -11.240785
      10A     -1.401880    11A     -1.302407    12A     -1.267588
      13A     -1.172894    14A     -1.060848    15A     -0.955673
      16A     -0.883295    17A     -0.856731    18A     -0.758660
      19A     -0.725976    20A     -0.688321    21A     -0.673391
      22A     -0.648299    23A     -0.631515    24A     -0.597848
      25A     -0.588964    26A     -0.581698    27A     -0.555429
      28A     -0.534217    29A     -0.477725    30A     -0.449271
      31A     -0.408521    32A     -0.386398    33A     -0.333124

  @DF-RHF Final Energy:  -431.79796777919915

   => Energetics <=

    Nuclear Repulsion Energy =            440.3767417255663759
    One-Electron Energy =               -1460.8459727180056689
    Two-Electron Energy =                 588.6712632132401950
    Total Energy =                       -431.7979677791990980
  Basis Set: (AUG-CC-PVTZ AUX)
    Blend: AUG-CC-PVTZ-RI
    Molecular point group: c1

    Geometry (in Angstrom), charge = 0, multiplicity = 1:

       Center              X                  Y                   Z               Mass
    ------------   -----------------  -----------------  -----------------  -----------------
         O           -1.436159986381     1.798827166503    -0.005149879706    15.994914619570
         N           -1.129469986381    -0.480585833497     0.009823120294    14.003074004430
         N            0.731099013619     1.016994166503     0.012877120294    14.003074004430
         N            2.880118013619     0.207279166503    -0.072668879706    14.003074004430
         C           -0.285190986381    -1.550335833497     0.002536120294    12.000000000000
         C            1.064708013619    -1.384376833497    -0.000727879706    12.000000000000
         C           -0.650471686381     0.904803666503     0.019129220294    12.000000000000
         C           -2.573563986381    -0.704996833497     0.003832120294    12.000000000000
         C            1.561867113619    -0.001190833497     0.003088320294    12.000000000000
         H           -0.764061986381    -2.526289833497    -0.006640879706     1.007825032230
         H            1.743530013619    -2.229336833497    -0.028075879706     1.007825032230
         H           -2.875325986381    -1.264815833497     0.892524120294     1.007825032230
         H           -2.870219986381    -1.251559833497    -0.894747879706     1.007825032230
         H           -3.038140986381     0.277830166503     0.010265120294     1.007825032230
         H            3.490889013619    -0.480592833497     0.350089120294     1.007825032230
         H            3.133549013619     1.171252166503     0.120901120294     1.007825032230

  Basis Set: AUG-CC-PVTZ
    Blend: AUG-CC-PVTZ
  Basis Set: (AUG-CC-PVTZ AUX)
    Blend: AUG-CC-PVTZ-JKFIT
	 Reference Energy          =    -431.7979677791991548 [Eh]
	 Singles Energy            =      -0.0000000000000000 [Eh]
	 Same-Spin Energy          =      -0.4495813146666711 [Eh]
	 Opposite-Spin Energy      =      -1.3706933506544181 [Eh]
	 Correlation Energy        =      -1.8202746653210893 [Eh]
	 Total Energy              =    -433.6182424445202628 [Eh]

	 ================> DF-SCS-MP2 Energies <==================
	-----------------------------------------------------------
	 SCS Same-Spin Scale       =       0.3333333333333333 [-]
	 SCS Opposite-Spin Scale   =       1.2000000000000000 [-]
	 SCS Same-Spin Energy      =      -0.1498604382222237 [Eh]
	 SCS Opposite-Spin Energy  =      -1.6448320207853018 [Eh]
	 SCS Correlation Energy    =      -1.7946924590075255 [Eh]
	 SCS Total Energy          =    -433.5926602382066903 [Eh]
	-----------------------------------------------------------

  Dipole Moment: [D]
     X:     1.9302      Y:    -5.0583      Z:     0.8228     Total:     5.4762

*** Psi4 exiting successfully. Buy a developer a beer!
