                               Psi4 1.3.2 release

  ==> Input File <==

--------------------------------------------------------------------------
#psi4
#
memory 32 gb

molecule  {
0 1
  O       -1.4243350     1.8531120    -0.0084660
  N       -1.1176450    -0.4263010     0.0065070
  N        0.7429240     1.0712790     0.0095610
  N        2.8919430     0.2615640    -0.0759850
  C       -0.2733660    -1.4960510    -0.0007800
  C        1.0765330    -1.3300920    -0.0040440
  C       -0.7624115     1.0641313     0.0116217
  C       -2.5617390    -0.6507120     0.0005160
  C        1.5376510     0.0247200    -0.0002060
  H       -0.7522370    -2.4720050    -0.0099570
  H        1.7553550    -2.1750520    -0.0313920
  H       -2.8635010    -1.2105310     0.8892080
  H       -2.8583950    -1.1972750    -0.8980640
  H       -3.0263160     0.3321150     0.0069490
  H        3.5027140    -0.4263080     0.3467730
  H        3.1453740     1.2255370     0.1175850
units angstrom
no_reorient  #important for SAPT in psi4, default
symmetry c1  #important for SAPT in psi4, default
}

set PROPERTIES_ORIGIN ["COM"]
properties('MP2/aug-cc-pvtz', properties = ['dipole'])
--------------------------------------------------------------------------

    Molecular point group: c1
  Charge       = 0
  Multiplicity = 1
  Basis Set: AUG-CC-PVTZ
    Blend: AUG-CC-PVTZ
  Basis Set: (AUG-CC-PVTZ AUX)
    Blend: AUG-CC-PVTZ-JKFIT

    Orbital Energies [Eh]
    ---------------------

    Doubly Occupied:

       1A    -20.562614     2A    -15.599173     3A    -15.575313
       4A    -15.524621     5A    -11.375578     6A    -11.330428
       7A    -11.311500     8A    -11.262912     9A    -11.225752
      10A     -1.546964    11A     -1.283572    12A     -1.245190
      13A     -1.134155    14A     -1.054296    15A     -0.944427
      16A     -0.872728    17A     -0.830615    18A     -0.754351
      19A     -0.731726    20A     -0.691597    21A     -0.674067
      22A     -0.670727    23A     -0.658383    24A     -0.609228
      25A     -0.589854    26A     -0.587288    27A     -0.556774
      28A     -0.545712    29A     -0.487995    30A     -0.474329
      31A     -0.377338    32A     -0.369605    33A     -0.324934

  @DF-RHF Final Energy:  -431.71930306270940

   => Energetics <=

    Nuclear Repulsion Energy =            440.6225797247811897
    One-Electron Energy =               -1461.1162778684870318
    Two-Electron Energy =                 588.7743950809964417
    Total Energy =                       -431.7193030627094004
  Basis Set: (AUG-CC-PVTZ AUX)
    Blend: AUG-CC-PVTZ-RI
    Molecular point group: c1

    Geometry (in Angstrom), charge = 0, multiplicity = 1:

       Center              X                  Y                   Z               Mass
    ------------   -----------------  -----------------  -----------------  -----------------
         O           -1.420825846883     1.791470428896    -0.004749786668    15.994914619570
         N           -1.114135846883    -0.487942571104     0.010223213332    14.003074004430
         N            0.746433153117     1.009637428896     0.013277213332    14.003074004430
         N            2.895452153117     0.199922428896    -0.072268786668    14.003074004430
         C           -0.269856846883    -1.557692571104     0.002936213332    12.000000000000
         C            1.080042153117    -1.391733571104    -0.000327786668    12.000000000000
         C           -0.758902346883     1.002489728896     0.015337913332    12.000000000000
         C           -2.558229846883    -0.712353571104     0.004232213332    12.000000000000
         C            1.541160153117    -0.036921571104     0.003510213332    12.000000000000
         H           -0.748727846883    -2.533646571104    -0.006240786668     1.007825032230
         H            1.758864153117    -2.236693571104    -0.027675786668     1.007825032230
         H           -2.859991846883    -1.272172571104     0.892924213332     1.007825032230
         H           -2.854885846883    -1.258916571104    -0.894347786668     1.007825032230
         H           -3.022806846883     0.270473428896     0.010665213332     1.007825032230
         H            3.506223153117    -0.487949571104     0.350489213332     1.007825032230
         H            3.148883153117     1.163895428896     0.121301213332     1.007825032230

  Basis Set: AUG-CC-PVTZ
    Blend: AUG-CC-PVTZ
  Basis Set: (AUG-CC-PVTZ AUX)
    Blend: AUG-CC-PVTZ-JKFIT
	 Reference Energy          =    -431.7193030627094004 [Eh]
	 Singles Energy            =      -0.0000000000000000 [Eh]
	 Same-Spin Energy          =      -0.4476260968991528 [Eh]
	 Opposite-Spin Energy      =      -1.3683006353520786 [Eh]
	 Correlation Energy        =      -1.8159267322512314 [Eh]
	 Total Energy              =    -433.5352297949606282 [Eh]

	 ================> DF-SCS-MP2 Energies <==================
	-----------------------------------------------------------
	 SCS Same-Spin Scale       =       0.3333333333333333 [-]
	 SCS Opposite-Spin Scale   =       1.2000000000000000 [-]
	 SCS Same-Spin Energy      =      -0.1492086989663843 [Eh]
	 SCS Opposite-Spin Energy  =      -1.6419607624224943 [Eh]
	 SCS Correlation Energy    =      -1.7911694613888787 [Eh]
	 SCS Total Energy          =    -433.5104725240983043 [Eh]
	-----------------------------------------------------------

  Dipole Moment: [D]
     X:     0.1864      Y:    -3.7431      Z:     0.8244     Total:     3.8374

*** Psi4 exiting successfully. Buy a developer a beer!
