                               Psi4 1.3.2 release

  ==> Input File <==

--------------------------------------------------------------------------
#psi4
#
memory 32 gb

molecule  {
0 1
  O       -1.4243350     1.8531120    -0.0084660
  N       -1.1251657    -0.3891736    -0.0599692
  N        0.7429240     1.0712790     0.0095610
  N        2.8919430     0.2615640    -0.0759850
  C       -0.2733660    -1.4960510    -0.0007800
  C        1.0765330    -1.3300920    -0.0040440
  C       -0.6338910     0.9109410     0.0155220
  C       -2.5617390    -0.6507120     0.0005160
  C        1.5376510     0.0247200    -0.0002060
  H       -0.7522370    -2.4720050    -0.0099570
  H        1.7553550    -2.1750520    -0.0313920
  H       -2.9175083    -1.2082500     0.8704647
  H       -2.8583950    -1.1972750    -0.8980640
  H       -3.0263160     0.3321150     0.0069490
  H        3.5027140    -0.4263080     0.3467730
  H        3.1453740     1.2255370     0.1175850
units angstrom
no_reorient  #important for SAPT in psi4, default
symmetry c1  #important for SAPT in psi4, default
}

set PROPERTIES_ORIGIN ["COM"]
properties('MP2/aug-cc-pvtz', properties = ['dipole'])
--------------------------------------------------------------------------

    Molecular point group: c1
  Charge       = 0
  Multiplicity = 1
  Basis Set: AUG-CC-PVTZ
    Blend: AUG-CC-PVTZ
  Basis Set: (AUG-CC-PVTZ AUX)
    Blend: AUG-CC-PVTZ-JKFIT

    Orbital Energies [Eh]
    ---------------------

    Doubly Occupied:

       1A    -20.497996     2A    -15.624842     3A    -15.593150
       4A    -15.544251     5A    -11.367746     6A    -11.350850
       7A    -11.330063     8A    -11.268899     9A    -11.251106
      10A     -1.382548    11A     -1.293162    12A     -1.263782
      13A     -1.170887    14A     -1.074740    15A     -0.965698
      16A     -0.901460    17A     -0.851842    18A     -0.759348
      19A     -0.723939    20A     -0.688245    21A     -0.676414
      22A     -0.652516    23A     -0.621683    24A     -0.606152
      25A     -0.591731    26A     -0.577976    27A     -0.550683
      28A     -0.522728    29A     -0.469901    30A     -0.439338
      31A     -0.419408    32A     -0.388775    33A     -0.342465

  @DF-RHF Final Energy:  -431.79715153491395

   => Energetics <=

    Nuclear Repulsion Energy =            440.9120071471656388
    One-Electron Energy =               -1461.8896672691123513
    Two-Electron Energy =                 589.1805085870327048
    Total Energy =                       -431.7971515349139509
  Basis Set: (AUG-CC-PVTZ AUX)
    Blend: AUG-CC-PVTZ-RI
    Molecular point group: c1

    Geometry (in Angstrom), charge = 0, multiplicity = 1:

       Center              X                  Y                   Z               Mass
    ------------   -----------------  -----------------  -----------------  -----------------
         O           -1.431880662185     1.801994165283     0.002470470583    15.994914619570
         N           -1.132711362185    -0.440291434717    -0.049032729417    14.003074004430
         N            0.735378337815     1.020161165283     0.020497470583    14.003074004430
         N            2.884397337815     0.210446165283    -0.065048529417    14.003074004430
         C           -0.280911662185    -1.547168834717     0.010156470583    12.000000000000
         C            1.068987337815    -1.381209834717     0.006892470583    12.000000000000
         C           -0.641436662185     0.859823165283     0.026458470583    12.000000000000
         C           -2.569284662185    -0.701829834717     0.011452470583    12.000000000000
         C            1.530105337815    -0.026397834717     0.010730470583    12.000000000000
         H           -0.759782662185    -2.523122834717     0.000979470583     1.007825032230
         H            1.747809337815    -2.226169834717    -0.020455529417     1.007825032230
         H           -2.925053962185    -1.259367834717     0.881401170583     1.007825032230
         H           -2.865940662185    -1.248392834717    -0.887127529417     1.007825032230
         H           -3.033861662185     0.280997165283     0.017885470583     1.007825032230
         H            3.495168337815    -0.477425834717     0.357709470583     1.007825032230
         H            3.137828337815     1.174419165283     0.128521470583     1.007825032230

  Basis Set: AUG-CC-PVTZ
    Blend: AUG-CC-PVTZ
  Basis Set: (AUG-CC-PVTZ AUX)
    Blend: AUG-CC-PVTZ-JKFIT
	 Reference Energy          =    -431.7971515349139509 [Eh]
	 Singles Energy            =      -0.0000000000000000 [Eh]
	 Same-Spin Energy          =      -0.4501043327675090 [Eh]
	 Opposite-Spin Energy      =      -1.3721992029561310 [Eh]
	 Correlation Energy        =      -1.8223035357236399 [Eh]
	 Total Energy              =    -433.6194550706375708 [Eh]

	 ================> DF-SCS-MP2 Energies <==================
	-----------------------------------------------------------
	 SCS Same-Spin Scale       =       0.3333333333333333 [-]
	 SCS Opposite-Spin Scale   =       1.2000000000000000 [-]
	 SCS Same-Spin Energy      =      -0.1500347775891697 [Eh]
	 SCS Opposite-Spin Energy  =      -1.6466390435473570 [Eh]
	 SCS Correlation Energy    =      -1.7966738211365267 [Eh]
	 SCS Total Energy          =    -433.5938253560505018 [Eh]
	-----------------------------------------------------------

  Dipole Moment: [D]
     X:     1.8852      Y:    -5.7797      Z:     0.8753     Total:     6.1421

*** Psi4 exiting successfully. Buy a developer a beer!
