                               Psi4 1.3.2 release

  ==> Input File <==

--------------------------------------------------------------------------
#psi4
#
memory 32 gb

molecule  {
0 1
  O       -1.4243350     1.8531120    -0.0084660
  N       -1.1544652    -0.4564160     0.0061792
  N        0.7429240     1.0712790     0.0095610
  N        2.8919430     0.2615640    -0.0759850
  C       -0.2733660    -1.4960510    -0.0007800
  C        1.0765330    -1.3300920    -0.0040440
  C       -0.6338910     0.9109410     0.0155220
  C       -2.5617390    -0.6507120     0.0005160
  C        1.5376510     0.0247200    -0.0002060
  H       -0.7860070    -2.4546981    -0.0098798
  H        1.7553550    -2.1750520    -0.0313920
  H       -2.8635010    -1.2105310     0.8892080
  H       -2.8583950    -1.1972750    -0.8980640
  H       -3.0263160     0.3321150     0.0069490
  H        3.5027140    -0.4263080     0.3467730
  H        3.1453740     1.2255370     0.1175850
units angstrom
no_reorient  #important for SAPT in psi4, default
symmetry c1  #important for SAPT in psi4, default
}

set PROPERTIES_ORIGIN ["COM"]
properties('MP2/aug-cc-pvtz', properties = ['dipole'])
--------------------------------------------------------------------------

    Molecular point group: c1
  Charge       = 0
  Multiplicity = 1
  Basis Set: AUG-CC-PVTZ
    Blend: AUG-CC-PVTZ
  Basis Set: (AUG-CC-PVTZ AUX)
    Blend: AUG-CC-PVTZ-JKFIT

    Orbital Energies [Eh]
    ---------------------

    Doubly Occupied:

       1A    -20.508031     2A    -15.624017     3A    -15.592784
       4A    -15.545635     5A    -11.376501     6A    -11.351003
       7A    -11.327420     8A    -11.266492     9A    -11.245717
      10A     -1.381644    11A     -1.296882    12A     -1.270601
      13A     -1.173234    14A     -1.073643    15A     -0.965657
      16A     -0.892933    17A     -0.854595    18A     -0.758618
      19A     -0.721529    20A     -0.689981    21A     -0.673262
      22A     -0.656784    23A     -0.623509    24A     -0.603298
      25A     -0.595832    26A     -0.580164    27A     -0.558279
      28A     -0.520649    29A     -0.476176    30A     -0.443019
      31A     -0.420450    32A     -0.388909    33A     -0.337741

  @DF-RHF Final Energy:  -431.79723473969409

   => Energetics <=

    Nuclear Repulsion Energy =            440.4090501149070178
    One-Electron Energy =               -1460.8225895069822400
    Two-Electron Energy =                 588.6163046523811317
    Total Energy =                       -431.7972347396940904
  Basis Set: (AUG-CC-PVTZ AUX)
    Blend: AUG-CC-PVTZ-RI
    Molecular point group: c1

    Geometry (in Angstrom), charge = 0, multiplicity = 1:

       Center              X                  Y                   Z               Mass
    ------------   -----------------  -----------------  -----------------  -----------------
         O           -1.428763032234     1.809402328456    -0.005087956861    15.994914619570
         N           -1.158893232234    -0.500125671544     0.009557243139    14.003074004430
         N            0.738495967766     1.027569328456     0.012939043139    14.003074004430
         N            2.887514967766     0.217854328456    -0.072606956861    14.003074004430
         C           -0.277794032234    -1.539760671544     0.002598043139    12.000000000000
         C            1.072104967766    -1.373801671544    -0.000665956861    12.000000000000
         C           -0.638319032234     0.867231328456     0.018900043139    12.000000000000
         C           -2.566167032234    -0.694421671544     0.003894043139    12.000000000000
         C            1.533222967766    -0.018989671544     0.003172043139    12.000000000000
         H           -0.790435032234    -2.498407771544    -0.006501756861     1.007825032230
         H            1.750926967766    -2.218761671544    -0.028013956861     1.007825032230
         H           -2.867929032234    -1.254240671544     0.892586043139     1.007825032230
         H           -2.862823032234    -1.240984671544    -0.894685956861     1.007825032230
         H           -3.030744032234     0.288405328456     0.010327043139     1.007825032230
         H            3.498285967766    -0.470017671544     0.350151043139     1.007825032230
         H            3.140945967766     1.181827328456     0.120963043139     1.007825032230

  Basis Set: AUG-CC-PVTZ
    Blend: AUG-CC-PVTZ
  Basis Set: (AUG-CC-PVTZ AUX)
    Blend: AUG-CC-PVTZ-JKFIT
	 Reference Energy          =    -431.7972347396940904 [Eh]
	 Singles Energy            =      -0.0000000000000000 [Eh]
	 Same-Spin Energy          =      -0.4507855893873594 [Eh]
	 Opposite-Spin Energy      =      -1.3728334447399775 [Eh]
	 Correlation Energy        =      -1.8236190341273368 [Eh]
	 Total Energy              =    -433.6208537738214090 [Eh]

	 ================> DF-SCS-MP2 Energies <==================
	-----------------------------------------------------------
	 SCS Same-Spin Scale       =       0.3333333333333333 [-]
	 SCS Opposite-Spin Scale   =       1.2000000000000000 [-]
	 SCS Same-Spin Energy      =      -0.1502618631291198 [Eh]
	 SCS Opposite-Spin Energy  =      -1.6474001336879729 [Eh]
	 SCS Correlation Energy    =      -1.7976619968170926 [Eh]
	 SCS Total Energy          =    -433.5948967365112026 [Eh]
	-----------------------------------------------------------

  Dipole Moment: [D]
     X:     1.7547      Y:    -5.4405      Z:     0.8312     Total:     5.7765

*** Psi4 exiting successfully. Buy a developer a beer!
