                               Psi4 1.3.2 release

  ==> Input File <==

--------------------------------------------------------------------------
#psi4
#
memory 32 gb

molecule  {
0 1
  O       -1.4243350     1.8531120    -0.0084660
  N       -1.1176450    -0.4263010     0.0065070
  N        0.7429240     1.0712790     0.0095610
  N        2.8919430     0.2615640    -0.0759850
  C       -0.2733660    -1.4960510    -0.0007800
  C        1.0765330    -1.3300920    -0.0040440
  C       -0.5053705     0.7577507     0.0194223
  C       -2.5617390    -0.6507120     0.0005160
  C        1.5376510     0.0247200    -0.0002060
  H       -0.7522370    -2.4720050    -0.0099570
  H        1.7553550    -2.1750520    -0.0313920
  H       -2.8635010    -1.2105310     0.8892080
  H       -2.8583950    -1.1972750    -0.8980640
  H       -3.0263160     0.3321150     0.0069490
  H        3.5027140    -0.4263080     0.3467730
  H        3.1453740     1.2255370     0.1175850
units angstrom
no_reorient  #important for SAPT in psi4, default
symmetry c1  #important for SAPT in psi4, default
}

set PROPERTIES_ORIGIN ["COM"]
properties('MP2/aug-cc-pvtz', properties = ['dipole'])
--------------------------------------------------------------------------

    Molecular point group: c1
  Charge       = 0
  Multiplicity = 1
  Basis Set: AUG-CC-PVTZ
    Blend: AUG-CC-PVTZ
  Basis Set: (AUG-CC-PVTZ AUX)
    Blend: AUG-CC-PVTZ-JKFIT

    Orbital Energies [Eh]
    ---------------------

    Doubly Occupied:

       1A    -20.450133     2A    -15.645715     3A    -15.606094
       4A    -15.561140     5A    -11.366185     6A    -11.359652
       7A    -11.339624     8A    -11.277669     9A    -11.263863
      10A     -1.382645    11A     -1.296490    12A     -1.225406
      13A     -1.178861    14A     -1.082911    15A     -0.986275
      16A     -0.923613    17A     -0.871675    18A     -0.777901
      19A     -0.736954    20A     -0.701226    21A     -0.685404
      22A     -0.670516    23A     -0.629209    24A     -0.618974
      25A     -0.593942    26A     -0.572117    27A     -0.523938
      28A     -0.509312    29A     -0.455260    30A     -0.444979
      31A     -0.395413    32A     -0.370305    33A     -0.329817

  @DF-RHF Final Energy:  -431.73928293591234

   => Energetics <=

    Nuclear Repulsion Energy =            442.3918350456636404
    One-Electron Energy =               -1464.5957992257592650
    Two-Electron Energy =                 590.4646812441833390
    Total Energy =                       -431.7392829359123425
  Basis Set: (AUG-CC-PVTZ AUX)
    Blend: AUG-CC-PVTZ-RI
    Molecular point group: c1

    Geometry (in Angstrom), charge = 0, multiplicity = 1:

       Center              X                  Y                   Z               Mass
    ------------   -----------------  -----------------  -----------------  -----------------
         O           -1.445490158719     1.820869111048    -0.005498291501    15.994914619570
         N           -1.138800158719    -0.458543888952     0.009474708499    14.003074004430
         N            0.721768841281     1.039036111048     0.012528708499    14.003074004430
         N            2.870787841281     0.229321111048    -0.073017291501    14.003074004430
         C           -0.294521158719    -1.528293888952     0.002187708499    12.000000000000
         C            1.055377841281    -1.362334888952    -0.001076291501    12.000000000000
         C           -0.526525658719     0.725507811048     0.022390008499    12.000000000000
         C           -2.582894158719    -0.682954888952     0.003483708499    12.000000000000
         C            1.516495841281    -0.007522888952     0.002761708499    12.000000000000
         H           -0.773392158719    -2.504247888952    -0.006989291501     1.007825032230
         H            1.734199841281    -2.207294888952    -0.028424291501     1.007825032230
         H           -2.884656158719    -1.242773888952     0.892175708499     1.007825032230
         H           -2.879550158719    -1.229517888952    -0.895096291501     1.007825032230
         H           -3.047471158719     0.299872111048     0.009916708499     1.007825032230
         H            3.481558841281    -0.458550888952     0.349740708499     1.007825032230
         H            3.124218841281     1.193294111048     0.120552708499     1.007825032230

  Basis Set: AUG-CC-PVTZ
    Blend: AUG-CC-PVTZ
  Basis Set: (AUG-CC-PVTZ AUX)
    Blend: AUG-CC-PVTZ-JKFIT
	 Reference Energy          =    -431.7392829359123425 [Eh]
	 Singles Energy            =      -0.0000000000000000 [Eh]
	 Same-Spin Energy          =      -0.4535486246428209 [Eh]
	 Opposite-Spin Energy      =      -1.3774888667544172 [Eh]
	 Correlation Energy        =      -1.8310374913972380 [Eh]
	 Total Energy              =    -433.5703204273095821 [Eh]

	 ================> DF-SCS-MP2 Energies <==================
	-----------------------------------------------------------
	 SCS Same-Spin Scale       =       0.3333333333333333 [-]
	 SCS Opposite-Spin Scale   =       1.2000000000000000 [-]
	 SCS Same-Spin Energy      =      -0.1511828748809403 [Eh]
	 SCS Opposite-Spin Energy  =      -1.6529866401053006 [Eh]
	 SCS Correlation Energy    =      -1.8041695149862409 [Eh]
	 SCS Total Energy          =    -433.5434524508985987 [Eh]
	-----------------------------------------------------------

  Dipole Moment: [D]
     X:     3.0123      Y:    -7.1907      Z:     0.8329     Total:     7.8405

*** Psi4 exiting successfully. Buy a developer a beer!
