                               Psi4 1.3.2 release

  ==> Input File <==

--------------------------------------------------------------------------
#psi4
#
memory 32 gb

molecule  {
0 1
  O       -1.3909616     1.8801134    -0.0092231
  N       -1.1176450    -0.4263010     0.0065070
  N        0.7364860     1.1192148     0.0082985
  N        2.8919430     0.2615640    -0.0759850
  C       -0.2733660    -1.4960510    -0.0007800
  C        1.0765330    -1.3300920    -0.0040440
  C       -0.6338910     0.9109410     0.0155220
  C       -2.5617390    -0.6507120     0.0005160
  C        1.5376510     0.0247200    -0.0002060
  H       -0.7522370    -2.4720050    -0.0099570
  H        1.7553550    -2.1750520    -0.0313920
  H       -2.8635010    -1.2105310     0.8892080
  H       -2.8583950    -1.1972750    -0.8980640
  H       -3.0263160     0.3321150     0.0069490
  H        3.5027140    -0.4263080     0.3467730
  H        3.1453740     1.2255370     0.1175850
units angstrom
no_reorient  #important for SAPT in psi4, default
symmetry c1  #important for SAPT in psi4, default
}

set PROPERTIES_ORIGIN ["COM"]
properties('MP2/aug-cc-pvtz', properties = ['dipole'])
--------------------------------------------------------------------------

    Molecular point group: c1
  Charge       = 0
  Multiplicity = 1
  Basis Set: AUG-CC-PVTZ
    Blend: AUG-CC-PVTZ
  Basis Set: (AUG-CC-PVTZ AUX)
    Blend: AUG-CC-PVTZ-JKFIT

    Orbital Energies [Eh]
    ---------------------

    Doubly Occupied:

       1A    -20.498178     2A    -15.628305     3A    -15.594158
       4A    -15.545944     5A    -11.367419     6A    -11.353867
       7A    -11.330563     8A    -11.272587     9A    -11.248764
      10A     -1.378870    11A     -1.292265    12A     -1.266411
      13A     -1.162866    14A     -1.074883    15A     -0.965008
      16A     -0.901890    17A     -0.848587    18A     -0.757875
      19A     -0.723662    20A     -0.685480    21A     -0.673307
      22A     -0.655816    23A     -0.621130    24A     -0.602517
      25A     -0.588025    26A     -0.576772    27A     -0.560527
      28A     -0.520722    29A     -0.476800    30A     -0.437609
      31A     -0.421230    32A     -0.382752    33A     -0.338944

  @DF-RHF Final Energy:  -431.79585441502297

   => Energetics <=

    Nuclear Repulsion Energy =            439.7605349419811205
    One-Electron Energy =               -1459.6053073387420227
    Two-Electron Energy =                 588.0489179817378727
    Total Energy =                       -431.7958544150229727
  Basis Set: (AUG-CC-PVTZ AUX)
    Blend: AUG-CC-PVTZ-RI
    Molecular point group: c1

    Geometry (in Angstrom), charge = 0, multiplicity = 1:

       Center              X                  Y                   Z               Mass
    ------------   -----------------  -----------------  -----------------  -----------------
         O           -1.403332154003     1.824350258083    -0.005642942299    15.994914619570
         N           -1.130015554003    -0.482064141917     0.010087157701    14.003074004430
         N            0.724115445997     1.063451658083     0.011878657701    14.003074004430
         N            2.879572445997     0.205800858083    -0.072404842299    14.003074004430
         C           -0.285736554003    -1.551814141917     0.002800157701    12.000000000000
         C            1.064162445997    -1.385855141917    -0.000463842299    12.000000000000
         C           -0.646261554003     0.855177858083     0.019102157701    12.000000000000
         C           -2.574109554003    -0.706475141917     0.004096157701    12.000000000000
         C            1.525280445997    -0.031043141917     0.003374157701    12.000000000000
         H           -0.764607554003    -2.527768141917    -0.006376842299     1.007825032230
         H            1.742984445997    -2.230815141917    -0.027811842299     1.007825032230
         H           -2.875871554003    -1.266294141917     0.892788157701     1.007825032230
         H           -2.870765554003    -1.253038141917    -0.894483842299     1.007825032230
         H           -3.038686554003     0.276351858083     0.010529157701     1.007825032230
         H            3.490343445997    -0.482071141917     0.350353157701     1.007825032230
         H            3.133003445997     1.169773858083     0.121165157701     1.007825032230

  Basis Set: AUG-CC-PVTZ
    Blend: AUG-CC-PVTZ
  Basis Set: (AUG-CC-PVTZ AUX)
    Blend: AUG-CC-PVTZ-JKFIT
	 Reference Energy          =    -431.7958544150229727 [Eh]
	 Singles Energy            =      -0.0000000000000000 [Eh]
	 Same-Spin Energy          =      -0.4507047325700770 [Eh]
	 Opposite-Spin Energy      =      -1.3732951187968043 [Eh]
	 Correlation Energy        =      -1.8239998513668814 [Eh]
	 Total Energy              =    -433.6198542663898365 [Eh]

	 ================> DF-SCS-MP2 Energies <==================
	-----------------------------------------------------------
	 SCS Same-Spin Scale       =       0.3333333333333333 [-]
	 SCS Opposite-Spin Scale   =       1.2000000000000000 [-]
	 SCS Same-Spin Energy      =      -0.1502349108566923 [Eh]
	 SCS Opposite-Spin Energy  =      -1.6479541425561652 [Eh]
	 SCS Correlation Energy    =      -1.7981890534128575 [Eh]
	 SCS Total Energy          =    -433.5940434684358138 [Eh]
	-----------------------------------------------------------

  Dipole Moment: [D]
     X:     1.7343      Y:    -5.8459      Z:     0.8298     Total:     6.1539

*** Psi4 exiting successfully. Buy a developer a beer!
