                               Psi4 1.3.2 release

  ==> Input File <==

--------------------------------------------------------------------------
#psi4
#
memory 32 gb

molecule  {
0 1
  O       -1.4243350     1.8531120    -0.0084660
  N       -1.1176450    -0.4263010     0.0065070
  N        0.7429240     1.0712790     0.0095610
  N        2.8919430     0.2615640    -0.0759850
  C       -0.2733660    -1.4960510    -0.0007800
  C        1.0659999    -1.2596755    -0.0032104
  C       -0.6338910     0.9109410     0.0155220
  C       -2.5617390    -0.6507120     0.0005160
  C        1.5376510     0.0247200    -0.0002060
  H       -0.8026600    -2.4456089    -0.0094678
  H        1.7553550    -2.1750520    -0.0313920
  H       -2.8635010    -1.2105310     0.8892080
  H       -2.8583950    -1.1972750    -0.8980640
  H       -3.0263160     0.3321150     0.0069490
  H        3.5027140    -0.4263080     0.3467730
  H        3.1453740     1.2255370     0.1175850
units angstrom
no_reorient  #important for SAPT in psi4, default
symmetry c1  #important for SAPT in psi4, default
}

set PROPERTIES_ORIGIN ["COM"]
properties('MP2/aug-cc-pvtz', properties = ['dipole'])
--------------------------------------------------------------------------

    Molecular point group: c1
  Charge       = 0
  Multiplicity = 1
  Basis Set: AUG-CC-PVTZ
    Blend: AUG-CC-PVTZ
  Basis Set: (AUG-CC-PVTZ AUX)
    Blend: AUG-CC-PVTZ-JKFIT

    Orbital Energies [Eh]
    ---------------------

    Doubly Occupied:

       1A    -20.501352     2A    -15.626946     3A    -15.589589
       4A    -15.541351     5A    -11.370608     6A    -11.342249
       7A    -11.331524     8A    -11.271570     9A    -11.246041
      10A     -1.382467    11A     -1.298457    12A     -1.268757
      13A     -1.170210    14A     -1.075394    15A     -0.968899
      16A     -0.907713    17A     -0.851225    18A     -0.762076
      19A     -0.724918    20A     -0.682085    21A     -0.668475
      22A     -0.657043    23A     -0.629527    24A     -0.604852
      25A     -0.586038    26A     -0.580634    27A     -0.555257
      28A     -0.522537    29A     -0.476559    30A     -0.438611
      31A     -0.419450    32A     -0.388631    33A     -0.337757

  @DF-RHF Final Energy:  -431.79207698858244

   => Energetics <=

    Nuclear Repulsion Energy =            442.2810562032483404
    One-Electron Energy =               -1464.5886582825885398
    Two-Electron Energy =                 590.5155250907578193
    Total Energy =                       -431.7920769885823802
  Basis Set: (AUG-CC-PVTZ AUX)
    Blend: AUG-CC-PVTZ-RI
    Molecular point group: c1

    Geometry (in Angstrom), charge = 0, multiplicity = 1:

       Center              X                  Y                   Z               Mass
    ------------   -----------------  -----------------  -----------------  -----------------
         O           -1.431740952557     1.799200249468    -0.005207969353    15.994914619570
         N           -1.125050952557    -0.480212750532     0.009765030647    14.003074004430
         N            0.735518047443     1.017367249468     0.012819030647    14.003074004430
         N            2.884537047443     0.207652249468    -0.072726969353    14.003074004430
         C           -0.280771952557    -1.549962750532     0.002478030647    12.000000000000
         C            1.058593947443    -1.313587250532     0.000047630647    12.000000000000
         C           -0.641296952557     0.857029249468     0.018780030647    12.000000000000
         C           -2.569144952557    -0.704623750532     0.003774030647    12.000000000000
         C            1.530245047443    -0.029191750532     0.003052030647    12.000000000000
         H           -0.810065952557    -2.499520650532    -0.006209769353     1.007825032230
         H            1.747949047443    -2.228963750532    -0.028133969353     1.007825032230
         H           -2.870906952557    -1.264442750532     0.892466030647     1.007825032230
         H           -2.865800952557    -1.251186750532    -0.894805969353     1.007825032230
         H           -3.033721952557     0.278203249468     0.010207030647     1.007825032230
         H            3.495308047443    -0.480219750532     0.350031030647     1.007825032230
         H            3.137968047443     1.171625249468     0.120843030647     1.007825032230

  Basis Set: AUG-CC-PVTZ
    Blend: AUG-CC-PVTZ
  Basis Set: (AUG-CC-PVTZ AUX)
    Blend: AUG-CC-PVTZ-JKFIT
	 Reference Energy          =    -431.7920769885824370 [Eh]
	 Singles Energy            =      -0.0000000000000000 [Eh]
	 Same-Spin Energy          =      -0.4517036836498549 [Eh]
	 Opposite-Spin Energy      =      -1.3735254970834805 [Eh]
	 Correlation Energy        =      -1.8252291807333354 [Eh]
	 Total Energy              =    -433.6173061693157820 [Eh]

	 ================> DF-SCS-MP2 Energies <==================
	-----------------------------------------------------------
	 SCS Same-Spin Scale       =       0.3333333333333333 [-]
	 SCS Opposite-Spin Scale   =       1.2000000000000000 [-]
	 SCS Same-Spin Energy      =      -0.1505678945499516 [Eh]
	 SCS Opposite-Spin Energy  =      -1.6482305965001764 [Eh]
	 SCS Correlation Energy    =      -1.7987984910501280 [Eh]
	 SCS Total Energy          =    -433.5908754796325866 [Eh]
	-----------------------------------------------------------

  Dipole Moment: [D]
     X:     1.5530      Y:    -5.7522      Z:     0.8382     Total:     6.0168

*** Psi4 exiting successfully. Buy a developer a beer!
