                               Psi4 1.4a3.dev225

  ==> Input File <==

--------------------------------------------------------------------------
#psi4
#
memory 32 gb

molecule  {
0 1
  O       -1.4602810    -1.8042760    -0.0008590
  N       -1.1067000     0.4494610     0.0014260
  N        0.7338450    -1.0777760     0.0056990
  N        2.8872480    -0.2944040    -0.0665390
  C       -0.2576190     1.5082170    -0.0002850
  C        1.0914800     1.3228940    -0.0047970
  C       -0.6316600    -0.8954310    -0.0014820
  C       -2.5563510     0.6193970     0.0049040
  C        1.5404980    -0.0347530    -0.0000590
  H       -0.6937334     2.4487285    -0.0021224
  H        1.7746080     2.1637920    -0.0246520
  H       -2.7835150     1.6863950     0.0041520
  H       -2.9802500     0.1433220     0.8903410
  H       -2.9840040     0.1411790    -0.8774920
  H        3.5206970     0.4000120     0.3068300
  H        3.1306380    -1.2574880     0.1361150
units angstrom
no_reorient  #important for SAPT in psi4, default
symmetry c1  #important for SAPT in psi4, default
}

set PROPERTIES_ORIGIN ["COM"]
properties('MP2/aug-cc-pvtz', properties = ['dipole'])
--------------------------------------------------------------------------

    Molecular point group: c1
  Charge       = 0
  Multiplicity = 1
  Basis Set: AUG-CC-PVTZ
    Blend: AUG-CC-PVTZ
  Basis Set: (AUG-CC-PVTZ AUX)
    Blend: AUG-CC-PVTZ-JKFIT

    Orbital Energies [Eh]
    ---------------------

    Doubly Occupied:

       1A    -20.502782     2A    -15.625833     3A    -15.591490
       4A    -15.542446     5A    -11.368933     6A    -11.349343
       7A    -11.322752     8A    -11.273656     9A    -11.243258
      10A     -1.383001    11A     -1.295475    12A     -1.267973
      13A     -1.171577    14A     -1.073658    15A     -0.965068
      16A     -0.903747    17A     -0.855292    18A     -0.759569
      19A     -0.729625    20A     -0.686135    21A     -0.677235
      22A     -0.655166    23A     -0.623700    24A     -0.604486
      25A     -0.590589    26A     -0.576420    27A     -0.566291
      28A     -0.516919    29A     -0.480153    30A     -0.442522
      31A     -0.418451    32A     -0.384950    33A     -0.337412

  @DF-RHF Final Energy:  -431.80256226574107

   => Energetics <=

    Nuclear Repulsion Energy =            441.8581316916504989
    One-Electron Energy =               -1463.7495778345974031
    Two-Electron Energy =                 590.0888838772058307
    Total Energy =                       -431.8025622657411304
  Basis Set: (AUG-CC-PVTZ AUX)
    Blend: AUG-CC-PVTZ-RI
    Molecular point group: c1

    Geometry (in Angstrom), charge = 0, multiplicity = 1:

       Center              X                  Y                   Z               Mass
    ------------   -----------------  -----------------  -----------------  -----------------
         O           -1.468795636332    -1.758173657050     0.002577661030    15.994914619570
         N           -1.115214636332     0.495563342950     0.004862661030    14.003074004430
         N            0.725330363668    -1.031673657050     0.009135661030    14.003074004430
         N            2.878733363668    -0.248301657050    -0.063102338970    14.003074004430
         C           -0.266133636332     1.554319342950     0.003151661030    12.000000000000
         C            1.082965363668     1.368996342950    -0.001360338970    12.000000000000
         C           -0.640174636332    -0.849328657050     0.001954661030    12.000000000000
         C           -2.564865636332     0.665499342950     0.008340661030    12.000000000000
         C            1.531983363668     0.011349342950     0.003377661030    12.000000000000
         H           -0.702248036332     2.494830842950     0.001314261030     1.007825032230
         H            1.766093363668     2.209894342950    -0.021215338970     1.007825032230
         H           -2.792029636332     1.732497342950     0.007588661030     1.007825032230
         H           -2.988764636332     0.189424342950     0.893777661030     1.007825032230
         H           -2.992518636332     0.187281342950    -0.874055338970     1.007825032230
         H            3.512182363668     0.446114342950     0.310266661030     1.007825032230
         H            3.122123363668    -1.211385657050     0.139551661030     1.007825032230

  Basis Set: AUG-CC-PVTZ
    Blend: AUG-CC-PVTZ
  Basis Set: (AUG-CC-PVTZ AUX)
    Blend: AUG-CC-PVTZ-JKFIT
	 Reference Energy          =    -431.8025622657410736 [Eh]
	 Singles Energy            =      -0.0000000000000000 [Eh]
	 Same-Spin Energy          =      -0.4502720425224901 [Eh]
	 Opposite-Spin Energy      =      -1.3715561642979113 [Eh]
	 Correlation Energy        =      -1.8218282068204013 [Eh]
	 Total Energy              =    -433.6243904725614584 [Eh]

	 ================> DF-SCS-MP2 Energies <==================
	-----------------------------------------------------------
	 SCS Same-Spin Scale       =       0.3333333333333333 [-]
	 SCS Opposite-Spin Scale   =       1.2000000000000000 [-]
	 SCS Same-Spin Energy      =      -0.1500906808408300 [Eh]
	 SCS Opposite-Spin Energy  =      -1.6458673971574935 [Eh]
	 SCS Correlation Energy    =      -1.7959580779983235 [Eh]
	 SCS Total Energy          =    -433.5985203437393807 [Eh]
	-----------------------------------------------------------

  Dipole Moment: [D]
     X:     1.8032      Y:     5.6149      Z:     0.7692     Total:     5.9472

*** Psi4 exiting successfully. Buy a developer a beer!
