                               Psi4 1.3.2 release

  ==> Input File <==

--------------------------------------------------------------------------
#psi4
#
memory 32 gb

molecule  {
0 1
  O       -1.4243350     1.8531120    -0.0084660
  N       -1.0605007    -0.3835804     0.0065284
  N        0.7429240     1.0712790     0.0095610
  N        2.8919430     0.2615640    -0.0759850
  C       -0.2733660    -1.4960510    -0.0007800
  C        1.0659983    -1.2596717    -0.0036980
  C       -0.6338910     0.9109410     0.0155220
  C       -2.5617390    -0.6507120     0.0005160
  C        1.5376510     0.0247200    -0.0002060
  H       -0.7522370    -2.4720050    -0.0099570
  H        1.7553550    -2.1750520    -0.0313920
  H       -2.8635010    -1.2105310     0.8892080
  H       -2.8583950    -1.1972750    -0.8980640
  H       -3.0263160     0.3321150     0.0069490
  H        3.5027140    -0.4263080     0.3467730
  H        3.1453740     1.2255370     0.1175850
units angstrom
no_reorient  #important for SAPT in psi4, default
symmetry c1  #important for SAPT in psi4, default
}

set PROPERTIES_ORIGIN ["COM"]
properties('MP2/aug-cc-pvtz', properties = ['dipole'])
--------------------------------------------------------------------------

    Molecular point group: c1
  Charge       = 0
  Multiplicity = 1
  Basis Set: AUG-CC-PVTZ
    Blend: AUG-CC-PVTZ
  Basis Set: (AUG-CC-PVTZ AUX)
    Blend: AUG-CC-PVTZ-JKFIT

    Orbital Energies [Eh]
    ---------------------

    Doubly Occupied:

       1A    -20.494788     2A    -15.628410     3A    -15.587767
       4A    -15.538826     5A    -11.363776     6A    -11.339698
       7A    -11.331605     8A    -11.277461     9A    -11.246840
      10A     -1.385522    11A     -1.297732    12A     -1.265084
      13A     -1.166380    14A     -1.076071    15A     -0.968409
      16A     -0.916683    17A     -0.850201    18A     -0.763058
      19A     -0.729602    20A     -0.678812    21A     -0.664124
      22A     -0.656668    23A     -0.629294    24A     -0.604300
      25A     -0.585476    26A     -0.581396    27A     -0.546687
      28A     -0.525175    29A     -0.475462    30A     -0.435533
      31A     -0.417064    32A     -0.387014    33A     -0.339290

  @DF-RHF Final Energy:  -431.78672109573409

   => Energetics <=

    Nuclear Repulsion Energy =            443.1233611163261230
    One-Electron Energy =               -1466.3117431820849106
    Two-Electron Energy =                 591.4016609700246363
    Total Energy =                       -431.7867210957341513
  Basis Set: (AUG-CC-PVTZ AUX)
    Blend: AUG-CC-PVTZ-RI
    Molecular point group: c1

    Geometry (in Angstrom), charge = 0, multiplicity = 1:

       Center              X                  Y                   Z               Mass
    ------------   -----------------  -----------------  -----------------  -----------------
         O           -1.438545699302     1.794629102443    -0.005159635634    15.994914619570
         N           -1.074711399302    -0.442063297557     0.009834764366    14.003074004430
         N            0.728713300698     1.012796102443     0.012867364366    14.003074004430
         N            2.877732300698     0.203081102443    -0.072678635634    14.003074004430
         C           -0.287576699302    -1.554533897557     0.002526364366    12.000000000000
         C            1.051787600698    -1.318154597557    -0.000391635634    12.000000000000
         C           -0.648101699302     0.852458102443     0.018828364366    12.000000000000
         C           -2.575949699302    -0.709194897557     0.003822364366    12.000000000000
         C            1.523440300698    -0.033762897557     0.003100364366    12.000000000000
         H           -0.766447699302    -2.530487897557    -0.006650635634     1.007825032230
         H            1.741144300698    -2.233534897557    -0.028085635634     1.007825032230
         H           -2.877711699302    -1.269013897557     0.892514364366     1.007825032230
         H           -2.872605699302    -1.255757897557    -0.894757635634     1.007825032230
         H           -3.040526699302     0.273632102443     0.010255364366     1.007825032230
         H            3.488503300698    -0.484790897557     0.350079364366     1.007825032230
         H            3.131163300698     1.167054102443     0.120891364366     1.007825032230

  Basis Set: AUG-CC-PVTZ
    Blend: AUG-CC-PVTZ
  Basis Set: (AUG-CC-PVTZ AUX)
    Blend: AUG-CC-PVTZ-JKFIT
	 Reference Energy          =    -431.7867210957340944 [Eh]
	 Singles Energy            =      -0.0000000000000000 [Eh]
	 Same-Spin Energy          =      -0.4516632660339861 [Eh]
	 Opposite-Spin Energy      =      -1.3736009848234934 [Eh]
	 Correlation Energy        =      -1.8252642508574795 [Eh]
	 Total Energy              =    -433.6119853465915526 [Eh]

	 ================> DF-SCS-MP2 Energies <==================
	-----------------------------------------------------------
	 SCS Same-Spin Scale       =       0.3333333333333333 [-]
	 SCS Opposite-Spin Scale   =       1.2000000000000000 [-]
	 SCS Same-Spin Energy      =      -0.1505544220113287 [Eh]
	 SCS Opposite-Spin Energy  =      -1.6483211817881920 [Eh]
	 SCS Correlation Energy    =      -1.7988756037995206 [Eh]
	 SCS Total Energy          =    -433.5855966995335962 [Eh]
	-----------------------------------------------------------

  Dipole Moment: [D]
     X:     1.4874      Y:    -6.0172      Z:     0.8405     Total:     6.2551

*** Psi4 exiting successfully. Buy a developer a beer!
