                               Psi4 1.3.2 release

  ==> Input File <==

--------------------------------------------------------------------------
#psi4
#
memory 32 gb

molecule  {
0 1
  O       -1.4243350     1.8531120    -0.0084660
  N       -1.1176450    -0.4263010     0.0065070
  N        0.7429240     1.0712790     0.0095610
  N        2.8919430     0.2615640    -0.0759850
  C       -0.2733660    -1.4960510    -0.0007800
  C        1.0765330    -1.3300920    -0.0040440
  C       -0.6338910     0.9109410     0.0155220
  C       -2.3641127    -0.6200010     0.0013359
  C        1.5376510     0.0247200    -0.0002060
  H       -0.7522370    -2.4720050    -0.0099570
  H        1.7553550    -2.1750520    -0.0313920
  H       -2.8635010    -1.2105310     0.8892080
  H       -2.8583950    -1.1972750    -0.8980640
  H       -3.0263160     0.3321150     0.0069490
  H        3.5027140    -0.4263080     0.3467730
  H        3.1453740     1.2255370     0.1175850
units angstrom
no_reorient  #important for SAPT in psi4, default
symmetry c1  #important for SAPT in psi4, default
}

set PROPERTIES_ORIGIN ["COM"]
properties('MP2/aug-cc-pvtz', properties = ['dipole'])
--------------------------------------------------------------------------

    Molecular point group: c1
  Charge       = 0
  Multiplicity = 1
  Basis Set: AUG-CC-PVTZ
    Blend: AUG-CC-PVTZ
  Basis Set: (AUG-CC-PVTZ AUX)
    Blend: AUG-CC-PVTZ-JKFIT

    Orbital Energies [Eh]
    ---------------------

    Doubly Occupied:

       1A    -20.510635     2A    -15.626511     3A    -15.597101
       4A    -15.549606     5A    -11.378402     6A    -11.355764
       7A    -11.332107     8A    -11.270086     9A    -11.254604
      10A     -1.403217    11A     -1.319875    12A     -1.287829
      13A     -1.181744    14A     -1.088996    15A     -0.963542
      16A     -0.912827    17A     -0.852221    18A     -0.770878
      19A     -0.735374    20A     -0.714455    21A     -0.681832
      22A     -0.671763    23A     -0.634446    24A     -0.614501
      25A     -0.600190    26A     -0.571242    27A     -0.516995
      28A     -0.514474    29A     -0.460591    30A     -0.442117
      31A     -0.427935    32A     -0.388268    33A     -0.341885

  @DF-RHF Final Energy:  -431.75150552479897

   => Energetics <=

    Nuclear Repulsion Energy =            445.3511584810095201
    One-Electron Energy =               -1470.2612997784747222
    Two-Electron Energy =                 593.1586357726661163
    Total Energy =                       -431.7515055247989721
  Basis Set: (AUG-CC-PVTZ AUX)
    Blend: AUG-CC-PVTZ-RI
    Molecular point group: c1

    Geometry (in Angstrom), charge = 0, multiplicity = 1:

       Center              X                  Y                   Z               Mass
    ------------   -----------------  -----------------  -----------------  -----------------
         O           -1.452121190348     1.803222902815    -0.005202712406    15.994914619570
         N           -1.145431190348    -0.476190097185     0.009770287594    14.003074004430
         N            0.715137809652     1.021389902815     0.012824287594    14.003074004430
         N            2.864156809652     0.211674902815    -0.072721712406    14.003074004430
         C           -0.301152190348    -1.545940097185     0.002483287594    12.000000000000
         C            1.048746809652    -1.379981097185    -0.000780712406    12.000000000000
         C           -0.661677190348     0.861051902815     0.018785287594    12.000000000000
         C           -2.391898890348    -0.669890097185     0.004599187594    12.000000000000
         C            1.509864809652    -0.025169097185     0.003057287594    12.000000000000
         H           -0.780023190348    -2.521894097185    -0.006693712406     1.007825032230
         H            1.727568809652    -2.224941097185    -0.028128712406     1.007825032230
         H           -2.891287190348    -1.260420097185     0.892471287594     1.007825032230
         H           -2.886181190348    -1.247164097185    -0.894800712406     1.007825032230
         H           -3.054102190348     0.282225902815     0.010212287594     1.007825032230
         H            3.474927809652    -0.476197097185     0.350036287594     1.007825032230
         H            3.117587809652     1.175647902815     0.120848287594     1.007825032230

  Basis Set: AUG-CC-PVTZ
    Blend: AUG-CC-PVTZ
  Basis Set: (AUG-CC-PVTZ AUX)
    Blend: AUG-CC-PVTZ-JKFIT
	 Reference Energy          =    -431.7515055247989721 [Eh]
	 Singles Energy            =      -0.0000000000000000 [Eh]
	 Same-Spin Energy          =      -0.4531690372717524 [Eh]
	 Opposite-Spin Energy      =      -1.3754140918936291 [Eh]
	 Correlation Energy        =      -1.8285831291653816 [Eh]
	 Total Energy              =    -433.5800886539643670 [Eh]

	 ================> DF-SCS-MP2 Energies <==================
	-----------------------------------------------------------
	 SCS Same-Spin Scale       =       0.3333333333333333 [-]
	 SCS Opposite-Spin Scale   =       1.2000000000000000 [-]
	 SCS Same-Spin Energy      =      -0.1510563457572508 [Eh]
	 SCS Opposite-Spin Energy  =      -1.6504969102723548 [Eh]
	 SCS Correlation Energy    =      -1.8015532560296057 [Eh]
	 SCS Total Energy          =    -433.5530587808285645 [Eh]
	-----------------------------------------------------------

  Dipole Moment: [D]
     X:     2.4485      Y:    -5.3565      Z:     0.8325     Total:     5.9481

*** Psi4 exiting successfully. Buy a developer a beer!
