                               Psi4 1.3.2 release

  ==> Input File <==

--------------------------------------------------------------------------
#psi4
#
memory 32 gb

molecule  {
0 1
  O       -1.4243350     1.8531120    -0.0084660
  N       -1.1176450    -0.4263010     0.0065070
  N        0.7429240     1.0712790     0.0095610
  N        2.8919430     0.2615640    -0.0759850
  C       -0.2733660    -1.4960510    -0.0007800
  C        1.0765330    -1.3300920    -0.0040440
  C       -0.6338910     0.9109410     0.0155220
  C       -2.5617390    -0.6507120     0.0005160
  C        1.5376510     0.0247200    -0.0002060
  H       -0.7522370    -2.4720050    -0.0099570
  H        1.8179650    -2.2529855    -0.0339144
  H       -2.8635010    -1.2105310     0.8892080
  H       -2.8583950    -1.1972750    -0.8980640
  H       -3.0263160     0.3321150     0.0069490
  H        3.5027140    -0.4263080     0.3467730
  H        3.1453740     1.2255370     0.1175850
units angstrom
no_reorient  #important for SAPT in psi4, default
symmetry c1  #important for SAPT in psi4, default
}

set PROPERTIES_ORIGIN ["COM"]
properties('MP2/aug-cc-pvtz', properties = ['dipole'])
--------------------------------------------------------------------------

    Molecular point group: c1
  Charge       = 0
  Multiplicity = 1
  Basis Set: AUG-CC-PVTZ
    Blend: AUG-CC-PVTZ
  Basis Set: (AUG-CC-PVTZ AUX)
    Blend: AUG-CC-PVTZ-JKFIT

    Orbital Energies [Eh]
    ---------------------

    Doubly Occupied:

       1A    -20.503885     2A    -15.625879     3A    -15.591436
       4A    -15.544333     5A    -11.372655     6A    -11.350307
       7A    -11.327935     8A    -11.270770     9A    -11.256753
      10A     -1.382983    11A     -1.296332    12A     -1.267733
      13A     -1.171015    14A     -1.070270    15A     -0.964850
      16A     -0.898533    17A     -0.852209    18A     -0.759310
      19A     -0.720796    20A     -0.682610    21A     -0.668304
      22A     -0.655908    23A     -0.617254    24A     -0.601403
      25A     -0.586144    26A     -0.579684    27A     -0.557490
      28A     -0.522041    29A     -0.476734    30A     -0.440946
      31A     -0.419934    32A     -0.388116    33A     -0.339392

  @DF-RHF Final Energy:  -431.79341677694504

   => Energetics <=

    Nuclear Repulsion Energy =            440.4180810065363971
    One-Electron Energy =               -1460.8951031158383103
    Two-Electron Energy =                 588.6836053323569331
    Total Energy =                       -431.7934167769450369
  Basis Set: (AUG-CC-PVTZ AUX)
    Blend: AUG-CC-PVTZ-RI
    Molecular point group: c1

    Geometry (in Angstrom), charge = 0, multiplicity = 1:

       Center              X                  Y                   Z               Mass
    ------------   -----------------  -----------------  -----------------  -----------------
         O           -1.433662564406     1.806797820632    -0.005103711562    15.994914619570
         N           -1.126972564406    -0.472615179368     0.009869288438    14.003074004430
         N            0.733596435594     1.024964820632     0.012923288438    14.003074004430
         N            2.882615435594     0.215249820632    -0.072622711562    14.003074004430
         C           -0.282693564406    -1.542365179368     0.002582288438    12.000000000000
         C            1.067205435594    -1.376406179368    -0.000681711562    12.000000000000
         C           -0.643218564406     0.864626820632     0.018884288438    12.000000000000
         C           -2.571066564406    -0.697026179368     0.003878288438    12.000000000000
         C            1.528323435594    -0.021594179368     0.003156288438    12.000000000000
         H           -0.761564564406    -2.518319179368    -0.006594711562     1.007825032230
         H            1.808637435594    -2.299299679368    -0.030552111562     1.007825032230
         H           -2.872828564406    -1.256845179368     0.892570288438     1.007825032230
         H           -2.867722564406    -1.243589179368    -0.894701711562     1.007825032230
         H           -3.035643564406     0.285800820632     0.010311288438     1.007825032230
         H            3.493386435594    -0.472622179368     0.350135288438     1.007825032230
         H            3.136046435594     1.179222820632     0.120947288438     1.007825032230

  Basis Set: AUG-CC-PVTZ
    Blend: AUG-CC-PVTZ
  Basis Set: (AUG-CC-PVTZ AUX)
    Blend: AUG-CC-PVTZ-JKFIT
	 Reference Energy          =    -431.7934167769450369 [Eh]
	 Singles Energy            =      -0.0000000000000000 [Eh]
	 Same-Spin Energy          =      -0.4506193266989643 [Eh]
	 Opposite-Spin Energy      =      -1.3730358560327625 [Eh]
	 Correlation Energy        =      -1.8236551827317267 [Eh]
	 Total Energy              =    -433.6170719596767640 [Eh]

	 ================> DF-SCS-MP2 Energies <==================
	-----------------------------------------------------------
	 SCS Same-Spin Scale       =       0.3333333333333333 [-]
	 SCS Opposite-Spin Scale   =       1.2000000000000000 [-]
	 SCS Same-Spin Energy      =      -0.1502064422329881 [Eh]
	 SCS Opposite-Spin Energy  =      -1.6476430272393150 [Eh]
	 SCS Correlation Energy    =      -1.7978494694723031 [Eh]
	 SCS Total Energy          =    -433.5912662464173195 [Eh]
	-----------------------------------------------------------

  Dipole Moment: [D]
     X:     1.6961      Y:    -5.6146      Z:     0.8302     Total:     5.9237

*** Psi4 exiting successfully. Buy a developer a beer!
