                               Psi4 1.3.2 release

  ==> Input File <==

--------------------------------------------------------------------------
#psi4
#
memory 32 gb

molecule  {
0 1
  O       -1.4243350     1.8531120    -0.0084660
  N       -1.1176450    -0.4263010     0.0065070
  N        0.7429240     1.0712790     0.0095610
  N        2.8919430     0.2615640    -0.0759850
  C       -0.2733660    -1.4960510    -0.0007800
  C        1.0765330    -1.3300920    -0.0040440
  C       -0.6338910     0.9109410     0.0155220
  C       -2.5617390    -0.6507120     0.0005160
  C        1.5398224     0.0145168     0.0057575
  H       -0.7522370    -2.4720050    -0.0099570
  H        1.7553550    -2.1750520    -0.0313920
  H       -2.8635010    -1.2105310     0.8892080
  H       -2.8583950    -1.1972750    -0.8980640
  H       -3.0263160     0.3321150     0.0069490
  H        3.4956532    -0.4310415     0.3491798
  H        3.1453740     1.2255370     0.1175850
units angstrom
no_reorient  #important for SAPT in psi4, default
symmetry c1  #important for SAPT in psi4, default
}

set PROPERTIES_ORIGIN ["COM"]
properties('MP2/aug-cc-pvtz', properties = ['dipole'])
--------------------------------------------------------------------------

    Molecular point group: c1
  Charge       = 0
  Multiplicity = 1
  Basis Set: AUG-CC-PVTZ
    Blend: AUG-CC-PVTZ
  Basis Set: (AUG-CC-PVTZ AUX)
    Blend: AUG-CC-PVTZ-JKFIT

    Orbital Energies [Eh]
    ---------------------

    Doubly Occupied:

       1A    -20.502608     2A    -15.626064     3A    -15.591906
       4A    -15.543301     5A    -11.371250     6A    -11.349296
       7A    -11.328528     8A    -11.270666     9A    -11.245855
      10A     -1.381881    11A     -1.295467    12A     -1.267171
      13A     -1.168636    14A     -1.074151    15A     -0.965663
      16A     -0.900557    17A     -0.852488    18A     -0.759388
      19A     -0.724113    20A     -0.684540    21A     -0.674340
      22A     -0.655504    23A     -0.622953    24A     -0.602515
      25A     -0.591677    26A     -0.579115    27A     -0.559267
      28A     -0.521888    29A     -0.476311    30A     -0.440167
      31A     -0.419380    32A     -0.386806    33A     -0.339211

  @DF-RHF Final Energy:  -431.80034032489925

   => Energetics <=

    Nuclear Repulsion Energy =            440.8841193304659214
    One-Electron Energy =               -1461.8235920869722122
    Two-Electron Energy =                 589.1391324316070950
    Total Energy =                       -431.8003403248992527
  Basis Set: (AUG-CC-PVTZ AUX)
    Blend: AUG-CC-PVTZ-RI
    Molecular point group: c1

    Geometry (in Angstrom), charge = 0, multiplicity = 1:

       Center              X                  Y                   Z               Mass
    ------------   -----------------  -----------------  -----------------  -----------------
         O           -1.433309457413     1.807186962093    -0.005715661322    15.994914619570
         N           -1.126619457413    -0.472226037907     0.009257338678    14.003074004430
         N            0.733949542587     1.025353962093     0.012311338678    14.003074004430
         N            2.882968542587     0.215638962093    -0.073234661322    14.003074004430
         C           -0.282340457413    -1.541976037907     0.001970338678    12.000000000000
         C            1.067558542587    -1.376017037907    -0.001293661322    12.000000000000
         C           -0.642865457413     0.865015962093     0.018272338678    12.000000000000
         C           -2.570713457413    -0.696637037907     0.003266338678    12.000000000000
         C            1.530847942587    -0.031408237907     0.008507838678    12.000000000000
         H           -0.761211457413    -2.517930037907    -0.007206661322     1.007825032230
         H            1.746380542587    -2.220977037907    -0.028641661322     1.007825032230
         H           -2.872475457413    -1.256456037907     0.891958338678     1.007825032230
         H           -2.867369457413    -1.243200037907    -0.895313661322     1.007825032230
         H           -3.035290457413     0.286189962093     0.009699338678     1.007825032230
         H            3.486678742587    -0.476966537907     0.351930138678     1.007825032230
         H            3.136399542587     1.179611962093     0.120335338678     1.007825032230

  Basis Set: AUG-CC-PVTZ
    Blend: AUG-CC-PVTZ
  Basis Set: (AUG-CC-PVTZ AUX)
    Blend: AUG-CC-PVTZ-JKFIT
	 Reference Energy          =    -431.8003403248992527 [Eh]
	 Singles Energy            =      -0.0000000000000000 [Eh]
	 Same-Spin Energy          =      -0.4506110984776220 [Eh]
	 Opposite-Spin Energy      =      -1.3724371554659260 [Eh]
	 Correlation Energy        =      -1.8230482539435480 [Eh]
	 Total Energy              =    -433.6233885788428211 [Eh]

	 ================> DF-SCS-MP2 Energies <==================
	-----------------------------------------------------------
	 SCS Same-Spin Scale       =       0.3333333333333333 [-]
	 SCS Opposite-Spin Scale   =       1.2000000000000000 [-]
	 SCS Same-Spin Energy      =      -0.1502036994925407 [Eh]
	 SCS Opposite-Spin Energy  =      -1.6469245865591111 [Eh]
	 SCS Correlation Energy    =      -1.7971282860516518 [Eh]
	 SCS Total Energy          =    -433.5974686109508980 [Eh]
	-----------------------------------------------------------

  Dipole Moment: [D]
     X:     1.6961      Y:    -5.6814      Z:     0.8381     Total:     5.9881

*** Psi4 exiting successfully. Buy a developer a beer!
