                               Psi4 1.3.2 release

  ==> Input File <==

--------------------------------------------------------------------------
#psi4
#
memory 32 gb

molecule  {
0 1
  O       -1.4243350     1.8531120    -0.0084660
  N       -1.1176450    -0.4263010     0.0065070
  N        0.7429240     1.0712790     0.0095610
  N        2.8919430     0.2615640    -0.0759850
  C       -0.2733660    -1.4960510    -0.0007800
  C        1.0765330    -1.3300920    -0.0040440
  C       -0.6222397     0.9066684     0.0155366
  C       -2.5597254    -0.6633053     0.0004527
  C        1.5376510     0.0247200    -0.0002060
  H       -0.7522370    -2.4720050    -0.0099570
  H        1.7553550    -2.1750520    -0.0313920
  H       -2.8635010    -1.2105310     0.8892080
  H       -2.8583950    -1.1972750    -0.8980640
  H       -3.0263160     0.3321150     0.0069490
  H        3.5027140    -0.4263080     0.3467730
  H        3.1453740     1.2255370     0.1175850
units angstrom
no_reorient  #important for SAPT in psi4, default
symmetry c1  #important for SAPT in psi4, default
}

set PROPERTIES_ORIGIN ["COM"]
properties('MP2/aug-cc-pvtz', properties = ['dipole'])
--------------------------------------------------------------------------

    Molecular point group: c1
  Charge       = 0
  Multiplicity = 1
  Basis Set: AUG-CC-PVTZ
    Blend: AUG-CC-PVTZ
  Basis Set: (AUG-CC-PVTZ AUX)
    Blend: AUG-CC-PVTZ-JKFIT

    Orbital Energies [Eh]
    ---------------------

    Doubly Occupied:

       1A    -20.500491     2A    -15.626055     3A    -15.592737
       4A    -15.544614     5A    -11.372069     6A    -11.350895
       7A    -11.327617     8A    -11.270307     9A    -11.246529
      10A     -1.378088    11A     -1.293919    12A     -1.268039
      13A     -1.173791    14A     -1.073081    15A     -0.965799
      16A     -0.899688    17A     -0.855899    18A     -0.759801
      19A     -0.724335    20A     -0.686608    21A     -0.674619
      22A     -0.656663    23A     -0.620122    24A     -0.602151
      25A     -0.591807    26A     -0.581485    27A     -0.554212
      28A     -0.520849    29A     -0.475409    30A     -0.438607
      31A     -0.420728    32A     -0.388880    33A     -0.339116

  @DF-RHF Final Energy:  -431.80003119302808

   => Energetics <=

    Nuclear Repulsion Energy =            440.9242366834601512
    One-Electron Energy =               -1461.8985204310679364
    Two-Electron Energy =                 589.1742525545797662
    Total Energy =                       -431.8000311930280759
  Basis Set: (AUG-CC-PVTZ AUX)
    Blend: AUG-CC-PVTZ-RI
    Molecular point group: c1

    Geometry (in Angstrom), charge = 0, multiplicity = 1:

       Center              X                  Y                   Z               Mass
    ------------   -----------------  -----------------  -----------------  -----------------
         O           -1.434469215233     1.807788133645    -0.005119366087    15.994914619570
         N           -1.127779215233    -0.471624866355     0.009853633913    14.003074004430
         N            0.732789784767     1.025955133645     0.012907633913    14.003074004430
         N            2.881808784767     0.216240133645    -0.072638366087    14.003074004430
         C           -0.283500215233    -1.541374866355     0.002566633913    12.000000000000
         C            1.066398784767    -1.375415866355    -0.000697366087    12.000000000000
         C           -0.632373915233     0.861344533645     0.018883233913    12.000000000000
         C           -2.569859615233    -0.708629166355     0.003799333913    12.000000000000
         C            1.527516784767    -0.020603866355     0.003140633913    12.000000000000
         H           -0.762371215233    -2.517328866355    -0.006610366087     1.007825032230
         H            1.745220784767    -2.220375866355    -0.028045366087     1.007825032230
         H           -2.873635215233    -1.255854866355     0.892554633913     1.007825032230
         H           -2.868529215233    -1.242598866355    -0.894717366087     1.007825032230
         H           -3.036450215233     0.286791133645     0.010295633913     1.007825032230
         H            3.492579784767    -0.471631866355     0.350119633913     1.007825032230
         H            3.135239784767     1.180213133645     0.120931633913     1.007825032230

  Basis Set: AUG-CC-PVTZ
    Blend: AUG-CC-PVTZ
  Basis Set: (AUG-CC-PVTZ AUX)
    Blend: AUG-CC-PVTZ-JKFIT
	 Reference Energy          =    -431.8000311930280759 [Eh]
	 Singles Energy            =      -0.0000000000000000 [Eh]
	 Same-Spin Energy          =      -0.4506225484394797 [Eh]
	 Opposite-Spin Energy      =      -1.3724411191934953 [Eh]
	 Correlation Energy        =      -1.8230636676329750 [Eh]
	 Total Energy              =    -433.6230948606610696 [Eh]

	 ================> DF-SCS-MP2 Energies <==================
	-----------------------------------------------------------
	 SCS Same-Spin Scale       =       0.3333333333333333 [-]
	 SCS Opposite-Spin Scale   =       1.2000000000000000 [-]
	 SCS Same-Spin Energy      =      -0.1502075161464932 [Eh]
	 SCS Opposite-Spin Energy  =      -1.6469293430321943 [Eh]
	 SCS Correlation Energy    =      -1.7971368591786876 [Eh]
	 SCS Total Energy          =    -433.5971680522067686 [Eh]
	-----------------------------------------------------------

  Dipole Moment: [D]
     X:     1.8034      Y:    -5.7064      Z:     0.8320     Total:     6.0422

*** Psi4 exiting successfully. Buy a developer a beer!
