                               Psi4 1.3.2 release

  ==> Input File <==

--------------------------------------------------------------------------
#psi4
#
memory 32 gb

molecule  {
0 1
  O       -1.4243350     1.8531120    -0.0084660
  N       -1.1176450    -0.4263010     0.0065070
  N        0.7429240     1.0712790     0.0095610
  N        2.8919430     0.2615640    -0.0759850
  C       -0.2733660    -1.4960510    -0.0007800
  C        1.0765330    -1.3300920    -0.0040440
  C       -0.4352354     0.9340756     0.0146619
  C       -2.5617390    -0.6507120     0.0005160
  C        1.5376510     0.0247200    -0.0002060
  H       -0.7522370    -2.4720050    -0.0099570
  H        1.7553550    -2.1750520    -0.0313920
  H       -2.8635010    -1.2105310     0.8892080
  H       -2.8583950    -1.1972750    -0.8980640
  H       -3.0263160     0.3321150     0.0069490
  H        3.5027140    -0.4263080     0.3467730
  H        3.1453740     1.2255370     0.1175850
units angstrom
no_reorient  #important for SAPT in psi4, default
symmetry c1  #important for SAPT in psi4, default
}

set PROPERTIES_ORIGIN ["COM"]
properties('MP2/aug-cc-pvtz', properties = ['dipole'])
--------------------------------------------------------------------------

    Molecular point group: c1
  Charge       = 0
  Multiplicity = 1
  Basis Set: AUG-CC-PVTZ
    Blend: AUG-CC-PVTZ
  Basis Set: (AUG-CC-PVTZ AUX)
    Blend: AUG-CC-PVTZ-JKFIT

    Orbital Energies [Eh]
    ---------------------

    Doubly Occupied:

       1A    -20.465480     2A    -15.622868     3A    -15.611416
       4A    -15.551932     5A    -11.378020     6A    -11.363540
       7A    -11.332561     8A    -11.264391     9A    -11.249603
      10A     -1.375910    11A     -1.281654    12A     -1.242869
      13A     -1.212897    14A     -1.077009    15A     -0.965298
      16A     -0.900555    17A     -0.879039    18A     -0.769549
      19A     -0.728489    20A     -0.693037    21A     -0.680461
      22A     -0.650567    23A     -0.622764    24A     -0.604542
      25A     -0.598450    26A     -0.575273    27A     -0.542785
      28A     -0.511728    29A     -0.475488    30A     -0.434034
      31A     -0.391074    32A     -0.388687    33A     -0.333314

  @DF-RHF Final Energy:  -431.73912187452044

   => Energetics <=

    Nuclear Repulsion Energy =            441.3914422100105526
    One-Electron Energy =               -1462.7105599591586724
    Two-Electron Energy =                 589.5799958746276843
    Total Energy =                       -431.7391218745203787
  Basis Set: (AUG-CC-PVTZ AUX)
    Blend: AUG-CC-PVTZ-RI
    Molecular point group: c1

    Geometry (in Angstrom), charge = 0, multiplicity = 1:

       Center              X                  Y                   Z               Mass
    ------------   -----------------  -----------------  -----------------  -----------------
         O           -1.452219956600     1.803949894588    -0.005041508381    15.994914619570
         N           -1.145529956600    -0.475463105412     0.009931491619    14.003074004430
         N            0.715039043400     1.022116894588     0.012985491619    14.003074004430
         N            2.864058043400     0.212401894588    -0.072560508381    14.003074004430
         C           -0.301250956600    -1.545213105412     0.002644491619    12.000000000000
         C            1.048648043400    -1.379254105412    -0.000619508381    12.000000000000
         C           -0.463120356600     0.884913494588     0.018086391619    12.000000000000
         C           -2.589623956600    -0.699874105412     0.003940491619    12.000000000000
         C            1.509766043400    -0.024442105412     0.003218491619    12.000000000000
         H           -0.780121956600    -2.521167105412    -0.006532508381     1.007825032230
         H            1.727470043400    -2.224214105412    -0.027967508381     1.007825032230
         H           -2.891385956600    -1.259693105412     0.892632491619     1.007825032230
         H           -2.886279956600    -1.246437105412    -0.894639508381     1.007825032230
         H           -3.054200956600     0.282952894588     0.010373491619     1.007825032230
         H            3.474829043400    -0.475470105412     0.350197491619     1.007825032230
         H            3.117489043400     1.176374894588     0.121009491619     1.007825032230

  Basis Set: AUG-CC-PVTZ
    Blend: AUG-CC-PVTZ
  Basis Set: (AUG-CC-PVTZ AUX)
    Blend: AUG-CC-PVTZ-JKFIT
	 Reference Energy          =    -431.7391218745204355 [Eh]
	 Singles Energy            =      -0.0000000000000000 [Eh]
	 Same-Spin Energy          =      -0.4533708689604771 [Eh]
	 Opposite-Spin Energy      =      -1.3757074477625038 [Eh]
	 Correlation Energy        =      -1.8290783167229807 [Eh]
	 Total Energy              =    -433.5682001912434202 [Eh]

	 ================> DF-SCS-MP2 Energies <==================
	-----------------------------------------------------------
	 SCS Same-Spin Scale       =       0.3333333333333333 [-]
	 SCS Opposite-Spin Scale   =       1.2000000000000000 [-]
	 SCS Same-Spin Energy      =      -0.1511236229868257 [Eh]
	 SCS Opposite-Spin Energy  =      -1.6508489373150044 [Eh]
	 SCS Correlation Energy    =      -1.8019725603018300 [Eh]
	 SCS Total Energy          =    -433.5410944348222415 [Eh]
	-----------------------------------------------------------

  Dipole Moment: [D]
     X:     3.1949      Y:    -6.1807      Z:     0.8219     Total:     7.0060

*** Psi4 exiting successfully. Buy a developer a beer!
