                               Psi4 1.3.2 release

  ==> Input File <==

--------------------------------------------------------------------------
#psi4
#
memory 32 gb

molecule  {
0 1
  O       -1.4243350     1.8531120    -0.0084660
  N       -1.1176450    -0.4263010     0.0065070
  N        0.7429240     1.0712790     0.0095610
  N        2.8919430     0.2615640    -0.0759850
  C       -0.2733660    -1.4960510    -0.0007800
  C        1.0765330    -1.3300920    -0.0040440
  C       -0.5645670     0.8837896     0.0155990
  C       -2.5480137    -0.7259819     0.0001431
  C        1.5376510     0.0247200    -0.0002060
  H       -0.7522370    -2.4720050    -0.0099570
  H        1.7553550    -2.1750520    -0.0313920
  H       -2.8635010    -1.2105310     0.8892080
  H       -2.8583950    -1.1972750    -0.8980640
  H       -3.0263160     0.3321150     0.0069490
  H        3.5027140    -0.4263080     0.3467730
  H        3.1453740     1.2255370     0.1175850
units angstrom
no_reorient  #important for SAPT in psi4, default
symmetry c1  #important for SAPT in psi4, default
}

set PROPERTIES_ORIGIN ["COM"]
properties('MP2/aug-cc-pvtz', properties = ['dipole'])
--------------------------------------------------------------------------

    Molecular point group: c1
  Charge       = 0
  Multiplicity = 1
  Basis Set: AUG-CC-PVTZ
    Blend: AUG-CC-PVTZ
  Basis Set: (AUG-CC-PVTZ AUX)
    Blend: AUG-CC-PVTZ-JKFIT

    Orbital Energies [Eh]
    ---------------------

    Doubly Occupied:

       1A    -20.484847     2A    -15.629832     3A    -15.598931
       4A    -15.549638     5A    -11.370628     6A    -11.359119
       7A    -11.329787     8A    -11.270240     9A    -11.249543
      10A     -1.366483    11A     -1.284476    12A     -1.263346
      13A     -1.188778    14A     -1.075160    15A     -0.968821
      16A     -0.901983    17A     -0.866769    18A     -0.764319
      19A     -0.727486    20A     -0.691799    21A     -0.678037
      22A     -0.663897    23A     -0.618544    24A     -0.606679
      25A     -0.594125    26A     -0.574467    27A     -0.529421
      28A     -0.518888    29A     -0.470303    30A     -0.439561
      31A     -0.410776    32A     -0.392706    33A     -0.338731

  @DF-RHF Final Energy:  -431.78217951530178

   => Energetics <=

    Nuclear Repulsion Energy =            441.0502324651728827
    One-Electron Energy =               -1462.1085822075544911
    Two-Electron Energy =                 589.2761702270797741
    Total Energy =                       -431.7821795153017774
  Basis Set: (AUG-CC-PVTZ AUX)
    Blend: AUG-CC-PVTZ-RI
    Molecular point group: c1

    Geometry (in Angstrom), charge = 0, multiplicity = 1:

       Center              X                  Y                   Z               Mass
    ------------   -----------------  -----------------  -----------------  -----------------
         O           -1.441126979863     1.815997582974    -0.005095646066    15.994914619570
         N           -1.134436979863    -0.463415417026     0.009877353934    14.003074004430
         N            0.726132020137     1.034164582974     0.012931353934    14.003074004430
         N            2.875151020137     0.224449582974    -0.072614646066    14.003074004430
         C           -0.290157979863    -1.533165417026     0.002590353934    12.000000000000
         C            1.059741020137    -1.367206417026    -0.000673646066    12.000000000000
         C           -0.581358979863     0.846675182974     0.018969353934    12.000000000000
         C           -2.564805679863    -0.763096317026     0.003513453934    12.000000000000
         C            1.520859020137    -0.012394417026     0.003164353934    12.000000000000
         H           -0.769028979863    -2.509119417026    -0.006586646066     1.007825032230
         H            1.738563020137    -2.212166417026    -0.028021646066     1.007825032230
         H           -2.880292979863    -1.247645417026     0.892578353934     1.007825032230
         H           -2.875186979863    -1.234389417026    -0.894693646066     1.007825032230
         H           -3.043107979863     0.295000582974     0.010319353934     1.007825032230
         H            3.485922020137    -0.463422417026     0.350143353934     1.007825032230
         H            3.128582020137     1.188422582974     0.120955353934     1.007825032230

  Basis Set: AUG-CC-PVTZ
    Blend: AUG-CC-PVTZ
  Basis Set: (AUG-CC-PVTZ AUX)
    Blend: AUG-CC-PVTZ-JKFIT
	 Reference Energy          =    -431.7821795153017774 [Eh]
	 Singles Energy            =      -0.0000000000000000 [Eh]
	 Same-Spin Energy          =      -0.4520421456875959 [Eh]
	 Opposite-Spin Energy      =      -1.3744386151253112 [Eh]
	 Correlation Energy        =      -1.8264807608129070 [Eh]
	 Total Energy              =    -433.6086602761146764 [Eh]

	 ================> DF-SCS-MP2 Energies <==================
	-----------------------------------------------------------
	 SCS Same-Spin Scale       =       0.3333333333333333 [-]
	 SCS Opposite-Spin Scale   =       1.2000000000000000 [-]
	 SCS Same-Spin Energy      =      -0.1506807152291986 [Eh]
	 SCS Opposite-Spin Energy  =      -1.6493263381503733 [Eh]
	 SCS Correlation Energy    =      -1.8000070533795720 [Eh]
	 SCS Total Energy          =    -433.5821865686813226 [Eh]
	-----------------------------------------------------------

  Dipole Moment: [D]
     X:     2.3123      Y:    -6.0709      Z:     0.8299     Total:     6.5492

*** Psi4 exiting successfully. Buy a developer a beer!
