                               Psi4 1.3.2 release

  ==> Input File <==

--------------------------------------------------------------------------
#psi4
#
memory 32 gb

molecule  {
0 1
  O       -1.4243350     1.8531120    -0.0084660
  N       -1.0469957    -0.4497823     0.0059261
  N        0.7494254     0.9990044     0.0088994
  N        2.8919430     0.2615640    -0.0759850
  C       -0.2733660    -1.4960510    -0.0007800
  C        1.0765330    -1.3300920    -0.0040440
  C       -0.6338910     0.9109410     0.0155220
  C       -2.5617390    -0.6507120     0.0005160
  C        1.5376510     0.0247200    -0.0002060
  H       -0.7522370    -2.4720050    -0.0099570
  H        1.7553550    -2.1750520    -0.0313920
  H       -2.8635010    -1.2105310     0.8892080
  H       -2.8583950    -1.1972750    -0.8980640
  H       -3.0263160     0.3321150     0.0069490
  H        3.5027140    -0.4263080     0.3467730
  H        3.1453740     1.2255370     0.1175850
units angstrom
no_reorient  #important for SAPT in psi4, default
symmetry c1  #important for SAPT in psi4, default
}

set PROPERTIES_ORIGIN ["COM"]
properties('MP2/aug-cc-pvtz', properties = ['dipole'])
--------------------------------------------------------------------------

    Molecular point group: c1
  Charge       = 0
  Multiplicity = 1
  Basis Set: AUG-CC-PVTZ
    Blend: AUG-CC-PVTZ
  Basis Set: (AUG-CC-PVTZ AUX)
    Blend: AUG-CC-PVTZ-JKFIT

    Orbital Energies [Eh]
    ---------------------

    Doubly Occupied:

       1A    -20.515958     2A    -15.626944     3A    -15.582137
       4A    -15.533675     5A    -11.381808     6A    -11.335008
       7A    -11.317091     8A    -11.278197     9A    -11.233866
      10A     -1.390641    11A     -1.311305    12A     -1.272531
      13A     -1.175019    14A     -1.064872    15A     -0.966943
      16A     -0.905224    17A     -0.860508    18A     -0.759707
      19A     -0.728065    20A     -0.683667    21A     -0.666057
      22A     -0.657830    23A     -0.625598    24A     -0.603767
      25A     -0.585986    26A     -0.581663    27A     -0.566186
      28A     -0.524518    29A     -0.488566    30A     -0.447826
      31A     -0.409465    32A     -0.391459    33A     -0.333381

  @DF-RHF Final Energy:  -431.79025700924831

   => Energetics <=

    Nuclear Repulsion Energy =            443.1527917260801246
    One-Electron Energy =               -1466.2751667316358635
    Two-Electron Energy =                 591.3321179963074883
    Total Energy =                       -431.7902570092483074
  Basis Set: (AUG-CC-PVTZ AUX)
    Blend: AUG-CC-PVTZ-RI
    Molecular point group: c1

    Geometry (in Angstrom), charge = 0, multiplicity = 1:

       Center              X                  Y                   Z               Mass
    ------------   -----------------  -----------------  -----------------  -----------------
         O           -1.441796707117     1.816891732398    -0.004984914098    15.994914619570
         N           -1.064457407117    -0.486002567602     0.009407185902    14.003074004430
         N            0.731963692883     0.962784132398     0.012380485902    14.003074004430
         N            2.874481292883     0.225343732398    -0.072503914098    14.003074004430
         C           -0.290827707117    -1.532271267602     0.002701085902    12.000000000000
         C            1.059071292883    -1.366312267602    -0.000562914098    12.000000000000
         C           -0.651352707117     0.874720732398     0.019003085902    12.000000000000
         C           -2.579200707117    -0.686932267602     0.003997085902    12.000000000000
         C            1.520189292883    -0.011500267602     0.003275085902    12.000000000000
         H           -0.769698707117    -2.508225267602    -0.006475914098     1.007825032230
         H            1.737893292883    -2.211272267602    -0.027910914098     1.007825032230
         H           -2.880962707117    -1.246751267602     0.892689085902     1.007825032230
         H           -2.875856707117    -1.233495267602    -0.894582914098     1.007825032230
         H           -3.043777707117     0.295894732398     0.010430085902     1.007825032230
         H            3.485252292883    -0.462528267602     0.350254085902     1.007825032230
         H            3.127912292883     1.189316732398     0.121066085902     1.007825032230

  Basis Set: AUG-CC-PVTZ
    Blend: AUG-CC-PVTZ
  Basis Set: (AUG-CC-PVTZ AUX)
    Blend: AUG-CC-PVTZ-JKFIT
	 Reference Energy          =    -431.7902570092483074 [Eh]
	 Singles Energy            =      -0.0000000000000000 [Eh]
	 Same-Spin Energy          =      -0.4507875884385476 [Eh]
	 Opposite-Spin Energy      =      -1.3717571473847081 [Eh]
	 Correlation Energy        =      -1.8225447358232558 [Eh]
	 Total Energy              =    -433.6128017450715788 [Eh]

	 ================> DF-SCS-MP2 Energies <==================
	-----------------------------------------------------------
	 SCS Same-Spin Scale       =       0.3333333333333333 [-]
	 SCS Opposite-Spin Scale   =       1.2000000000000000 [-]
	 SCS Same-Spin Energy      =      -0.1502625294795158 [Eh]
	 SCS Opposite-Spin Energy  =      -1.6461085768616497 [Eh]
	 SCS Correlation Energy    =      -1.7963711063411656 [Eh]
	 SCS Total Energy          =    -433.5866281155894626 [Eh]
	-----------------------------------------------------------

  Dipole Moment: [D]
     X:     1.1313      Y:    -5.3347      Z:     0.8427     Total:     5.5180

*** Psi4 exiting successfully. Buy a developer a beer!
